                  Welcome to Q-Chem
     A Quantum Leap Into The Future Of Chemistry


 Q-Chem 5.4 (devel), Q-Chem, Inc., Pleasanton, CA (2021)

 E. Epifanovsky,  A. T. B. Gilbert,  Xintian Feng,  Joonho Lee,  Yuezhi Mao,  
 N. Mardirossian,  P. Pokhilko,  A. White,  M. Wormit,  M. P. Coons,  
 A. L. Dempwolff,  Zhengting Gan,  D. Hait,  P. R. Horn,  L. D. Jacobson,  
 I. Kaliman,  J. Kussmann,  A. W. Lange,  Ka Un Lao,  D. S. Levine,  Jie Liu,  
 S. C. McKenzie,  A. F. Morrison,  K. Nanda,  F. Plasser,  D. R. Rehn,  
 M. L. Vidal,  Zhi-Qiang You,  Ying Zhu,  B. Alam,  B. Albrecht,  
 A. Aldossary,  E. Alguire,  J. H. Andersen,  D. Barton,  K. Begam,  A. Behn,  
 Y. A. Bernard,  E. J. Berquist,  H. Burton,  A. Carreras,  K. Carter-Fenk,  
 R. Chakraborty,  A. D. Chien,  K. D. Closser,  V. Cofer-Shabica,  
 S. Dasgupta,  Jia Deng,  M. de Wergifosse,  M. Diedenhofen,  Hainam Do,  
 S. Ehlert,  Po-Tung Fang,  S. Fatehi,  Qingguo Feng,  T. Friedhoff,  
 J. Gayvert,  Qinghui Ge,  G. Gidofalvi,  M. Goldey,  J. Gomes,  
 C. Gonzalez-Espinoza,  S. Gulania,  A. Gunina,  M. W. D. Hanson-Heine,  
 P. H. P. Harbach,  A. W. Hauser,  M. F. Herbst,  M. Hernandez Vera,  
 M. Hodecker,  Z. C. Holden,  S. Houck,  Xunkun Huang,  Kerwin Hui,  
 B. C. Huynh,  M. Ivanov,  Hyunjun Ji,  Hanjie Jiang,  B. Kaduk,  S. Kaehler,  
 K. Khistyaev,  Jaehoon Kim,  P. Klunzinger,  Z. Koczor-Benda,  
 Joong Hoon Koh,  D. Kosenkov,  L. Koulias,  T. Kowalczyk,  C. M. Krauter,  
 K. Kue,  A. Kunitsa,  T. Kus,  A. Landau,  K. V. Lawler,  D. Lefrancois,  
 S. Lehtola,  Rain Li,  Yi-Pei Li,  Jiashu Liang,  M. Liebenthal,  
 Hung-Hsuan Lin,  You-Sheng Lin,  Fenglai Liu,  Kuan-Yu Liu,  
 M. Loipersberger,  A. Luenser,  A. Manjanath,  P. Manohar,  E. Mansoor,  
 S. F. Manzer,  Shan-Ping Mao,  A. V. Marenich,  T. Markovich,  S. Mason,  
 S. A. Maurer,  P. F. McLaughlin,  M. F. S. J. Menger,  J.-M. Mewes,  
 S. A. Mewes,  P. Morgante,  J. W. Mullinax,  K. J. Oosterbaan,  G. Paran,  
 Alexander C. Paul,  Suranjan K. Paul,  F. Pavosevic,  Zheng Pei,  S. Prager,  
 E. I. Proynov,  E. Ramos,  B. Rana,  A. E. Rask,  A. Rettig,  R. M. Richard,  
 F. Rob,  E. Rossomme,  T. Scheele,  M. Scheurer,  M. Schneider,  
 N. Sergueev,  S. M. Sharada,  W. Skomorowski,  D. W. Small,  C. J. Stein,  
 Yu-Chuan Su,  E. J. Sundstrom,  Zhen Tao,  J. Thirman,  T. Tsuchimochi,  
 N. M. Tubman,  S. P. Veccham,  O. Vydrov,  J. Wenzel,  J. Witte,  A. Yamada,  
 Kun Yao,  S. Yeganeh,  S. R. Yost,  A. Zech,  Igor Ying Zhang,  Xing Zhang,  
 Yu Zhang,  D. Zuev,  A. Aspuru-Guzik,  A. T. Bell,  N. A. Besley,  
 K. B. Bravaya,  B. R. Brooks,  D. Casanova,  Jeng-Da Chai,  S. Coriani,  
 C. J. Cramer,  A. E. DePrince, III,  R. A. DiStasio Jr.,  A. Dreuw,  
 B. D. Dunietz,  T. R. Furlani,  W. A. Goddard III,  S. Grimme,  
 S. Hammes-Schiffer,  T. Head-Gordon,  W. J. Hehre,  Chao-Ping Hsu,  
 T.-C. Jagau,  Yousung Jung,  A. Klamt,  Jing Kong,  D. S. Lambrecht,  
 WanZhen Liang,  N. J. Mayhall,  C. W. McCurdy,  J. B. Neaton,  
 C. Ochsenfeld,  J. A. Parkhill,  R. Peverati,  V. A. Rassolov,  Yihan Shao,  
 L. V. Slipchenko,  T. Stauch,  R. P. Steele,  J. E. Subotnik,  
 A. J. W. Thom,  A. Tkatchenko,  D. G. Truhlar,  T. Van Voorhis,  
 T. A. Wesolowski,  K. B. Whaley,  H. L. Woodcock III,  P. M. Zimmerman,  
 S. Faraji,  P. M. W. Gill,  M. Head-Gordon,  J. M. Herbert,  A. I. Krylov

 Additional authors for Version 5.4.1: 
 S. Kotaru,  Shaozhi Li,  Xiangyuan Li,  F. Matz,  A. Molle,  Haisheng Ren,  
 Yingli Su,  Hung-Yi Tsai,  C. Utku,  Fang Wang

 Contributors to earlier versions of Q-Chem not listed above: 
 R. D. Adamson,  B. Austin,  R. Baer,  J. Baker,  G. J. O. Beran,  
 K. Brandhorst,  S. T. Brown,  E. F. C. Byrd,  A. K. Chakraborty,  
 G. K. L. Chan,  Chun-Min Chang,  Yunqing Chen,  C.-L. Cheng,  
 Siu Hung Chien,  D. M. Chipman,  D. L. Crittenden,  H. Dachsel,  
 R. J. Doerksen,  A. D. Dutoi,  R. G. Edgar,  J. Fosso-Tande,  
 L. Fusti-Molnar,  D. Ghosh,  A. Ghysels,  A. Golubeva-Zadorozhnaya,  
 J. Gonthier,  M. S. Gordon,  S. R. Gwaltney,  G. Hawkins,  J. E. Herr,  
 A. Heyden,  S. Hirata,  E. G. Hohenstein,  G. Kedziora,  F. J. Keil,  
 C. Kelley,  Jihan Kim,  R. A. King,  R. Z. Khaliullin,  P. P. Korambath,  
 W. Kurlancheek,  A. Laurent,  A. M. Lee,  M. S. Lee,  S. V. Levchenko,  
 Ching Yeh Lin,  D. Liotard,  E. Livshits,  R. C. Lochan,  I. Lotan,  
 L. A. Martinez-Martinez,  P. E. Maslen,  N. Nair,  D. P. O'Neill,  
 D. Neuhauser,  E. Neuscamman,  C. M. Oana,  R. Olivares-Amaya,  R. Olson,  
 T. M. Perrine,  B. Peters,  P. A. Pieniazek,  A. Prociuk,  Y. M. Rhee,  
 J. Ritchie,  M. A. Rohrdanz,  E. Rosta,  N. J. Russ,  H. F. Schaefer III,  
 M. W. Schmidt,  N. E. Schultz,  S. Sharma,  N. Shenvi,  C. D. Sherrill,  
 A. C. Simmonett,  A. Sodt,  T. Stein,  D. Stuck,  K. S. Thanthiriwatte,  
 V. Vanovschi,  L. Vogt,  Tao Wang,  A. Warshel,  M. A. Watson,  
 C. F. Williams,  Q. Wu,  X. Xu,  Jun Yang,  W. Zhang,  Yan Zhao

 Please cite Q-Chem as follows:
 Y. Shao et al., Mol. Phys. 113, 184-215 (2015)
 DOI: 10.1080/00268976.2014.952696

 Q-Chem 5.4.1 for Intel X86 EM64T Linux

 Parts of Q-Chem use Armadillo 9.800.1 (Horizon Scraper).
 http://arma.sourceforge.net/

 Q-Chem begins on Wed Mar 15 17:53:09 2023  

 Host: cpu121.yggdrasil
0

     Scratch files written to /srv/beegfs/scratch/users/f/fum/qchem93234//
 Processing $rem in /home/share/wesolowski/qc5.aug2021.FDE/config/preferences:
 Processing $rem in /home/fum/.qchemrc:

 Checking the input file for inconsistencies... 	...done.

--------------------------------------------------------------
User input:
--------------------------------------------------------------
$comment
generated from CCJob.Templates
$end

$rem
sym_ignore = true
method = adc(2)
ee_states = 10
basis = cc-pVDZ
mem_static = 1024
mem_total = 40000
adc_davidson_maxiter = 900
adc_davidson_conv = 6
adc_print = 3
adc_prop_es = true
adc_prop_es2es = true
adc_prop_tpa = true
molden_format = True
state_analysis = true
print_orbitals = 15
gen_scfman = false
fde_export_density = true
fde_details = 3
$end

$molecule
0 1
H -0.0348278765 -0.2442097827 0.0636489606
C -1.0765972949 -0.5242748755 0.0376448224
H -1.313264467 -1.5767591607 -0.0757276926
C -2.043634118 0.3926884087 0.0061254933
H -1.8137616575 1.4459188338 0.0804456828
H -3.085977293 0.114931858 -0.0593381042                     
$end
--------------------------------------------------------------
 ----------------------------------------------------------------
             Standard Nuclear Orientation (Angstroms)
    I     Atom           X                Y                Z
 ----------------------------------------------------------------
    1      H      -0.0348278765    -0.2442097827     0.0636489606
    2      C      -1.0765972949    -0.5242748755     0.0376448224
    3      H      -1.3132644670    -1.5767591607    -0.0757276926
    4      C      -2.0436341180     0.3926884087     0.0061254933
    5      H      -1.8137616575     1.4459188338     0.0804456828
    6      H      -3.0859772930     0.1149318580    -0.0593381042
 ----------------------------------------------------------------
 Nuclear Repulsion Energy =          33.41506182 hartrees
 There are        8 alpha and        8 beta electrons
 Requested basis set is cc-pVDZ
 There are 24 shells and 48 basis functions
 Total memory of 40000 MB is distributed as follows: 
   MEM_STATIC is set to 1024 MB
   QALLOC/CCMAN JOB total memory use is  38976 MB
 Warning: actual memory use might exceed 40000 MB

 Total QAlloc Memory Limit  40000 MB
 Mega-Array Size      1001 MB
 MEM_STATIC part      1024 MB

                       Distance Matrix (Angstroms)
             H (  1)   C (  2)   H (  3)   C (  4)   H (  5)
   C (  2)  1.079072
   H (  3)  1.851895  1.084706
   C (  4)  2.108139  1.333032  2.102109
   H (  5)  2.453859  2.104021  3.067812  1.080583
   H (  6)  3.074674  2.110829  2.450428  1.080700  1.846510

 A cutoff of  1.0D-11 yielded    300 shell pairs
 There are      1220 function pairs (      1329 Cartesian)
 Smallest overlap matrix eigenvalue = 4.82E-03

 Scale SEOQF with 1.000000e-01/1.000000e-01/1.000000e+00

 Standard Electronic Orientation quadrupole field applied
 Nucleus-field energy     =     0.0000000021 hartrees
 Guess from superposition of atomic densities
 Warning:  Energy on first SCF cycle will be non-variational
 SAD guess density has 16.000000 electrons
 A restricted Hartree-Fock SCF calculation will be
 performed using Pulay DIIS extrapolation
 SCF converges when DIIS error is below 1.0E-08
 using 10 threads for integral computing
 -------------------------------------------------------
 OpenMP Integral computing Module                
 Release: version 1.0, May 2013, Q-Chem Inc. Pittsburgh 
 -------------------------------------------------------
 ---------------------------------------
  Cycle       Energy         DIIS Error
 ---------------------------------------
    1     -78.4371900881      1.01E-01
    2     -78.0173155299      7.21E-03
    3     -78.0379214012      1.84E-03
    4     -78.0394027162      5.72E-04
    5     -78.0395238934      5.80E-05
    6     -78.0395257784      9.31E-06
    7     -78.0395258397      2.17E-06
    8     -78.0395258426      7.73E-07
    9     -78.0395258429      1.35E-07
   10     -78.0395258429      3.54E-08
   11     -78.0395258429      7.05E-09 Convergence criterion met
 ---------------------------------------
 SCF time:  CPU 2.02 s  wall 3.04 s
 SCF   energy in the final basis set = -78.03952584
 Total energy in the final basis set = -78.03952584
Exporting Density Matrix to file 'Densmat_SCF.txt'.
Export successful
================================================================================
|                                                                              |
|                                 A D C  M A N                                 |
|                                                                              |
 ------------------------------------------------------------------------------ 
|                                                                              |
| Components:                                                                  |
|                                                                              |
| - libvmm - 1.3-trunk                                                         |
|   Authors:                                                                   |
|   Evgeny Epifanovsky, Ilya Kaliman                                           |
|                                                                              |
| - libtensor - 2.5-trunk                                                      |
|   Authors:                                                                   |
|   Evgeny Epifanovsky, Michael Wormit, Dmitry Zuev, Sam Manzer,               |
|   Ilya Kaliman                                                               |
|                                                                              |
| - libwfa - 1.1-trunk                                                         |
|   Authors:                                                                   |
|   Felix Plasser, Stefanie Mewes (Baeppler), Benjamin Thomitzni,              |
|   Michael Wormit, Feng Chen, Anna I. Krylov, Pavel Pokhilko                  |
|                                                                              |
| - libadc - 1.1-trunk                                                         |
|   Authors:                                                                   |
|   Michael Wormit, Adrian L. Dempwolff, Philipp H. P. Harbach,                |
|   Caroline Krauter, Dirk Rehn, Matthias Schneider, Jan Wenzel                |
|                                                                              |
| - adcman - 2.6-trunk                                                         |
|   Authors:                                                                   |
|   Michael Wormit, Adrian L. Dempwolff, Philipp H. P. Harbach,                |
|   Caroline Krauter, Daniel Lefrancois, Jan-Michael Mewes, Dirk Rehn,         |
|   Matthias Schneider, Jan Wenzel, Andreas Dreuw                              |
|                                                                              |
| Authors of earlier versions of ADCMAN:                                       |
| Andreas Dreuw, Jan Hendrik Starcke, Dirk Rehn, Michael Wormit                |
|                                                                              |
================================================================================

 Created directory /srv/beegfs/scratch/users/f/fum/qchem93234/plots
  Import QC data ...  CPU 0.00 s  wall 0.00 s

 Alpha MOs, Restricted
 -- Occupied --                  
-11.235 -11.234  -1.032  -0.790  -0.641  -0.582  -0.504  -0.374
  1 A     2 A     3 A     4 A     5 A     6 A     7 A     8 A                  
 -- Virtual --                   
  0.168   0.204   0.233   0.239   0.303   0.462   0.578   0.615
  9 A    10 A    11 A    12 A    13 A    14 A    15 A    16 A                  
  0.689   0.710   0.785   0.808   0.862   0.935   0.972   1.010
 17 A    18 A    19 A    20 A    21 A    22 A    23 A    24 A                  
  1.119   1.235   1.255   1.265   1.300   1.600   1.726   1.750
 25 A    26 A    27 A    28 A    29 A    30 A    31 A    32 A                  
  1.819   1.859   1.868   1.921   1.976   1.978   2.218   2.260
 33 A    34 A    35 A    36 A    37 A    38 A    39 A    40 A                  
  2.373   2.454   2.507   2.632   2.720   2.823   3.135   3.392
 41 A    42 A    43 A    44 A    45 A    46 A    47 A    48 A                  

 Beta MOs, Restricted
 -- Occupied --                  
-11.235 -11.234  -1.032  -0.790  -0.641  -0.582  -0.504  -0.374
  1 A     2 A     3 A     4 A     5 A     6 A     7 A     8 A                  
 -- Virtual --                   
  0.168   0.204   0.233   0.239   0.303   0.462   0.578   0.615
  9 A    10 A    11 A    12 A    13 A    14 A    15 A    16 A                  
  0.689   0.710   0.785   0.808   0.862   0.935   0.972   1.010
 17 A    18 A    19 A    20 A    21 A    22 A    23 A    24 A                  
  1.119   1.235   1.255   1.265   1.300   1.600   1.726   1.750
 25 A    26 A    27 A    28 A    29 A    30 A    31 A    32 A                  
  1.819   1.859   1.868   1.921   1.976   1.978   2.218   2.260
 33 A    34 A    35 A    36 A    37 A    38 A    39 A    40 A                  
  2.373   2.454   2.507   2.632   2.720   2.823   3.135   3.392
 41 A    42 A    43 A    44 A    45 A    46 A    47 A    48 A                  
  Import AO data ...  CPU 0.00 s  wall 0.04 s
  Using point group: C1
  Irreducible representations in point group: A
  Molecular orbitals: 
  Occupied MOs:
  Block   0:   1 (  A) A   2 (  A) A   3 (  A) A   4 (  A) A   5 (  A) A
                  -11.24      -11.23      -1.032     -0.7897     -0.6409
               6 (  A) A   7 (  A) A   8 (  A) A
                 -0.5817     -0.5043      -0.374
  Block   1:   1 (  A) B   2 (  A) B   3 (  A) B   4 (  A) B   5 (  A) B
                  -11.24      -11.23      -1.032     -0.7897     -0.6409
               6 (  A) B   7 (  A) B   8 (  A) B
                 -0.5817     -0.5043      -0.374
  Virtual MOs:
  Block   0:   9 (  A) A  10 (  A) A  11 (  A) A  12 (  A) A  13 (  A) A
                  0.1678      0.2036      0.2329      0.2394      0.3033
              14 (  A) A  15 (  A) A  16 (  A) A  17 (  A) A  18 (  A) A
                  0.4618      0.5776       0.615      0.6894      0.7096
              19 (  A) A  20 (  A) A  21 (  A) A  22 (  A) A
                  0.7848      0.8078      0.8621       0.935
  Block   1:  23 (  A) A  24 (  A) A  25 (  A) A  26 (  A) A  27 (  A) A
                  0.9721        1.01       1.119       1.235       1.255
              28 (  A) A  29 (  A) A  30 (  A) A  31 (  A) A  32 (  A) A
                   1.265         1.3         1.6       1.726        1.75
              33 (  A) A  34 (  A) A  35 (  A) A  36 (  A) A
                   1.819       1.859       1.868       1.921
  Block   2:  37 (  A) A  38 (  A) A  39 (  A) A  40 (  A) A  41 (  A) A
                   1.976       1.978       2.218        2.26       2.373
              42 (  A) A  43 (  A) A  44 (  A) A  45 (  A) A  46 (  A) A
                   2.454       2.507       2.632        2.72       2.823
              47 (  A) A  48 (  A) A
                   3.135       3.392
  Block   3:   9 (  A) B  10 (  A) B  11 (  A) B  12 (  A) B  13 (  A) B
                  0.1678      0.2036      0.2329      0.2394      0.3033
              14 (  A) B  15 (  A) B  16 (  A) B  17 (  A) B  18 (  A) B
                  0.4618      0.5776       0.615      0.6894      0.7096
              19 (  A) B  20 (  A) B  21 (  A) B  22 (  A) B
                  0.7848      0.8078      0.8621       0.935
  Block   4:  23 (  A) B  24 (  A) B  25 (  A) B  26 (  A) B  27 (  A) B
                  0.9721        1.01       1.119       1.235       1.255
              28 (  A) B  29 (  A) B  30 (  A) B  31 (  A) B  32 (  A) B
                   1.265         1.3         1.6       1.726        1.75
              33 (  A) B  34 (  A) B  35 (  A) B  36 (  A) B
                   1.819       1.859       1.868       1.921
  Block   5:  37 (  A) B  38 (  A) B  39 (  A) B  40 (  A) B  41 (  A) B
                   1.976       1.978       2.218        2.26       2.373
              42 (  A) B  43 (  A) B  44 (  A) B  45 (  A) B  46 (  A) B
                   2.454       2.507       2.632        2.72       2.823
              47 (  A) B  48 (  A) B
                   3.135       3.392
  Import MO data ...  CPU 0.01 s  wall 0.01 s
  Import HF data ...  CPU 0.27 s  wall 0.07 s
  Import 2e integrals ...  CPU 0.89 s  wall 0.20 s

--------------------------------------------------------------------------------
                                   HF Summary                                   
--------------------------------------------------------------------------------
  Energy:                                                  -78.0395258429 a.u.
  Dip. moment [a.u.]:                  [  -0.000896,    0.004112,   -0.021450]
  Total dipole [Debye]:                                               0.055561
  <r^2> [a.u.]:                        [ 175.311355,   34.935729,   11.657531]
  Total <r^2> [a.u.]:                                               221.904615
--------------------------------------------------------------------------------
  HF properties ...  CPU 0.01 s  wall 0.01 s
  MP(1) calculation ...  CPU 0.01 s  wall 0.00 s
  N^6 prerequesite intermediates ...  CPU 0.45 s  wall 0.07 s
  Difference density matrix of state mp2_gs printed to ASCII file 'State_mp2_gs_Difference.txt'
Exporting MP density matrix to file 'Densmat_MP.txt'.
Export successful
  Total density matrix of state mp2_gs printed to ASCII file 'State_mp2_gs_Total.txt'
Exporting MP density matrix to file 'Densmat_MP.txt'.
Export successful

--------------------------------------------------------------------------------
                                 MP(2) Summary                                  
--------------------------------------------------------------------------------
  MP energy contribution:                                   -0.2798147789 a.u.
  Total energy:                                            -78.3193406218 a.u.
  Dip. moment [a.u.]:                  [  -0.000678,    0.003559,   -0.021157]
  Total dipole [Debye]:                                               0.054559
  <r^2> [a.u.]:                        [ 175.359688,   34.975407,   11.489246]
  Total <r^2> [a.u.]:                                               221.824341

  Density matrix analysis:
  ------------------------
  NOs
    Occupation of frontier NOs:
       0.0454   1.9381
    Number of electrons: 16.000000
    Number of unpaired electrons: n_u =  0.40388, n_u,nl =  0.04521
    NO participation ratio (PR_NO): 13.846030
  
  
  Mulliken Population Analysis
  Atom      Charge (e)              h+              e-           Del q
  --------------------------------------------------------------------
   1 H        0.050864        0.014050       -0.011230        0.002820
   2 C       -0.102094        0.093603       -0.098920       -0.005318
   3 H        0.051263        0.014063       -0.011219        0.002844
   4 C       -0.101035        0.092852       -0.099053       -0.006201
   5 H        0.050159        0.014152       -0.011186        0.002966
   6 H        0.050843        0.014088       -0.011200        0.002889
  --------------------------------------------------------------------
  Sum:       -0.000000        0.242808       -0.242808        0.000000
  
  Multipole moment analysis of the density matrix
    Molecular charge:                      -0.000000
    Number of electrons:                   16.000000
      Center of electronic charge [Ang]: [ -1.560554,  -0.065720,   0.017678]
    Total nuclear charge:                  16.000000
      Center of nuclear charge [Ang]:    [ -1.560576,  -0.065602,   0.016978]
    Dipole moment [D]:                     0.054559
      Cartesian components [D]:          [ -0.001723,   0.009047,  -0.053776]
    RMS size of the density [Ang]:         1.200984
      Cartesian components [Ang]:        [  0.796102,   0.779624,   0.448073]
  
  Exciton analysis of the difference density matrix
    <r_h> [Ang]:                  [ -1.560144,  -0.067206,   0.021122]
    <r_e> [Ang]:                  [ -1.560620,  -0.066003,   0.020482]
    |<r_e - r_h>| [Ang]:            0.001443
    Hole size [Ang]:                1.393886
      Cartesian components [Ang]: [  0.846180,   0.834726,   0.728100]
    Electron size [Ang]:            1.359794
      Cartesian components [Ang]: [  0.877655,   0.861793,   0.579720]
--------------------------------------------------------------------------------
  MP(2) calculation ...  CPU 0.55 s  wall 0.26 s
  Start ADC(2)-s ...  CPU 0.01 s  wall 0.00 s
  ADC(2) intermediates ...  CPU 0.02 s  wall 0.01 s
  Starting Davidson for singlet states of irrep A ... 
--------------------------------------------------------------------------------
   It NVec Conv  Avg. Norm  Max. Norm  Conv. states           Remark
--------------------------------------------------------------------------------
        10    0  1.330e-01  4.686e-01  0.4118 n n n n n n n n Guess.
    1   20    0  2.556e-02  1.108e-01  0.3259 n n n n n n n n 
    2   30    0  6.430e-03  2.686e-02  0.3211 n n n n n n n n 
    3   40    0  2.389e-03  1.190e-02  0.3207 n n n n n n n n 
    4   50    0  7.614e-04  4.435e-03  0.3207 n n n n n n n n 
    5   20    0  6.586e-04  4.756e-03  0.3207 n n n n n n n n Subspace collapsed.
    6   30    0  7.399e-04  4.907e-03  0.3207 n n n n n n n n 
    7   40    0  4.363e-04  2.821e-03  0.3207 n n n n n n n n 
    8   50    0  1.712e-04  1.043e-03  0.3207 n n n n n n n n 
    9   20    0  9.498e-05  6.290e-04  0.3207 n n n n n n n n Subspace collapsed.
   10   30    0  6.098e-05  4.360e-04  0.3207 n n n n n n n n 
   11   40    3  2.613e-05  1.625e-04  0.3207 n y y y n n n n 
   12   50    4  1.131e-05  6.598e-05  0.3207 y y y y n n n n 
   13   20    5  8.281e-06  5.007e-05  0.3207 y y y y y n n n Subspace collapsed.
   14   30    6  9.594e-06  5.950e-05  0.3207 y y y y y y n n 
   15   40    6  8.325e-06  5.428e-05  0.3207 y y y y y y n n 
   16   50    6  7.931e-06  6.102e-05  0.3207 y y y y y y n n 
   17   20    6  3.301e-06  2.546e-05  0.3207 y y y y y y n n Subspace collapsed.
   18   30    6  2.586e-06  2.008e-05  0.3207 y y y y y y n n 
   19   40    6  1.823e-06  1.481e-05  0.3207 y y y y y y n n 
   20   50    7  2.295e-06  2.038e-05  0.3207 y y y y y y y n 
   21   20    7  1.040e-06  9.403e-06  0.3207 y y y y y y y n Subspace collapsed.
   22   30    7  1.300e-06  1.193e-05  0.3207 y y y y y y y n 
   23   40    7  1.167e-06  1.097e-05  0.3207 y y y y y y y n 
   24   50    7  1.364e-06  1.314e-05  0.3207 y y y y y y y n 
   25   18    8  7.598e-07  7.324e-06  0.3207 y y y y y y y y Subspace collapsed.
   26   25    8  8.076e-07  7.792e-06  0.3207 y y y y y y y y 
   27   31    8  6.504e-07  6.321e-06  0.3207 y y y y y y y y 
   28   37    8  5.915e-07  5.810e-06  0.3207 y y y y y y y y 
   29   43    9  6.624e-07  6.551e-06  0.3207 y y y y y y y y 
   30   48    9  4.595e-07  4.566e-06  0.3207 y y y y y y y y 
   31   50    9  2.424e-07  2.413e-06  0.3207 y y y y y y y y 
   32   14    9  1.490e-07  1.484e-06  0.3207 y y y y y y y y Subspace collapsed.
   33   18    9  1.337e-07  1.333e-06  0.3207 y y y y y y y y 
   34   22   10  7.966e-08  7.942e-07  0.3207 y y y y y y y y Converged.
--------------------------------------------------------------------------------
  Davidson Summary: 
 ------------------------------------------------------------
  State  0: excitation energy =   0.3207 a.u.   (converged)
  State  1: excitation energy =   0.3321 a.u.   (converged)
  State  2: excitation energy =   0.3371 a.u.   (converged)
  State  3: excitation energy =   0.3614 a.u.   (converged)
  State  4: excitation energy =   0.3750 a.u.   (converged)
  State  5: excitation energy =   0.3869 a.u.   (converged)
  State  6: excitation energy =   0.4244 a.u.   (converged)
  State  7: excitation energy =   0.4467 a.u.   (converged)
  State  8: excitation energy =   0.4560 a.u.   (converged)
  State  9: excitation energy =   0.4644 a.u.   (converged)
 ------------------------------------------------------------

  Singlet states of irrep A ...  CPU 134.24 s  wall 34.83 s
  TDMs ...  CPU 1.14 s  wall 0.37 s
  SDMs ...  CPU 2.38 s  wall 0.68 s
  Starting TPA DIIS iterations ... 
------------------------------------ 
   It     Res. Norm  Remark
------------------------------------
                       Guess.
    1     4.400e+00  
    2     5.838e+00  
    3     1.076e+00  
    4     2.578e-01  
    5     6.607e-02  
    6     2.683e-02  
    7     8.242e-03  
    8     1.480e-03  
    9     5.531e-04  
   10     9.328e-05  
   11     3.320e-05  
   12     5.819e-06  
   13     2.762e-06  
   14     8.787e-07  Converged.
   ... Converged in 14 steps (norm: 8.78689e-07)
------------------------------------
  Starting TPA DIIS iterations ... 
------------------------------------ 
   It     Res. Norm  Remark
------------------------------------
                       Guess.
    1     4.194e+00  
    2     5.558e+00  
    3     1.034e+00  
    4     2.577e-01  
    5     6.568e-02  
    6     2.698e-02  
    7     8.136e-03  
    8     1.504e-03  
    9     5.590e-04  
   10     9.377e-05  
   11     3.354e-05  
   12     5.731e-06  
   13     2.615e-06  
   14     8.042e-07  Converged.
   ... Converged in 14 steps (norm: 8.04164e-07)
------------------------------------
  Starting TPA DIIS iterations ... 
------------------------------------ 
   It     Res. Norm  Remark
------------------------------------
                       Guess.
    1     7.661e-01  
    2     6.410e-01  
    3     2.046e-01  
    4     1.346e-01  
    5     1.691e-02  
    6     6.203e-03  
    7     1.053e-03  
    8     4.508e-04  
    9     1.301e-04  
   10     2.433e-05  
   11     7.662e-06  
   12     2.119e-06  
   13     1.691e-06  
   14     7.107e-07  Converged.
   ... Converged in 14 steps (norm: 7.10729e-07)
------------------------------------
  Starting TPA DIIS iterations ... 
------------------------------------ 
   It     Res. Norm  Remark
------------------------------------
                       Guess.
    1     4.681e+00  
    2     6.342e+00  
    3     1.155e+00  
    4     2.858e-01  
    5     7.424e-02  
    6     3.040e-02  
    7     9.320e-03  
    8     1.676e-03  
    9     6.319e-04  
   10     1.067e-04  
   11     3.886e-05  
   12     6.891e-06  
   13     3.379e-06  
   14     1.089e-06  
   15     5.056e-07  Converged.
   ... Converged in 15 steps (norm: 5.05573e-07)
------------------------------------
  Starting TPA DIIS iterations ... 
------------------------------------ 
   It     Res. Norm  Remark
------------------------------------
                       Guess.
    1     4.460e+00  
    2     6.037e+00  
    3     1.109e+00  
    4     2.855e-01  
    5     7.380e-02  
    6     3.059e-02  
    7     9.205e-03  
    8     1.705e-03  
    9     6.389e-04  
   10     1.073e-04  
   11     3.923e-05  
   12     6.767e-06  
   13     3.190e-06  
   14     9.904e-07  Converged.
   ... Converged in 14 steps (norm: 9.90385e-07)
------------------------------------
  Starting TPA DIIS iterations ... 
------------------------------------ 
   It     Res. Norm  Remark
------------------------------------
                       Guess.
    1     7.861e-01  
    2     6.775e-01  
    3     2.173e-01  
    4     1.433e-01  
    5     1.834e-02  
    6     6.851e-03  
    7     1.187e-03  
    8     5.275e-04  
    9     1.548e-04  
   10     2.672e-05  
   11     8.868e-06  
   12     2.483e-06  
   13     1.980e-06  
   14     8.685e-07  Converged.
   ... Converged in 14 steps (norm: 8.68478e-07)
------------------------------------
  Starting TPA DIIS iterations ... 
------------------------------------ 
   It     Res. Norm  Remark
------------------------------------
                       Guess.
    1     4.813e+00  
    2     6.583e+00  
    3     1.192e+00  
    4     2.994e-01  
    5     7.821e-02  
    6     3.215e-02  
    7     9.845e-03  
    8     1.772e-03  
    9     6.707e-04  
   10     1.133e-04  
   11     4.170e-05  
   12     7.430e-06  
   13     3.697e-06  
   14     1.200e-06  
   15     5.578e-07  Converged.
   ... Converged in 15 steps (norm: 5.5783e-07)
------------------------------------
  Starting TPA DIIS iterations ... 
------------------------------------ 
   It     Res. Norm  Remark
------------------------------------
                       Guess.
    1     4.586e+00  
    2     6.266e+00  
    3     1.145e+00  
    4     2.990e-01  
    5     7.776e-02  
    6     3.236e-02  
    7     9.725e-03  
    8     1.803e-03  
    9     6.782e-04  
   10     1.139e-04  
   11     4.207e-05  
   12     7.286e-06  
   13     3.485e-06  
   14     1.088e-06  
   15     5.015e-07  Converged.
   ... Converged in 15 steps (norm: 5.01502e-07)
------------------------------------
  Starting TPA DIIS iterations ... 
------------------------------------ 
   It     Res. Norm  Remark
------------------------------------
                       Guess.
    1     7.954e-01  
    2     6.948e-01  
    3     2.232e-01  
    4     1.473e-01  
    5     1.903e-02  
    6     7.165e-03  
    7     1.253e-03  
    8     5.658e-04  
    9     1.671e-04  
   10     2.764e-05  
   11     9.474e-06  
   12     2.669e-06  
   13     2.125e-06  
   14     9.478e-07  Converged.
   ... Converged in 14 steps (norm: 9.4781e-07)
------------------------------------
  Starting TPA DIIS iterations ... 
------------------------------------ 
   It     Res. Norm  Remark
------------------------------------
                       Guess.
    1     5.553e+00  
    2     7.965e+00  
    3     1.400e+00  
    4     3.801e-01  
    5     1.017e-01  
    6     4.259e-02  
    7     1.296e-02  
    8     2.346e-03  
    9     9.053e-04  
   10     1.525e-04  
   11     5.946e-05  
   12     1.081e-05  
   13     5.801e-06  
   14     1.964e-06  
   15     9.096e-07  Converged.
   ... Converged in 15 steps (norm: 9.0959e-07)
------------------------------------
  Starting TPA DIIS iterations ... 
------------------------------------ 
   It     Res. Norm  Remark
------------------------------------
                       Guess.
    1     5.289e+00  
    2     7.581e+00  
    3     1.343e+00  
    4     3.791e-01  
    5     1.012e-01  
    6     4.297e-02  
    7     1.281e-02  
    8     2.390e-03  
    9     9.161e-04  
   10     1.533e-04  
   11     5.983e-05  
   12     1.052e-05  
   13     5.433e-06  
   14     1.762e-06  
   15     8.157e-07  Converged.
   ... Converged in 15 steps (norm: 8.15665e-07)
------------------------------------
  Starting TPA DIIS iterations ... 
------------------------------------ 
   It     Res. Norm  Remark
------------------------------------
                       Guess.
    1     8.457e-01  
    2     7.929e-01  
    3     2.554e-01  
    4     1.686e-01  
    5     2.293e-02  
    6     9.025e-03  
    7     1.662e-03  
    8     7.949e-04  
    9     2.401e-04  
   10     3.107e-05  
   11     1.333e-05  
   12     3.885e-06  
   13     3.061e-06  
   14     1.421e-06  
   15     7.457e-07  Converged.
   ... Converged in 15 steps (norm: 7.45655e-07)
------------------------------------
  Starting TPA DIIS iterations ... 
------------------------------------ 
   It     Res. Norm  Remark
------------------------------------
                       Guess.
    1     6.056e+00  
    2     8.937e+00  
    3     1.540e+00  
    4     4.390e-01  
    5     1.189e-01  
    6     5.031e-02  
    7     1.523e-02  
    8     2.769e-03  
    9     1.082e-03  
   10     1.815e-04  
   11     7.327e-05  
   12     1.345e-05  
   13     7.552e-06  
   14     2.634e-06  
   15     1.208e-06  
   16     4.591e-07  Converged.
   ... Converged in 16 steps (norm: 4.59065e-07)
------------------------------------
  Starting TPA DIIS iterations ... 
------------------------------------ 
   It     Res. Norm  Remark
------------------------------------
                       Guess.
    1     5.767e+00  
    2     8.506e+00  
    3     1.477e+00  
    4     4.375e-01  
    5     1.183e-01  
    6     5.083e-02  
    7     1.507e-02  
    8     2.823e-03  
    9     1.095e-03  
   10     1.824e-04  
   11     7.360e-05  
   12     1.301e-05  
   13     7.047e-06  
   14     2.354e-06  
   15     1.082e-06  
   16     3.877e-07  Converged.
   ... Converged in 16 steps (norm: 3.87681e-07)
------------------------------------
  Starting TPA DIIS iterations ... 
------------------------------------ 
   It     Res. Norm  Remark
------------------------------------
                       Guess.
    1     8.787e-01  
    2     8.609e-01  
    3     2.763e-01  
    4     1.824e-01  
    5     2.566e-02  
    6     1.038e-02  
    7     1.976e-03  
    8     9.544e-04  
    9     2.910e-04  
   10     3.325e-05  
   11     1.644e-05  
   12     4.898e-06  
   13     3.846e-06  
   14     1.751e-06  
   15     9.714e-07  Converged.
   ... Converged in 15 steps (norm: 9.71386e-07)
------------------------------------
  Starting TPA DIIS iterations ... 
------------------------------------ 
   It     Res. Norm  Remark
------------------------------------
                       Guess.
    1     6.556e+00  
    2     9.927e+00  
    3     1.678e+00  
    4     5.005e-01  
    5     1.368e-01  
    6     5.845e-02  
    7     1.760e-02  
    8     3.217e-03  
    9     1.269e-03  
   10     2.119e-04  
   11     8.829e-05  
   12     1.634e-05  
   13     9.552e-06  
   14     3.431e-06  
   15     1.556e-06  
   16     5.979e-07  Converged.
   ... Converged in 16 steps (norm: 5.97855e-07)
------------------------------------
  Starting TPA DIIS iterations ... 
------------------------------------ 
   It     Res. Norm  Remark
------------------------------------
                       Guess.
    1     6.242e+00  
    2     9.448e+00  
    3     1.609e+00  
    4     4.984e-01  
    5     1.361e-01  
    6     5.911e-02  
    7     1.743e-02  
    8     3.281e-03  
    9     1.286e-03  
   10     2.129e-04  
   11     8.853e-05  
   12     1.571e-05  
   13     8.885e-06  
   14     3.058e-06  
   15     1.390e-06  
   16     5.081e-07  Converged.
   ... Converged in 16 steps (norm: 5.08075e-07)
------------------------------------
  Starting TPA DIIS iterations ... 
------------------------------------ 
   It     Res. Norm  Remark
------------------------------------
                       Guess.
    1     9.107e-01  
    2     9.296e-01  
    3     2.963e-01  
    4     1.956e-01  
    5     2.842e-02  
    6     1.179e-02  
    7     2.316e-03  
    8     1.106e-03  
    9     3.411e-04  
   10     3.659e-05  
   11     1.994e-05  
   12     6.070e-06  
   13     4.773e-06  
   14     2.112e-06  
   15     1.030e-06  
   16     5.212e-07  Converged.
   ... Converged in 16 steps (norm: 5.21171e-07)
------------------------------------
  Starting TPA DIIS iterations ... 
------------------------------------ 
   It     Res. Norm  Remark
------------------------------------
                       Guess.
    1     8.665e+00  
    2     1.435e+01  
    3     2.252e+00  
    4     7.873e-01  
    5     2.205e-01  
    6     9.728e-02  
    7     2.871e-02  
    8     5.380e-03  
    9     2.193e-03  
   10     3.545e-04  
   11     1.636e-04  
   12     3.120e-05  
   13     2.075e-05  
   14     8.329e-06  
   15     3.654e-06  
   16     1.392e-06  
   17     6.349e-07  Converged.
   ... Converged in 17 steps (norm: 6.349e-07)
------------------------------------
  Starting TPA DIIS iterations ... 
------------------------------------ 
   It     Res. Norm  Remark
------------------------------------
                       Guess.
    1     8.246e+00  
    2     1.365e+01  
    3     2.157e+00  
    4     7.820e-01  
    5     2.196e-01  
    6     9.877e-02  
    7     2.846e-02  
    8     5.493e-03  
    9     2.226e-03  
   10     3.561e-04  
   11     1.629e-04  
   12     2.936e-05  
   13     1.908e-05  
   14     7.390e-06  
   15     3.239e-06  
   16     1.221e-06  
   17     5.528e-07  Converged.
   ... Converged in 17 steps (norm: 5.52826e-07)
------------------------------------
  Starting TPA DIIS iterations ... 
------------------------------------ 
   It     Res. Norm  Remark
------------------------------------
                       Guess.
    1     1.042e+00  
    2     1.233e+00  
    3     3.737e-01  
    4     2.485e-01  
    5     4.060e-02  
    6     1.825e-02  
    7     4.004e-03  
    8     1.579e-03  
    9     5.388e-04  
   10     6.623e-05  
   11     3.947e-05  
   12     1.308e-05  
   13     1.021e-05  
   14     4.893e-06  
   15     3.227e-06  
   16     1.240e-06  
   17     5.931e-07  Converged.
   ... Converged in 17 steps (norm: 5.93072e-07)
------------------------------------
  Starting TPA DIIS iterations ... 
------------------------------------ 
   It     Res. Norm  Remark
------------------------------------
                       Guess.
    1     1.048e+01  
    2     1.844e+01  
    3     2.734e+00  
    4     1.063e+00  
    5     3.016e-01  
    6     1.359e-01  
    7     3.947e-02  
    8     7.587e-03  
    9     3.146e-03  
   10     4.922e-04  
   11     2.403e-04  
   12     4.772e-05  
   13     3.358e-05  
   14     1.459e-05  
   15     6.517e-06  
   16     2.405e-06  
   17     1.317e-06  
   18     3.090e-07  Converged.
   ... Converged in 18 steps (norm: 3.09032e-07)
------------------------------------
  Starting TPA DIIS iterations ... 
------------------------------------ 
   It     Res. Norm  Remark
------------------------------------
                       Guess.
    1     9.976e+00  
    2     1.755e+01  
    3     2.618e+00  
    4     1.053e+00  
    5     3.006e-01  
    6     1.383e-01  
    7     3.918e-02  
    8     7.752e-03  
    9     3.199e-03  
   10     4.946e-04  
   11     2.381e-04  
   12     4.433e-05  
   13     3.066e-05  
   14     1.291e-05  
   15     5.776e-06  
   16     2.168e-06  
   17     1.128e-06  
   18     3.092e-07  Converged.
   ... Converged in 18 steps (norm: 3.0923e-07)
------------------------------------
  Starting TPA DIIS iterations ... 
------------------------------------ 
   It     Res. Norm  Remark
------------------------------------
                       Guess.
    1     1.153e+00  
    2     1.511e+00  
    3     4.331e-01  
    4     2.916e-01  
    5     5.169e-02  
    6     2.406e-02  
    7     5.690e-03  
    8     1.778e-03  
    9     6.949e-04  
   10     1.020e-04  
   11     6.243e-05  
   12     2.215e-05  
   13     1.601e-05  
   14     8.063e-06  
   15     5.773e-06  
   16     2.216e-06  
   17     1.107e-06  
   18     2.216e-07  Converged.
   ... Converged in 18 steps (norm: 2.21592e-07)
------------------------------------
  Starting TPA DIIS iterations ... 
------------------------------------ 
   It     Res. Norm  Remark
------------------------------------
                       Guess.
    1     1.143e+01  
    2     2.066e+01  
    3     2.979e+00  
    4     1.213e+00  
    5     3.464e-01  
    6     1.575e-01  
    7     4.541e-02  
    8     8.853e-03  
    9     3.691e-03  
   10     5.678e-04  
   11     2.835e-04  
   12     5.783e-05  
   13     4.122e-05  
   14     1.852e-05  
   15     8.465e-06  
   16     3.088e-06  
   17     1.848e-06  
   18     4.256e-07  Converged.
   ... Converged in 18 steps (norm: 4.25626e-07)
------------------------------------
  Starting TPA DIIS iterations ... 
------------------------------------ 
   It     Res. Norm  Remark
------------------------------------
                       Guess.
    1     1.087e+01  
    2     1.965e+01  
    3     2.853e+00  
    4     1.201e+00  
    5     3.453e-01  
    6     1.604e-01  
    7     4.510e-02  
    8     9.050e-03  
    9     3.757e-03  
   10     5.708e-04  
   11     2.804e-04  
   12     5.350e-05  
   13     3.754e-05  
   14     1.637e-05  
   15     7.518e-06  
   16     2.815e-06  
   17     1.568e-06  
   18     4.263e-07  Converged.
   ... Converged in 18 steps (norm: 4.26314e-07)
------------------------------------
  Starting TPA DIIS iterations ... 
------------------------------------ 
   It     Res. Norm  Remark
------------------------------------
                       Guess.
    1     1.210e+00  
    2     1.661e+00  
    3     4.617e-01  
    4     3.134e-01  
    5     5.761e-02  
    6     2.700e-02  
    7     6.613e-03  
    8     1.840e-03  
    9     7.725e-04  
   10     1.216e-04  
   11     7.635e-05  
   12     2.803e-05  
   13     1.920e-05  
   14     9.574e-06  
   15     6.604e-06  
   16     2.693e-06  
   17     1.431e-06  
   18     2.863e-07  Converged.
   ... Converged in 18 steps (norm: 2.86336e-07)
------------------------------------
  Starting TPA DIIS iterations ... 
------------------------------------ 
   It     Res. Norm  Remark
------------------------------------
                       Guess.
    1     1.241e+01  
    2     2.302e+01  
    3     3.231e+00  
    4     1.373e+00  
    5     3.946e-01  
    6     1.810e-01  
    7     5.181e-02  
    8     1.025e-02  
    9     4.290e-03  
   10     6.487e-04  
   11     3.307e-04  
   12     6.954e-05  
   13     4.980e-05  
   14     2.306e-05  
   15     1.083e-05  
   16     3.923e-06  
   17     2.547e-06  
   18     7.149e-07  Converged.
   ... Converged in 18 steps (norm: 7.14907e-07)
------------------------------------
  Starting TPA DIIS iterations ... 
------------------------------------ 
   It     Res. Norm  Remark
------------------------------------
                       Guess.
    1     1.181e+01  
    2     2.190e+01  
    3     3.093e+00  
    4     1.359e+00  
    5     3.935e-01  
    6     1.846e-01  
    7     5.149e-02  
    8     1.049e-02  
    9     4.373e-03  
   10     6.527e-04  
   11     3.266e-04  
   12     6.418e-05  
   13     4.528e-05  
   14     2.037e-05  
   15     9.635e-06  
   16     3.610e-06  
   17     2.143e-06  
   18     6.521e-07  Converged.
   ... Converged in 18 steps (norm: 6.52051e-07)
------------------------------------
  Starting TPA DIIS iterations ... 
------------------------------------ 
   It     Res. Norm  Remark
------------------------------------
                       Guess.
    1     1.270e+00  
    2     1.821e+00  
    3     4.901e-01  
    4     3.355e-01  
    5     6.386e-02  
    6     2.994e-02  
    7     7.592e-03  
    8     1.893e-03  
    9     8.514e-04  
   10     1.422e-04  
   11     9.205e-05  
   12     3.499e-05  
   13     2.271e-05  
   14     1.103e-05  
   15     6.652e-06  
   16     2.947e-06  
   17     1.833e-06  
   18     3.614e-07  Converged.
   ... Converged in 18 steps (norm: 3.6143e-07)
------------------------------------
  Two-photon absorbption ...  CPU 119.07 s  wall 25.11 s
  Transition density matrix of state singlet_A_1 printed to ASCII file 'State_singlet_A_1_Transition.txt'
  Transition density matrix of state singlet_A_2 printed to ASCII file 'State_singlet_A_2_Transition.txt'
  Transition density matrix of state singlet_A_3 printed to ASCII file 'State_singlet_A_3_Transition.txt'
  Transition density matrix of state singlet_A_4 printed to ASCII file 'State_singlet_A_4_Transition.txt'
  Transition density matrix of state singlet_A_5 printed to ASCII file 'State_singlet_A_5_Transition.txt'
  Transition density matrix of state singlet_A_6 printed to ASCII file 'State_singlet_A_6_Transition.txt'
  Transition density matrix of state singlet_A_7 printed to ASCII file 'State_singlet_A_7_Transition.txt'
  Transition density matrix of state singlet_A_8 printed to ASCII file 'State_singlet_A_8_Transition.txt'
  Transition density matrix of state singlet_A_9 printed to ASCII file 'State_singlet_A_9_Transition.txt'
  Transition density matrix of state singlet_A_10 printed to ASCII file 'State_singlet_A_10_Transition.txt'
  Transition properties ...  CPU 0.17 s  wall 0.80 s
  Difference density matrix of state singlet_A_1 printed to ASCII file 'State_singlet_A_1_Difference.txt'
  Total density matrix of state singlet_A_1 printed to ASCII file 'State_singlet_A_1_Total.txt'
  Difference density matrix of state singlet_A_2 printed to ASCII file 'State_singlet_A_2_Difference.txt'
  Total density matrix of state singlet_A_2 printed to ASCII file 'State_singlet_A_2_Total.txt'
  Difference density matrix of state singlet_A_3 printed to ASCII file 'State_singlet_A_3_Difference.txt'
  Total density matrix of state singlet_A_3 printed to ASCII file 'State_singlet_A_3_Total.txt'
  Difference density matrix of state singlet_A_4 printed to ASCII file 'State_singlet_A_4_Difference.txt'
  Total density matrix of state singlet_A_4 printed to ASCII file 'State_singlet_A_4_Total.txt'
  Difference density matrix of state singlet_A_5 printed to ASCII file 'State_singlet_A_5_Difference.txt'
  Total density matrix of state singlet_A_5 printed to ASCII file 'State_singlet_A_5_Total.txt'
  Difference density matrix of state singlet_A_6 printed to ASCII file 'State_singlet_A_6_Difference.txt'
  Total density matrix of state singlet_A_6 printed to ASCII file 'State_singlet_A_6_Total.txt'
  Difference density matrix of state singlet_A_7 printed to ASCII file 'State_singlet_A_7_Difference.txt'
  Total density matrix of state singlet_A_7 printed to ASCII file 'State_singlet_A_7_Total.txt'
  Difference density matrix of state singlet_A_8 printed to ASCII file 'State_singlet_A_8_Difference.txt'
  Total density matrix of state singlet_A_8 printed to ASCII file 'State_singlet_A_8_Total.txt'
  Difference density matrix of state singlet_A_9 printed to ASCII file 'State_singlet_A_9_Difference.txt'
  Total density matrix of state singlet_A_9 printed to ASCII file 'State_singlet_A_9_Total.txt'
  Difference density matrix of state singlet_A_10 printed to ASCII file 'State_singlet_A_10_Difference.txt'
  Total density matrix of state singlet_A_10 printed to ASCII file 'State_singlet_A_10_Total.txt'
  Properties ...  CPU 0.42 s  wall 1.03 s
  ISR TDMS ...  CPU 16.63 s  wall 4.34 s
  ISR transition properties ...  CPU 0.22 s  wall 0.10 s
  Sum-over-states TPA ...  CPU 0.00 s  wall 0.00 s

--------------------------------------------------------------------------------
                   State-averaged natural transition orbitals
--------------------------------------------------------------------------------
--------------------------------------------------------------------------------
  SA-NTO decomposition ...  CPU 0.01 s  wall 0.03 s

--------------------------------------------------------------------------------
                             Excited State Summary
--------------------------------------------------------------------------------
--------------------------------------------------------------------------------

  Excited state 1 (singlet, A)                                     [converged]
  ----------------------------------------------------------------------------
  Term symbol:  2 (1) A                                     R^2 =  6.88871e-13

  Total energy:                                            -77.9986431187 a.u.
  Excitation energy:                                               8.726623 eV

  Osc. strength:                                                      0.443171
  Trans. dip. moment [a.u.]:           [   1.040937,   -0.993745,    0.042025]
  <i|r^2|0> [a.u.]:                    [   6.145704,   -0.256387,   -0.006833]
  Two-photon absorption cross-section (SoS) [a.u.]:                   0.006161
  Two-photon absorption matrix (SoS) [a.u.]:
                                       |    0.000572   -0.005242    0.015205 |
                                       |   -0.005242   -0.008797   -0.013383 |
                                       |    0.015205   -0.013383   -0.016656 |
  Two-photon absorption cross-section [a.u.]:                         0.029090
  Two-photon absorption matrix [a.u.]:
                                       |   -0.019141   -0.006635    0.033638 |
                                       |   -0.006635   -0.027313   -0.033581 |
                                       |    0.033638   -0.033581   -0.008103 |

  Dip. moment [a.u.]:                  [  -0.004487,    0.007350,   -0.025915]
  Total dipole [Debye]:                                               0.069411
  <r^2> [a.u.]:                        [ 176.110536,   35.682744,   11.895970]
  Total <r^2> [a.u.]:                                               223.689251

  V1^2 = 0.9714, V2^2 = 0.0286

  Important amplitudes:
      occ i     occ j     vir a      vir b          v   
    -----------------------------------------------------
     8 (A) A              9 (A) A                 0.6808
     6 (A) A             14 (A) A                -0.0623
     4 (A) A             10 (A) A                -0.0602
     7 (A) A             16 (A) A                 0.0567
     5 (A) A             13 (A) A                -0.0513
     6 (A) A             23 (A) A                -0.0485
     8 (A) A             20 (A) A                -0.0347
     6 (A) A             19 (A) A                 0.0307
     3 (A) A             12 (A) A                 0.0280
     5 (A) A             22 (A) A                 0.0214
     7 (A) A             11 (A) A                 0.0209
     4 (A) A             24 (A) A                -0.0187
     3 (A) A             26 (A) A                -0.0185
     8 (A) A   8 (A) B   17 (A) A   20 (A) B      0.0183
     8 (A) A             10 (A) A                 0.0174
     8 (A) A   8 (A) B    9 (A) A   28 (A) B      0.0167
     6 (A) A             26 (A) A                -0.0162
     7 (A) A             21 (A) A                 0.0148
     3 (A) A             14 (A) A                -0.0139
     6 (A) A             12 (A) A                -0.0132
     3 (A) A   4 (A) B    9 (A) A    9 (A) B      0.0129
     3 (A) A             19 (A) A                 0.0119
     6 (A) A              9 (A) A                -0.0114
     8 (A) A   8 (A) B   18 (A) A   19 (A) B     -0.0112
     7 (A) A             32 (A) A                 0.0095
     7 (A) A             36 (A) A                -0.0085
     3 (A) A             23 (A) A                -0.0081
     4 (A) A              9 (A) A                -0.0080
     6 (A) A             35 (A) A                -0.0071
     8 (A) A   8 (A) B   25 (A) A   29 (A) B      0.0067
     6 (A) A             40 (A) A                -0.0066
     3 (A) A   6 (A) B    9 (A) A   28 (A) B      0.0064
     6 (A) A   8 (A) A   19 (A) A   28 (A) A     -0.0060
     5 (A) A   7 (A) B    9 (A) A    9 (A) B     -0.0060
     5 (A) A   8 (A) B   11 (A) A   20 (A) B      0.0059
     7 (A) A   8 (A) B   13 (A) A   20 (A) B     -0.0059
     5 (A) A   8 (A) B   16 (A) A    9 (A) B     -0.0059
     5 (A) A   8 (A) B   11 (A) A    9 (A) B      0.0059
     7 (A) A   8 (A) B   22 (A) A   20 (A) B      0.0057
     6 (A) A   8 (A) A    9 (A) A   18 (A) A     -0.0056
    -----------------------------------------------------

  Density matrix analysis:
  ------------------------
  NOs
    Occupation of frontier NOs:
       0.9498   1.0214
    Number of electrons: 16.000000
    Number of unpaired electrons: n_u =  2.31363, n_u,nl =  2.03266
    NO participation ratio (PR_NO):  2.862689
  
  
  Mulliken Population Analysis
  Atom      Charge (e)              h+              e-           Del q
  --------------------------------------------------------------------
   1 H        0.057169        0.020490       -0.014185        0.006305
   2 C       -0.115323        0.491030       -0.504259       -0.013229
   3 H        0.057396        0.020375       -0.014242        0.006133
   4 C       -0.115355        0.490621       -0.504941       -0.014320
   5 H        0.057583        0.020321       -0.012897        0.007423
   6 H        0.058531        0.020507       -0.012819        0.007688
  --------------------------------------------------------------------
  Sum:       -0.000000        1.063344       -1.063344        0.000000
  
  Multipole moment analysis of the density matrix
    Molecular charge:                      -0.000000
    Number of electrons:                   16.000000
      Center of electronic charge [Ang]: [ -1.560428,  -0.065845,   0.017835]
    Total nuclear charge:                  16.000000
      Center of nuclear charge [Ang]:    [ -1.560576,  -0.065602,   0.016978]
    Dipole moment [D]:                     0.069411
      Cartesian components [D]:          [ -0.011404,   0.018682,  -0.065870]
    RMS size of the density [Ang]:         1.214649
      Cartesian components [Ang]:        [  0.804558,   0.787513,   0.455941]
  
  Exciton analysis of the difference density matrix
    <r_h> [Ang]:                  [ -1.560145,  -0.066774,   0.028326]
    <r_e> [Ang]:                  [ -1.558249,  -0.068661,   0.030694]
    |<r_e - r_h>| [Ang]:            0.003572
    Hole size [Ang]:                1.286332
      Cartesian components [Ang]: [  0.729208,   0.713539,   0.783433]
    Electron size [Ang]:            1.466726
      Cartesian components [Ang]: [  0.857548,   0.833761,   0.848962]

  Transition density matrix analysis:
  -----------------------------------
  
  CT numbers (Mulliken)
    omega =     0.9533
    <Phe> =    -0.1606
  
  Exciton analysis of the transition density matrix
    Trans. dipole moment [D]:             1.829724
      Cartesian components [D]:         [  1.322899,  -1.262924,   0.053408]
    <r_h> [Ang]:                        [ -1.560123,  -0.066450,   0.026434]
    <r_e> [Ang]:                        [ -1.558310,  -0.068822,   0.032358]
    |<r_e - r_h>| [Ang]:                  0.006634
    Hole size [Ang]:                      1.214483
      Cartesian components [Ang]:       [  0.650035,   0.636652,   0.804423]
    Electron size [Ang]:                  1.490011
      Cartesian components [Ang]:       [  0.868139,   0.843002,   0.869377]
    RMS electron-hole separation [Ang]:   1.940081
      Cartesian components [Ang]:       [  1.109690,   1.078234,   1.170433]
    Covariance(r_h, r_e) [Ang^2]:        -0.034385
    Correlation coefficient:             -0.019001
    Center-of-mass size [Ang]:            0.952146
      Cartesian components [Ang]:       [  0.529389,   0.517052,   0.599155]

  Decomposition into state-averaged NTOs
    H- 0 -> L+ 0:  0.6689 ( 89.5%)
    H- 2 -> L+ 5: -0.0835 (  1.4%)
                   omega =  95.3%
  ----------------------------------------------------------------------------


  Excited state 2 (singlet, A)                                     [converged]
  ----------------------------------------------------------------------------
  Term symbol:  3 (1) A                                     R^2 =  4.96455e-13

  Total energy:                                            -77.9872517269 a.u.
  Excitation energy:                                               9.036598 eV

  Osc. strength:                                                      0.000070
  Trans. dip. moment [a.u.]:           [  -0.010887,   -0.009081,   -0.010656]
  <i|r^2|0> [a.u.]:                    [   0.086357,   -0.002787,   -0.148694]
  Two-photon absorption cross-section (SoS) [a.u.]:                   4.790184
  Two-photon absorption matrix (SoS) [a.u.]:
                                       |    0.183463    0.063934   -0.512589 |
                                       |    0.063934   -0.081629   -0.551981 |
                                       |   -0.512589   -0.551981   -0.118529 |
  Two-photon absorption cross-section [a.u.]:                         1.154645
  Two-photon absorption matrix [a.u.]:
                                       |    0.350309    0.008909    0.071450 |
                                       |    0.008909   -0.378529    0.077431 |
                                       |    0.071450    0.077431    0.014274 |

  Dip. moment [a.u.]:                  [   0.006390,    0.016778,   -0.047318]
  Total dipole [Debye]:                                               0.128637
  <r^2> [a.u.]:                        [ 174.609325,   33.928920,   13.213020]
  Total <r^2> [a.u.]:                                               221.751266

  V1^2 = 0.9542, V2^2 = 0.0458

  Important amplitudes:
      occ i     occ j     vir a      vir b          v   
    -----------------------------------------------------
     7 (A) A              9 (A) A                -0.6695
     8 (A) A             11 (A) A                -0.1445
     7 (A) A             20 (A) A                 0.0757
     5 (A) A   8 (A) B    9 (A) A    9 (A) B      0.0316
     8 (A) A             16 (A) A                 0.0269
     8 (A) A             10 (A) A                 0.0180
     8 (A) A             21 (A) A                -0.0171
     7 (A) A             10 (A) A                 0.0167
     5 (A) A             28 (A) A                -0.0150
     4 (A) A   7 (A) B    9 (A) A   19 (A) B     -0.0135
     5 (A) A   7 (A) B    9 (A) A   16 (A) B     -0.0134
     7 (A) A   8 (A) B   20 (A) A   17 (A) B     -0.0105
     7 (A) A   8 (A) A    9 (A) A   28 (A) A      0.0097
     5 (A) A   8 (A) B    9 (A) A   20 (A) B     -0.0095
     4 (A) A   6 (A) B    9 (A) A   16 (A) B     -0.0091
     5 (A) A   6 (A) A    9 (A) A   23 (A) A      0.0091
     5 (A) A   6 (A) A    9 (A) A   14 (A) A      0.0089
     5 (A) A   6 (A) B    9 (A) A   19 (A) B     -0.0086
     8 (A) A   7 (A) B    9 (A) A   28 (A) B     -0.0085
     4 (A) A   5 (A) A    9 (A) A   10 (A) A     -0.0085
     6 (A) A   7 (A) B    9 (A) A   18 (A) B      0.0083
     5 (A) A   6 (A) B    9 (A) A   23 (A) B      0.0080
     3 (A) A   7 (A) B    9 (A) A   18 (A) B     -0.0080
     5 (A) A   7 (A) A    9 (A) A   16 (A) A     -0.0079
     7 (A) A   8 (A) B   17 (A) A   20 (A) B     -0.0074
     4 (A) A   8 (A) B    9 (A) A   25 (A) B     -0.0074
     4 (A) A   7 (A) B   19 (A) A    9 (A) B     -0.0074
     5 (A) A   5 (A) B    9 (A) A   13 (A) B      0.0072
     7 (A) A   8 (A) B   19 (A) A   18 (A) B      0.0071
     7 (A) A             12 (A) A                -0.0070
     5 (A) A   8 (A) A    9 (A) A   20 (A) A     -0.0069
     4 (A) A   5 (A) B    9 (A) A   18 (A) B      0.0068
     7 (A) A   7 (A) B   20 (A) A   22 (A) B     -0.0065
     7 (A) A   8 (A) B   17 (A) A    9 (A) B      0.0065
     5 (A) A   6 (A) B    9 (A) A   14 (A) B      0.0063
     4 (A) A   5 (A) B   10 (A) A    9 (A) B      0.0062
     4 (A) A   7 (A) A    9 (A) A   19 (A) A     -0.0061
     5 (A) A   7 (A) B   11 (A) A   20 (A) B     -0.0060
     4 (A) A   7 (A) B    9 (A) A   14 (A) B     -0.0060
     8 (A) A             12 (A) A                -0.0058
    -----------------------------------------------------

  Density matrix analysis:
  ------------------------
  NOs
    Occupation of frontier NOs:
       0.9597   1.0521
    Number of electrons: 16.000000
    Number of unpaired electrons: n_u =  2.35552, n_u,nl =  2.06172
    NO participation ratio (PR_NO):  3.018433
  
  
  Mulliken Population Analysis
  Atom      Charge (e)              h+              e-           Del q
  --------------------------------------------------------------------
   1 H        0.148736        0.118920       -0.021047        0.097873
   2 C       -0.303041        0.271980       -0.472927       -0.200947
   3 H        0.154432        0.130977       -0.027808        0.103169
   4 C       -0.303829        0.272361       -0.475155       -0.202794
   5 H        0.158012        0.129236       -0.021383        0.107853
   6 H        0.145690        0.121436       -0.026588        0.094847
  --------------------------------------------------------------------
  Sum:       -0.000000        1.044909       -1.044909        0.000000
  
  Multipole moment analysis of the density matrix
    Molecular charge:                      -0.000000
    Number of electrons:                   16.000000
      Center of electronic charge [Ang]: [ -1.560788,  -0.066157,   0.018543]
    Total nuclear charge:                  16.000000
      Center of nuclear charge [Ang]:    [ -1.560576,  -0.065602,   0.016978]
    Dipole moment [D]:                     0.128637
      Cartesian components [D]:          [  0.016241,   0.042644,  -0.120271]
    RMS size of the density [Ang]:         1.200110
      Cartesian components [Ang]:        [  0.787348,   0.767750,   0.480528]
  
  Exciton analysis of the difference density matrix
    <r_h> [Ang]:                  [ -1.565017,  -0.067792,   0.014088]
    <r_e> [Ang]:                  [ -1.568596,  -0.074486,   0.027337]
    |<r_e - r_h>| [Ang]:            0.015269
    Hole size [Ang]:                1.486445
      Cartesian components [Ang]: [  0.991731,   1.009997,   0.453758]
    Electron size [Ang]:            1.475540
      Cartesian components [Ang]: [  0.878192,   0.859471,   0.816889]

  Transition density matrix analysis:
  -----------------------------------
  
  CT numbers (Mulliken)
    omega =     0.9217
    <Phe> =    -0.0124
  
  Exciton analysis of the transition density matrix
    Trans. dipole moment [D]:             0.022538
      Cartesian components [D]:         [ -0.013835,  -0.011540,  -0.013542]
    <r_h> [Ang]:                        [ -1.565252,  -0.067450,   0.011050]
    <r_e> [Ang]:                        [ -1.568886,  -0.075217,   0.030536]
    |<r_e - r_h>| [Ang]:                  0.021290
    Hole size [Ang]:                      1.515485
      Cartesian components [Ang]:       [  1.013802,   1.035581,   0.443251]
    Electron size [Ang]:                  1.472515
      Cartesian components [Ang]:       [  0.868619,   0.848536,   0.832938]
    RMS electron-hole separation [Ang]:   2.093347
      Cartesian components [Ang]:       [  1.319165,   1.323849,   0.943042]
    Covariance(r_h, r_e) [Ang^2]:         0.041673
    Correlation coefficient:              0.018674
    Center-of-mass size [Ang]:            1.066342
      Cartesian components [Ang]:       [  0.675353,   0.676825,   0.472114]

  Decomposition into state-averaged NTOs
    H- 1 -> L+ 0: -0.6621 ( 87.7%)
    H- 0 -> L+ 2: -0.1447 (  4.2%)
                   omega =  92.2%
  ----------------------------------------------------------------------------


  Excited state 3 (singlet, A)                                     [converged]
  ----------------------------------------------------------------------------
  Term symbol:  4 (1) A                                     R^2 =  2.12774e-13

  Total energy:                                            -77.9822567825 a.u.
  Excitation energy:                                               9.172518 eV

  Osc. strength:                                                      0.027240
  Trans. dip. moment [a.u.]:           [   0.040402,   -0.073982,    0.337805]
  <i|r^2|0> [a.u.]:                    [   0.225393,   -0.034060,   -0.017286]
  Two-photon absorption cross-section (SoS) [a.u.]:                   0.299480
  Two-photon absorption matrix (SoS) [a.u.]:
                                       |    0.012650   -0.000785    0.014484 |
                                       |   -0.000785    0.036629    0.011768 |
                                       |    0.014484    0.011768    0.202451 |
  Two-photon absorption cross-section [a.u.]:                         0.338413
  Two-photon absorption matrix [a.u.]:
                                       |    0.086328   -0.029551    0.024910 |
                                       |   -0.029551    0.095326    0.018195 |
                                       |    0.024910    0.018195    0.128154 |

  Dip. moment [a.u.]:                  [   0.026851,    0.031027,    0.031660]
  Total dipole [Debye]:                                               0.131730
  <r^2> [a.u.]:                        [ 180.973566,   40.612444,   11.066247]
  Total <r^2> [a.u.]:                                               232.652257

  V1^2 = 0.9588, V2^2 = 0.0412

  Important amplitudes:
      occ i     occ j     vir a      vir b          v   
    -----------------------------------------------------
     8 (A) A             10 (A) A                -0.6886
     8 (A) A             24 (A) A                -0.0505
     8 (A) A             18 (A) A                 0.0313
     4 (A) A              9 (A) A                 0.0232
     8 (A) A   8 (A) B    9 (A) A   12 (A) B     -0.0218
     7 (A) A              9 (A) A                -0.0187
     8 (A) A   8 (A) B   10 (A) A   17 (A) B     -0.0172
     8 (A) A             15 (A) A                -0.0169
     8 (A) A              9 (A) A                 0.0168
     5 (A) A   8 (A) B   11 (A) A   10 (A) B     -0.0165
     7 (A) A   8 (A) B   13 (A) A   10 (A) B      0.0141
     4 (A) A   8 (A) B   12 (A) A   10 (A) B      0.0110
     6 (A) A   8 (A) A   10 (A) A   15 (A) A      0.0110
     7 (A) A   8 (A) B   22 (A) A   10 (A) B     -0.0108
     6 (A) A   8 (A) B   15 (A) A   10 (A) B     -0.0107
     4 (A) A   8 (A) A   10 (A) A   12 (A) A     -0.0106
     7 (A) A   8 (A) A   10 (A) A   22 (A) A      0.0098
     7 (A) A   8 (A) A   10 (A) A   13 (A) A     -0.0097
     5 (A) A   8 (A) B   21 (A) A   10 (A) B     -0.0094
     5 (A) A   8 (A) A   10 (A) A   11 (A) A      0.0094
     6 (A) A   8 (A) A   10 (A) A   18 (A) A      0.0087
     6 (A) A   8 (A) B   10 (A) A   10 (A) B      0.0087
     7 (A) A   8 (A) A   12 (A) A   16 (A) A     -0.0081
     5 (A) A   8 (A) A   10 (A) A   21 (A) A      0.0079
     3 (A) A   4 (A) B   10 (A) A    9 (A) B     -0.0079
     4 (A) A   8 (A) B   19 (A) A   10 (A) B      0.0075
     8 (A) A   8 (A) B    9 (A) A   23 (A) B     -0.0075
     8 (A) A   8 (A) B   10 (A) A   28 (A) B     -0.0072
     5 (A) A   8 (A) B   10 (A) A   11 (A) B     -0.0071
     3 (A) A   8 (A) A   10 (A) A   24 (A) A      0.0071
     3 (A) A   8 (A) B   10 (A) A   10 (A) B     -0.0071
     7 (A) A   8 (A) B   16 (A) A   12 (A) B      0.0070
     3 (A) A   8 (A) B   10 (A) A   18 (A) B      0.0068
     8 (A) A   8 (A) B    9 (A) A   19 (A) B     -0.0067
     6 (A) A   8 (A) B   18 (A) A   10 (A) B     -0.0066
     3 (A) A   6 (A) B   10 (A) A   28 (A) B     -0.0062
     7 (A) A   8 (A) B   12 (A) A   11 (A) B     -0.0057
     5 (A) A   8 (A) A   10 (A) A   16 (A) A     -0.0056
     6 (A) A             28 (A) A                 0.0056
     3 (A) A   8 (A) A   10 (A) A   18 (A) A      0.0055
    -----------------------------------------------------

  Density matrix analysis:
  ------------------------
  NOs
    Occupation of frontier NOs:
       0.9820   0.9845
    Number of electrons: 16.000000
    Number of unpaired electrons: n_u =  2.28706, n_u,nl =  2.02478
    NO participation ratio (PR_NO):  2.695968
  
  
  Mulliken Population Analysis
  Atom      Charge (e)              h+              e-           Del q
  --------------------------------------------------------------------
   1 H       -0.157009        0.054077       -0.261949       -0.207872
   2 C        0.324413        0.537526       -0.111019        0.426507
   3 H       -0.167697        0.053694       -0.272653       -0.218960
   4 C        0.325552        0.536910       -0.110323        0.426587
   5 H       -0.159021        0.054071       -0.263252       -0.209180
   6 H       -0.166240        0.053543       -0.270626       -0.217082
  --------------------------------------------------------------------
  Sum:       -0.000000        1.289822       -1.289822       -0.000000
  
  Multipole moment analysis of the density matrix
    Molecular charge:                      -0.000000
    Number of electrons:                   16.000000
      Center of electronic charge [Ang]: [ -1.561464,  -0.066629,   0.015931]
    Total nuclear charge:                  16.000000
      Center of nuclear charge [Ang]:    [ -1.560576,  -0.065602,   0.016978]
    Dipole moment [D]:                     0.131730
      Cartesian components [D]:          [  0.068248,   0.078864,   0.080471]
    RMS size of the density [Ang]:         1.276309
      Cartesian components [Ang]:        [  0.853926,   0.840447,   0.439801]
  
  Exciton analysis of the difference density matrix
    <r_h> [Ang]:                  [ -1.560276,  -0.066677,   0.023541]
    <r_e> [Ang]:                  [ -1.571571,  -0.077947,   0.001871]
    |<r_e - r_h>| [Ang]:            0.026909
    Hole size [Ang]:                1.410398
      Cartesian components [Ang]: [  0.833684,   0.820177,   0.788355]
    Electron size [Ang]:            2.074508
      Cartesian components [Ang]: [  1.370572,   1.376552,   0.728161]

  Transition density matrix analysis:
  -----------------------------------
  
  CT numbers (Mulliken)
    omega =     0.9260
    <Phe> =    -0.0113
  
  Exciton analysis of the transition density matrix
    Trans. dipole moment [D]:             0.442472
      Cartesian components [D]:         [  0.051346,  -0.094022,   0.429307]
    <r_h> [Ang]:                        [ -1.558871,  -0.066057,   0.029466]
    <r_e> [Ang]:                        [ -1.575163,  -0.081994,  -0.003909]
    |<r_e - r_h>| [Ang]:                  0.040414
    Hole size [Ang]:                      1.213610
      Cartesian components [Ang]:       [  0.636549,   0.624727,   0.823026]
    Electron size [Ang]:                  2.293028
      Cartesian components [Ang]:       [  1.513513,   1.523053,   0.804714]
    RMS electron-hole separation [Ang]:   2.584851
      Cartesian components [Ang]:       [  1.634579,   1.639299,   1.149915]
    Covariance(r_h, r_e) [Ang^2]:         0.025502
    Correlation coefficient:              0.009164
    Center-of-mass size [Ang]:            1.302097
      Cartesian components [Ang]:       [  0.824659,   0.826574,   0.576342]

  Decomposition into state-averaged NTOs
    H- 0 -> L+ 1:  0.6786 ( 92.1%)
                   omega =  92.6%
  ----------------------------------------------------------------------------


  Excited state 4 (singlet, A)                                     [converged]
  ----------------------------------------------------------------------------
  Term symbol:  5 (1) A                                     R^2 =  5.26298e-13

  Total energy:                                            -77.9579901253 a.u.
  Excitation energy:                                               9.832847 eV

  Osc. strength:                                                      0.000015
  Trans. dip. moment [a.u.]:           [  -0.002226,    0.000140,   -0.007468]
  <i|r^2|0> [a.u.]:                    [  -0.047885,   -0.002945,    0.037832]
  Two-photon absorption cross-section (SoS) [a.u.]:                 151.848997
  Two-photon absorption matrix (SoS) [a.u.]:
                                       |   -0.806378   -0.347448    2.984922 |
                                       |   -0.347448    0.148871    3.066750 |
                                       |    2.984922    3.066750    0.647238 |
  Two-photon absorption cross-section [a.u.]:                        95.718563
  Two-photon absorption matrix [a.u.]:
                                       |   -0.911790   -0.286179    2.309709 |
                                       |   -0.286179    0.383562    2.435033 |
                                       |    2.309709    2.435033    0.508814 |

  Dip. moment [a.u.]:                  [  -0.050820,   -0.044290,    0.026321]
  Total dipole [Debye]:                                               0.183939
  <r^2> [a.u.]:                        [ 180.952868,   40.600248,   10.786839]
  Total <r^2> [a.u.]:                                               232.339954

  V1^2 = 0.9635, V2^2 = 0.0365

  Important amplitudes:
      occ i     occ j     vir a      vir b          v   
    -----------------------------------------------------
     8 (A) A             11 (A) A                 0.6704
     7 (A) A              9 (A) A                -0.1464
     8 (A) A             21 (A) A                 0.0782
     8 (A) A             16 (A) A                -0.0647
     8 (A) A   8 (A) B    9 (A) A   13 (A) B     -0.0167
     5 (A) A   8 (A) B   11 (A) A   11 (A) B      0.0156
     8 (A) A   8 (A) B   11 (A) A   17 (A) B      0.0140
     7 (A) A             20 (A) A                 0.0132
     7 (A) A   8 (A) B   13 (A) A   11 (A) B     -0.0128
     8 (A) A             12 (A) A                 0.0114
     5 (A) A   8 (A) A   11 (A) A   21 (A) A     -0.0110
     4 (A) A   8 (A) B   12 (A) A   11 (A) B     -0.0110
     8 (A) A   8 (A) B    9 (A) A   22 (A) B      0.0107
     6 (A) A              9 (A) A                 0.0101
     7 (A) A   8 (A) A   11 (A) A   22 (A) A     -0.0096
     6 (A) A   8 (A) B   15 (A) A   11 (A) B      0.0090
     6 (A) A   8 (A) B   10 (A) A   11 (A) B     -0.0090
     7 (A) A   8 (A) B   22 (A) A   11 (A) B      0.0089
     3 (A) A   4 (A) B   11 (A) A    9 (A) B      0.0083
     3 (A) A   8 (A) B   11 (A) A   18 (A) B     -0.0081
     6 (A) A   8 (A) A   11 (A) A   15 (A) A     -0.0080
     7 (A) A   8 (A) A   13 (A) A   16 (A) A     -0.0078
     7 (A) A   8 (A) A   11 (A) A   13 (A) A      0.0077
     5 (A) A   8 (A) B   21 (A) A   11 (A) B      0.0071
     4 (A) A   8 (A) B   19 (A) A   11 (A) B     -0.0070
     5 (A) A   8 (A) B    9 (A) A    9 (A) B      0.0066
     4 (A) A   8 (A) A   11 (A) A   12 (A) A      0.0063
     6 (A) A   8 (A) A   11 (A) A   18 (A) A     -0.0062
     3 (A) A   6 (A) B   11 (A) A   28 (A) B      0.0060
     6 (A) A   8 (A) B   18 (A) A   11 (A) B      0.0060
     7 (A) A   8 (A) B   16 (A) A   13 (A) B      0.0057
     8 (A) A             10 (A) A                 0.0056
     3 (A) A   8 (A) A   11 (A) A   18 (A) A     -0.0056
     5 (A) A   8 (A) B   10 (A) A   10 (A) B      0.0056
     3 (A) A   8 (A) B   11 (A) A   30 (A) B     -0.0055
     6 (A) A   8 (A) B   11 (A) A   10 (A) B     -0.0054
     7 (A) A   8 (A) B   12 (A) A   10 (A) B      0.0054
     8 (A) A   8 (A) B   20 (A) A   22 (A) B     -0.0053
     3 (A) A   8 (A) A   11 (A) A   24 (A) A     -0.0053
     3 (A) A   5 (A) B   11 (A) A   25 (A) B     -0.0053
    -----------------------------------------------------

  Density matrix analysis:
  ------------------------
  NOs
    Occupation of frontier NOs:
       0.9429   1.0255
    Number of electrons: 16.000000
    Number of unpaired electrons: n_u =  2.31925, n_u,nl =  2.04766
    NO participation ratio (PR_NO):  2.902259
  
  
  Mulliken Population Analysis
  Atom      Charge (e)              h+              e-           Del q
  --------------------------------------------------------------------
   1 H       -0.152316        0.045386       -0.248566       -0.203180
   2 C        0.274524        0.498493       -0.121875        0.376618
   3 H       -0.123433        0.046888       -0.221583       -0.174695
   4 C        0.275115        0.497858       -0.121708        0.376150
   5 H       -0.140509        0.047026       -0.237694       -0.190668
   6 H       -0.133382        0.045260       -0.229484       -0.184224
  --------------------------------------------------------------------
  Sum:       -0.000000        1.180910       -1.180910        0.000000
  
  Multipole moment analysis of the density matrix
    Molecular charge:                      -0.000000
    Number of electrons:                   16.000000
      Center of electronic charge [Ang]: [ -1.558895,  -0.064137,   0.016108]
    Total nuclear charge:                  16.000000
      Center of nuclear charge [Ang]:    [ -1.560576,  -0.065602,   0.016978]
    Dipole moment [D]:                     0.183939
      Cartesian components [D]:          [ -0.129171,  -0.112574,   0.066901]
    RMS size of the density [Ang]:         1.277433
      Cartesian components [Ang]:        [  0.858395,   0.840514,   0.434200]
  
  Exciton analysis of the difference density matrix
    <r_h> [Ang]:                  [ -1.558873,  -0.065222,   0.024690]
    <r_e> [Ang]:                  [ -1.536404,  -0.043780,   0.003414]
    |<r_e - r_h>| [Ang]:            0.037646
    Hole size [Ang]:                1.394419
      Cartesian components [Ang]: [  0.816533,   0.807410,   0.791054]
    Electron size [Ang]:            2.123782
      Cartesian components [Ang]: [  1.436169,   1.409987,   0.678087]

  Transition density matrix analysis:
  -----------------------------------
  
  CT numbers (Mulliken)
    omega =     0.9297
    <Phe> =    -0.0134
  
  Exciton analysis of the transition density matrix
    Trans. dipole moment [D]:             0.009905
      Cartesian components [D]:         [ -0.002828,   0.000177,  -0.009491]
    <r_h> [Ang]:                        [ -1.560177,  -0.066857,   0.028573]
    <r_e> [Ang]:                        [ -1.531863,  -0.039559,   0.000502]
    |<r_e - r_h>| [Ang]:                  0.048321
    Hole size [Ang]:                      1.227469
      Cartesian components [Ang]:       [  0.655507,   0.650599,   0.808525]
    Electron size [Ang]:                  2.262945
      Cartesian components [Ang]:       [  1.530616,   1.502939,   0.720631]
    RMS electron-hole separation [Ang]:   2.564176
      Cartesian components [Ang]:       [  1.656787,   1.630112,   1.082954]
    Covariance(r_h, r_e) [Ang^2]:         0.027468
    Correlation coefficient:              0.009889
    Center-of-mass size [Ang]:            1.292530
      Cartesian components [Ang]:       [  0.836781,   0.822753,   0.541766]

  Decomposition into state-averaged NTOs
    H- 0 -> L+ 2:  0.6657 ( 88.6%)
    H- 1 -> L+ 0: -0.1444 (  4.2%)
                   omega =  93.0%
  ----------------------------------------------------------------------------


  Excited state 5 (singlet, A)                                     [converged]
  ----------------------------------------------------------------------------
  Term symbol:  6 (1) A                                     R^2 =  2.65777e-13

  Total energy:                                            -77.9443152307 a.u.
  Excitation energy:                                              10.204960 eV

  Osc. strength:                                                      0.000002
  Trans. dip. moment [a.u.]:           [  -0.001857,    0.001264,    0.001077]
  <i|r^2|0> [a.u.]:                    [   0.104194,   -0.081931,   -0.006643]
  Two-photon absorption cross-section (SoS) [a.u.]:                 172.204961
  Two-photon absorption matrix (SoS) [a.u.]:
                                       |    0.730109   -0.207413   -3.270861 |
                                       |   -0.207413    0.032946    3.222186 |
                                       |   -3.270861    3.222186   -0.030844 |
  Two-photon absorption cross-section [a.u.]:                        77.206504
[...]
    16    9.789902014502e-05
    17   -3.233373869881e-03
    18   -5.375625984196e-04
    19   -3.301768298727e-03
    20    1.074902145593e-02
    21    9.356900976759e-01
    22   -2.648396402378e-04
    23    1.386833161287e-02
    24    1.626524479768e-03
    25    7.029481828468e-02
    26   -5.256263905436e-02
    27   -1.397374056188e+00
    28    9.915776641641e-02
    29   -9.130931589742e-02
    30   -1.038401117273e-02
    31    3.917126442775e-01
    32   -3.582217151337e-01
    33   -4.223065710237e-02
    34    1.571776700229e-02
    35   -7.038050862433e-04
    36   -2.515454384910e-03
    37   -1.282735763895e-04
    38   -3.133460894954e-03
    39    9.181708233932e-03
    40    9.258681330139e-01
    41    2.546081580986e-04
    42   -1.382200307754e-02
    43   -1.180279450718e-03
    44    1.041624218818e-02
    45    9.480120820787e-01
    46    1.424836430086e-02
    47    4.408474410526e-04
    48    3.217088651128e-04
Sym=X
Ene= 0.232940
Spin=Alpha
Occup=0
     1    2.580764176121e-02
     2    1.234678535073e+00
     3   -1.437440004141e-02
     4   -3.912465911887e-03
     5   -5.787917881044e-04
     6    3.061120744879e-03
     7   -3.644607313319e-03
     8   -5.126129819739e-02
     9   -1.547778162214e-01
    10   -1.588558606134e-01
    11   -1.612652233130e-02
    12   -5.586267793847e-01
    13   -5.526309206968e-01
    14   -5.688159040228e-02
    15    8.270606054389e-04
    16    1.536954850543e-03
    17    1.519202815393e-03
    18   -1.661378401952e-04
    19   -5.537954412368e-04
    20   -2.576415781267e-02
    21   -1.154272576687e+00
    22   -2.433442408447e-03
    23   -1.349165257626e-02
    24   -1.170173742139e-03
    25   -1.933979544635e-03
    26    2.845655243776e-03
    27    1.915558944528e-02
    28   -1.527740157886e-01
    29   -1.602778017359e-01
    30   -1.697440793205e-02
    31   -5.473059754570e-01
    32   -5.593623308145e-01
    33   -6.074869577590e-02
    34   -3.152112661232e-04
    35   -9.192073303138e-04
    36   -1.068897086316e-03
    37    4.036646392409e-04
    38    2.968004011370e-04
    39    2.528447218851e-02
    40    1.172211313586e+00
    41   -2.457521843462e-03
    42   -1.390001414739e-02
    43   -1.152821897929e-03
    44   -2.627521178046e-02
    45   -1.212333680273e+00
    46   -1.401722689845e-02
    47   -3.753896652496e-03
    48   -6.842916373368e-04
Sym=X
Ene= 0.239362
Spin=Alpha
Occup=0
     1   -1.584246464648e-02
     2   -1.060499615137e+00
     3    1.670332022695e-02
     4    9.105539469087e-03
     5    2.610358542010e-04
     6   -8.647437296559e-02
     7    7.945060714201e-02
     8    1.592864879003e+00
     9    5.420230368444e-02
    10   -5.947835520731e-02
    11   -1.542588962433e-02
    12    2.161125317901e-01
    13   -2.288636355104e-01
    14   -5.785023114123e-02
    15   -2.242424079392e-02
    16    1.930861885037e-03
    17    3.659908414521e-03
    18   -2.615712246790e-04
    19    1.284674813715e-02
    20   -1.655333782865e-02
    21   -1.114789535035e+00
    22   -8.481661390423e-03
    23   -1.745956091506e-02
    24   -2.482027879631e-03
    25    8.639178236012e-02
    26   -7.908673090765e-02
    27   -1.597136645022e+00
    28    5.412467825712e-02
    29   -6.056870147778e-02
    30    1.971347046870e-03
    31    2.110137249965e-01
    32   -2.387610148965e-01
    33    1.457657184747e-02
    34    2.248450660511e-02
    35   -3.560764401028e-03
    36   -2.125794510404e-03
    37    7.751771228009e-04
    38   -1.279562680275e-02
    39    1.707149878673e-02
    40    1.124496670680e+00
    41   -8.586886527525e-03
    42   -1.782032483170e-02
    43   -1.363381810282e-03
    44    1.570307679691e-02
    45    1.053446163942e+00
    46    1.645450903261e-02
    47    9.264670155930e-03
    48    1.453255414815e-03
Sym=X
Ene= 0.303255
Spin=Alpha
Occup=0
     1   -2.099270846411e-02
     2    1.692972669572e+00
     3   -2.291629397608e-02
     4    1.709068718834e-04
     5   -9.515788183368e-04
     6   -2.581616198937e-04
     7    3.010804793723e-04
     8   -6.395448713085e-03
     9   -1.342760500718e-01
    10   -1.398390100288e-01
    11   -1.458171534172e-02
    12   -1.143331155798e+00
    13   -1.189797576708e+00
    14   -1.243160678390e-01
    15    4.241134528163e-04
    16    6.337650356369e-04
    17    4.149402787489e-03
    18   -3.240716943345e-02
    19   -2.038814693758e-03
    20    1.880337625408e-02
    21   -1.680793268122e+00
    22    1.484007776486e-03
    23   -2.285521780310e-02
    24   -1.417029576493e-03
    25    1.389198497736e-04
    26    3.072244702532e-04
    27   -1.322529438271e-02
    28    1.348827545518e-01
    29    1.400946237245e-01
    30    1.477603379998e-02
    31    1.136459808138e+00
    32    1.196375283309e+00
    33    1.246885395905e-01
    34   -3.200031674483e-05
    35   -2.326161540422e-03
    36    1.103610492240e-03
    37   -3.249102021487e-02
    38   -1.743947985824e-03
    39    1.961314886692e-02
    40   -1.687933555032e+00
    41   -1.638234318329e-03
    42    2.280285629823e-02
    43    5.255436377537e-04
    44   -2.060924121813e-02
    45    1.697961670722e+00
    46    2.298761042433e-02
    47   -3.469220494375e-04
    48    1.835232806348e-03
Sym=X
Ene= 0.461777
Spin=Alpha
Occup=0
     1   -1.123435214643e-01
     2   -7.216339858936e-01
     3   -1.541772955098e-02
     4   -1.045337893635e-02
     5   -1.820304823194e-03
     6    6.096400558483e-02
     7    1.740890533877e-02
     8   -3.588930498191e+00
     9    1.039263353392e-01
    10   -9.861207346091e-02
    11   -1.707151118524e-02
    12    2.424928281951e+00
    13   -2.293599632015e+00
    14    4.298781269932e-02
    15    5.331527156561e-02
    16   -4.403638629458e-03
    17   -3.663370774536e-03
    18   -4.157124324618e-04
    19    1.826186353876e-02
    20   -1.228473737735e-01
    21   -6.891627171664e-01
    22    8.336385408340e-03
    23    1.639343481677e-02
    24    8.618400022392e-04
    25   -6.095283842507e-02
    26   -1.579081923270e-02
    27    3.583619541282e+00
    28    1.056363281806e-01
    29   -1.002475838980e-01
    30   -6.455203106212e-03
    31    2.416781338127e+00
    32   -2.296624764684e+00
    33    9.019104491298e-02
    34   -5.280102509370e-02
    35    3.288263197929e-03
    36    4.510953250979e-03
    37    4.954140170933e-04
    38   -1.899759858030e-02
    39    1.170396181611e-01
    40    7.056239787702e-01
    41    8.385679403428e-03
    42    1.633770851403e-02
    43    1.299021832486e-03
    44    1.094485286501e-01
    45    7.188002252003e-01
    46   -1.530847940799e-02
    47   -1.017057029007e-02
    48   -1.380540293053e-03
Sym=X
Ene= 0.577573
Spin=Alpha
Occup=0
     1    2.450134818636e-01
     2    4.697027273625e-02
     3   -1.846468221464e-02
     4    2.532051720501e-02
     5    1.364014366304e-03
     6   -4.620658794016e-03
     7   -1.575521788062e-01
     8   -4.614626780037e-01
     9    2.976150229238e-01
    10   -2.892130049845e-01
    11    8.198162971376e-03
    12   -7.215064570365e-01
    13    6.955984345527e-01
    14    1.699532596266e-02
    15   -5.678946692463e-03
    16    3.581597678947e-03
    17    4.096686348774e-03
    18   -5.255786922298e-03
    19    6.028849363710e-02
    20    2.558590799301e-01
    21    2.224806473388e-02
    22   -2.665572330789e-02
    23    1.652258616457e-02
    24    4.021479047790e-04
    25   -5.561316973742e-03
    26   -1.583922270334e-01
    27   -4.107144861481e-01
    28   -2.968060445128e-01
    29    2.867729170791e-01
    30   -7.456530672414e-03
    31    7.600361194667e-01
    32   -7.337182088722e-01
    33   -4.749571254160e-03
    34   -5.674436639037e-03
    35    3.598499999206e-03
    36    3.952581251979e-03
    37   -4.866428548633e-03
    38    6.014502763519e-02
    39    2.525264153479e-01
    40    4.639712553750e-02
    41    2.721243332450e-02
    42   -1.682551793776e-02
    43    5.870636642113e-04
    44    2.469543818635e-01
    45    5.900359132327e-02
    46    1.868312884047e-02
    47   -2.576174054001e-02
    48   -3.718834036589e-04
Sym=X
Ene= 0.615025
Spin=Alpha
Occup=0
     1   -5.239600889922e-01
     2    1.947954926404e-01
     3   -6.154454248499e-02
     4    3.709566224259e-02
     5    7.891691337061e-04
     6   -8.428691941936e-04
     7   -1.332895482717e-03
     8   -2.547531845930e-02
     9   -4.176608616080e-02
    10   -3.776896265234e-02
    11   -4.971999086422e-03
    12    3.202256745817e-01
    13    2.645304044245e-01
    14    3.099302866126e-02
    15    3.289866560063e-03
    16   -1.371091333652e-03
    17    1.467496334655e-02
    18   -1.481394768164e-01
    19   -6.351813337669e-03
    20    5.084590083152e-01
    21   -2.156210319310e-01
    22    4.198893094309e-02
    23   -5.820252237682e-02
    24   -3.096464487435e-03
    25    6.654156128432e-04
    26   -1.282633181340e-03
    27    4.108251822145e-02
    28   -4.041047871797e-02
    29   -3.912304797864e-02
    30   -4.674137033850e-03
    31    3.159791976385e-01
    32    2.757883879392e-01
    33    3.364446801052e-02
    34   -2.196578864399e-03
    35    9.276081282783e-03
    36   -6.468217256014e-03
    37    1.488262047524e-01
    38    6.092092704476e-03
    39   -5.101982530480e-01
    40    2.091289198373e-01
    41    4.120160658982e-02
    42   -5.825734449859e-02
    43   -3.823690447998e-04
    44    5.245586052952e-01
    45   -2.008267993718e-01
    46   -6.174744583842e-02
    47    3.735360898672e-02
    48   -1.789107621134e-03
Sym=X
Ene= 0.689387
Spin=Alpha
Occup=0
     1    5.348760932349e-03
     2    3.855720956438e-02
     3   -5.191934976110e-03
     4    2.051121665287e-03
     5   -2.141537275894e-02
     6    2.567010017639e-04
     7   -2.559762720444e-02
     8    3.852099382488e-02
     9    3.742936177298e-02
    10    3.404680350482e-02
    11   -6.691177438390e-01
    12   -8.926871192807e-02
    13    2.088668671646e-02
    14    6.122644866161e-01
    15    9.481413193731e-03
    16    8.203041302696e-02
    17   -7.869026536724e-02
    18   -8.879409299434e-03
    19    3.964738975299e-03
    20    4.969724186276e-03
    21    3.761154850085e-02
    22   -2.212755848566e-04
    23    7.245024861455e-03
    24   -1.984753940635e-02
    25   -1.644555698183e-03
    26   -7.072377874161e-03
    27   -1.948871203492e-02
    28    3.253834242791e-02
    29    3.941384569010e-02
    30   -6.703729412631e-01
    31   -8.500105970251e-02
    32    1.576750194986e-02
    33    6.126391796596e-01
    34    7.191965931123e-04
    35   -8.316118928355e-02
    36    7.759029822491e-02
    37    8.811167082790e-03
    38   -7.802461479981e-03
    39   -2.636815525789e-02
    40   -1.913443884618e-02
    41   -1.937364163397e-03
    42   -9.712329317235e-04
    43   -2.135177255488e-02
    44   -2.709764668978e-02
    45   -1.880558200450e-02
    46    3.185747849905e-03
    47    4.300279210510e-03
    48   -2.077913008910e-02
Sym=X
Ene= 0.709634
Spin=Alpha
Occup=0
     1   -4.726787706744e-01
     2    1.498019381800e-01
     3   -8.033733834249e-02
     4   -4.416669660087e-02
     5   -8.027132861717e-03
     6   -4.715996984331e-02
     7   -3.180633570628e-01
     8    4.979342956709e-01
     9    2.024108097928e-01
    10   -1.959682059458e-01
    11    2.057183664667e-02
    12   -8.656912151387e-02
    13    8.324240189346e-02
    14   -6.351373942674e-02
    15    1.926794302961e-01
    16   -2.283863283972e-02
    17   -2.154031884740e-02
    18    3.150621802014e-03
    19   -7.798487750093e-02
    20   -4.769373802802e-01
    21    1.524354867145e-01
    22    4.165593990599e-02
    23    8.089027685367e-02
    24    5.146218980394e-03
    25   -4.735487944232e-02
    26   -3.192323363296e-01
    27    4.697899324092e-01
    28   -2.046574863695e-01
    29    1.886354272633e-01
    30    1.538513030615e-02
    31    7.194728756891e-02
    32   -5.194429462281e-02
    33    1.936519766505e-02
    34    1.950211969115e-01
    35   -2.430375910329e-02
    36   -2.048367848262e-02
    37    2.868591744230e-03
    38   -7.554438375749e-02
    39   -4.772475561937e-01
    40    1.369938424683e-01
    41   -4.082431085190e-02
    42   -8.167141664044e-02
    43   -3.634453491959e-03
    44   -4.752920613142e-01
    45    1.525050675693e-01
    46    8.110996863644e-02
    47    4.418295833450e-02
    48    9.724606650615e-03
Sym=X
Ene= 0.784788
Spin=Alpha
Occup=0
     1   -5.252310735863e-01
     2    4.582620315036e-01
     3   -1.093031748478e-01
     4   -2.642071981290e-02
     5   -6.751991250352e-03
     6   -9.101984944208e-02
     7    2.169315495676e-01
     8    6.389521421920e-01
     9   -1.144046652485e-01
    10    9.816832509583e-02
    11    2.434167435045e-02
    12   -3.053679006069e-01
    13    3.071233572398e-01
    14   -7.402989235665e-02
    15    2.069497922170e-01
    16   -1.149063064386e-02
    17   -2.807599428763e-02
    18    2.108828466769e-03
    19   -9.789737118544e-03
    20   -5.432360530314e-01
    21    4.833211765293e-01
    22    2.104606171992e-02
    23    1.137106894725e-01
    24    7.930055278667e-03
    25    9.085622449370e-02
    26   -2.138230353636e-01
    27   -6.531398154020e-01
    28   -1.099764113027e-01
    29    1.072202154237e-01
    30   -4.629363906767e-02
    31   -3.151275468268e-01
    32    2.840172604899e-01
    33    6.360532809197e-02
    34   -2.060020810895e-01
    35    2.142031581141e-02
    36    1.812249486845e-02
    37   -3.493605639607e-03
    38    8.482446187075e-03
    39    5.392786732532e-01
    40   -4.670850356274e-01
    41    2.032787978944e-02
    42    1.129863440974e-01
    43    5.757017543190e-03
    44    5.264975665297e-01
    45   -4.620408195657e-01
    46   -1.087864104090e-01
    47   -2.628168829403e-02
    48   -8.617780002470e-03
Sym=X
Ene= 0.807829
Spin=Alpha
Occup=0
     1    2.227290921034e-02
     2   -2.959740290429e-02
     3    9.775655304026e-03
     4   -3.868590749075e-03
     5    3.451983004702e-02
     6    3.559827318531e-03
     7    6.677433240175e-03
     8   -1.589799103591e-02
     9   -3.086286200775e-02
    10   -4.842812764566e-02
    11    7.626720539562e-01
    12    7.446472766922e-02
    13    4.199722668170e-02
    14   -1.125211840027e+00
    15   -1.062284164158e-02
    16    6.583127553032e-02
    17   -6.023200646797e-02
    18   -7.142601494721e-03
    19    3.080432662021e-04
    20    2.278604531053e-02
    21   -3.378157926645e-02
    22    6.277042014570e-04
    23   -1.393915260881e-02
    24    3.361819934693e-02
    25   -4.967416591868e-03
    26    2.491377678951e-02
    27   -5.353813843727e-04
    28    5.945309208156e-02
    29    2.336652397495e-02
    30   -7.613236568657e-01
    31   -6.359676136582e-02
    32   -5.583949997520e-02
    33    1.124308526655e+00
    34    1.511991483423e-02
    35    6.400518817396e-02
    36   -6.261936207834e-02
    37   -6.698570078298e-03
    38    5.757715579354e-03
    39   -2.307686823387e-02
    40    2.295373456097e-02
    41    2.059802720220e-03
    42   -2.479435913724e-03
    43   -3.461517644977e-02
    44   -2.205300270765e-02
    45    2.217869316778e-02
    46    5.892447181682e-03
    47    1.724875645975e-03
    48   -3.334370121980e-02
Sym=X
Ene= 0.862056
Spin=Alpha
Occup=0
     1    1.577548170265e-02
     2   -1.100052483208e+00
     3    1.498247497025e-01
     4    5.589144908656e-02
     5    5.755403206426e-03
     6    1.131409300907e-03
     7    2.606272165103e-03
     8    1.649841811114e-03
     9   -4.060625891018e-01
    10   -4.351004348851e-01
    11   -4.440674681557e-02
    12    9.518331881249e-01
    13    1.012632187574e+00
    14    1.041729138297e-01
    15   -4.237039620717e-03
    16    9.041834926353e-03
    17   -1.638708789515e-02
    18    2.349174008143e-01
    19    8.469425946821e-03
    20   -1.027098855334e-02
    21    1.109048140300e+00
    22    5.013780325548e-02
    23    1.511302579414e-01
    24    1.609725640878e-02
    25   -6.494682032843e-04
    26    6.918826092069e-03
    27   -8.599464178700e-03
    28   -4.010993158212e-01
    29   -4.298827091855e-01
    30   -4.525802135972e-02
    31    9.321003276656e-01
    32    9.968202925115e-01
    33    1.044199740741e-01
    34    1.783105894441e-03
    35   -1.047674586482e-02
    36    1.515222818213e-02
    37   -2.366887785712e-01
    38   -9.238312034189e-03
    39    1.063622629891e-02
    40   -1.095882524697e+00
    41    4.911417524370e-02
    42    1.503798891504e-01
    43    1.310843536935e-02
    44   -1.395005075510e-02
    45    1.088076147474e+00
    46    1.486494460367e-01
    47    5.577248799384e-02
    48    8.501181333098e-03
Sym=X
Ene= 0.934956
Spin=Alpha
Occup=0
     1   -1.085546511388e-01
     2    1.258927577109e+00
     3   -1.781668041858e-01
     4    8.277967372221e-03
     5   -1.014062245851e-02
     6   -9.718108590979e-04
     7   -1.521370570238e-02
     8    4.983405390984e-03
     9    4.622321673433e-01
    10    5.055314614178e-01
    11    5.150051516415e-02
    12   -1.448689522739e+00
    13   -1.563746875848e+00
    14   -1.607380251684e-01
    15    1.742102955453e-03
    16   -4.428572041333e-03
    17    8.496095969517e-03
    18   -1.175234572389e-01
    19    3.254554729371e-03
    20    1.122386737610e-01
    21   -1.293759194395e+00
    22    1.020464067715e-02
    23   -1.833202980798e-01
    24   -8.624253912979e-03
    25    6.000310252763e-04
    26   -8.410592824538e-03
    27    2.302191477970e-02
    28   -4.821140820363e-01
    29   -4.951117942859e-01
    30   -5.214678871030e-02
    31    1.500500995872e+00
    32    1.533915633533e+00
    33    1.625704492653e-01
    34   -3.735964715773e-03
    35   -1.370431890456e-02
    36   -1.491339097123e-03
    37   -1.197149979744e-01
    38   -6.242106388418e-03
    39    1.132900540967e-01
    40   -1.284982387021e+00
    41   -1.329873705697e-02
    42    1.829289879406e-01
    43    3.655284407708e-03
    44   -1.090487963179e-01
    45    1.299065726488e+00
    46    1.810858200914e-01
    47   -4.903630473915e-03
    48    1.489672169594e-02
Sym=X
Ene= 0.972057
Spin=Alpha
Occup=0
     1   -6.436183739771e-02
     2    9.542146743262e-01
     3   -9.467851757318e-02
     4   -9.859602769559e-02
     5   -2.764209774273e-03
     6    2.542978176524e-02
     7    2.525846491252e-01
     8    5.210109086318e-01
     9    4.901839208128e-01
    10   -4.454169330579e-01
    11   -1.216998771895e-02
    12   -1.528329919196e+00
    13    1.372617718394e+00
    14    2.338207837584e-02
    15   -5.491407237571e-02
    16    1.970630735965e-05
    17   -2.192443359482e-02
    18    8.979959241967e-03
    19   -3.010809433086e-01
    20   -6.117697444632e-02
    21    8.788294901528e-01
    22    9.491876893394e-02
    23    8.826639756705e-02
    24    1.762216011885e-02
    25   -2.509052910570e-02
    26   -2.352188279467e-01
    27   -5.483937336525e-01
    28    4.721939798398e-01
    29   -4.611241383061e-01
    30    1.232597390338e-02
    31   -1.460316970634e+00
    32    1.440147878611e+00
    33   -4.209985676518e-02
    34    5.241892481259e-02
    35    1.071121367743e-03
    36    2.014181535749e-02
    37   -1.381461810723e-02
    38    2.990268844242e-01
    39    6.097021891371e-02
    40   -9.229002811742e-01
    41    9.410118560982e-02
    42    9.422476810239e-02
    43    1.221823281132e-02
    44    6.763083448153e-02
    45   -8.945302258375e-01
    46   -8.705188825870e-02
    47   -9.783625599717e-02
    48   -7.409844662685e-03
[5D]

======= END OF MOLDEN-FORMATTED INPUT FILE =======


        *************************************************************
        *                                                           *
        *  Thank you very much for using Q-Chem.  Have a nice day.  *
        *                                                           *
        *************************************************************


