                  Welcome to Q-Chem
     A Quantum Leap Into The Future Of Chemistry


 Q-Chem 5.4 (devel), Q-Chem, Inc., Pleasanton, CA (2021)

 E. Epifanovsky,  A. T. B. Gilbert,  Xintian Feng,  Joonho Lee,  Yuezhi Mao,  
 N. Mardirossian,  P. Pokhilko,  A. White,  M. Wormit,  M. P. Coons,  
 A. L. Dempwolff,  Zhengting Gan,  D. Hait,  P. R. Horn,  L. D. Jacobson,  
 I. Kaliman,  J. Kussmann,  A. W. Lange,  Ka Un Lao,  D. S. Levine,  Jie Liu,  
 S. C. McKenzie,  A. F. Morrison,  K. Nanda,  F. Plasser,  D. R. Rehn,  
 M. L. Vidal,  Zhi-Qiang You,  Ying Zhu,  B. Alam,  B. Albrecht,  
 A. Aldossary,  E. Alguire,  J. H. Andersen,  D. Barton,  K. Begam,  A. Behn,  
 Y. A. Bernard,  E. J. Berquist,  H. Burton,  A. Carreras,  K. Carter-Fenk,  
 R. Chakraborty,  A. D. Chien,  K. D. Closser,  V. Cofer-Shabica,  
 S. Dasgupta,  Jia Deng,  M. de Wergifosse,  M. Diedenhofen,  Hainam Do,  
 S. Ehlert,  Po-Tung Fang,  S. Fatehi,  Qingguo Feng,  T. Friedhoff,  
 J. Gayvert,  Qinghui Ge,  G. Gidofalvi,  M. Goldey,  J. Gomes,  
 C. Gonzalez-Espinoza,  S. Gulania,  A. Gunina,  M. W. D. Hanson-Heine,  
 P. H. P. Harbach,  A. W. Hauser,  M. F. Herbst,  M. Hernandez Vera,  
 M. Hodecker,  Z. C. Holden,  S. Houck,  Xunkun Huang,  Kerwin Hui,  
 B. C. Huynh,  M. Ivanov,  Hyunjun Ji,  Hanjie Jiang,  B. Kaduk,  S. Kaehler,  
 K. Khistyaev,  Jaehoon Kim,  P. Klunzinger,  Z. Koczor-Benda,  
 Joong Hoon Koh,  D. Kosenkov,  L. Koulias,  T. Kowalczyk,  C. M. Krauter,  
 K. Kue,  A. Kunitsa,  T. Kus,  A. Landau,  K. V. Lawler,  D. Lefrancois,  
 S. Lehtola,  Rain Li,  Yi-Pei Li,  Jiashu Liang,  M. Liebenthal,  
 Hung-Hsuan Lin,  You-Sheng Lin,  Fenglai Liu,  Kuan-Yu Liu,  
 M. Loipersberger,  A. Luenser,  A. Manjanath,  P. Manohar,  E. Mansoor,  
 S. F. Manzer,  Shan-Ping Mao,  A. V. Marenich,  T. Markovich,  S. Mason,  
 S. A. Maurer,  P. F. McLaughlin,  M. F. S. J. Menger,  J.-M. Mewes,  
 S. A. Mewes,  P. Morgante,  J. W. Mullinax,  K. J. Oosterbaan,  G. Paran,  
 Alexander C. Paul,  Suranjan K. Paul,  F. Pavosevic,  Zheng Pei,  S. Prager,  
 E. I. Proynov,  E. Ramos,  B. Rana,  A. E. Rask,  A. Rettig,  R. M. Richard,  
 F. Rob,  E. Rossomme,  T. Scheele,  M. Scheurer,  M. Schneider,  
 N. Sergueev,  S. M. Sharada,  W. Skomorowski,  D. W. Small,  C. J. Stein,  
 Yu-Chuan Su,  E. J. Sundstrom,  Zhen Tao,  J. Thirman,  T. Tsuchimochi,  
 N. M. Tubman,  S. P. Veccham,  O. Vydrov,  J. Wenzel,  J. Witte,  A. Yamada,  
 Kun Yao,  S. Yeganeh,  S. R. Yost,  A. Zech,  Igor Ying Zhang,  Xing Zhang,  
 Yu Zhang,  D. Zuev,  A. Aspuru-Guzik,  A. T. Bell,  N. A. Besley,  
 K. B. Bravaya,  B. R. Brooks,  D. Casanova,  Jeng-Da Chai,  S. Coriani,  
 C. J. Cramer,  A. E. DePrince, III,  R. A. DiStasio Jr.,  A. Dreuw,  
 B. D. Dunietz,  T. R. Furlani,  W. A. Goddard III,  S. Grimme,  
 S. Hammes-Schiffer,  T. Head-Gordon,  W. J. Hehre,  Chao-Ping Hsu,  
 T.-C. Jagau,  Yousung Jung,  A. Klamt,  Jing Kong,  D. S. Lambrecht,  
 WanZhen Liang,  N. J. Mayhall,  C. W. McCurdy,  J. B. Neaton,  
 C. Ochsenfeld,  J. A. Parkhill,  R. Peverati,  V. A. Rassolov,  Yihan Shao,  
 L. V. Slipchenko,  T. Stauch,  R. P. Steele,  J. E. Subotnik,  
 A. J. W. Thom,  A. Tkatchenko,  D. G. Truhlar,  T. Van Voorhis,  
 T. A. Wesolowski,  K. B. Whaley,  H. L. Woodcock III,  P. M. Zimmerman,  
 S. Faraji,  P. M. W. Gill,  M. Head-Gordon,  J. M. Herbert,  A. I. Krylov

 Additional authors for Version 5.4.1: 
 S. Kotaru,  Shaozhi Li,  Xiangyuan Li,  F. Matz,  A. Molle,  Haisheng Ren,  
 Yingli Su,  Hung-Yi Tsai,  C. Utku,  Fang Wang

 Contributors to earlier versions of Q-Chem not listed above: 
 R. D. Adamson,  B. Austin,  R. Baer,  J. Baker,  G. J. O. Beran,  
 K. Brandhorst,  S. T. Brown,  E. F. C. Byrd,  A. K. Chakraborty,  
 G. K. L. Chan,  Chun-Min Chang,  Yunqing Chen,  C.-L. Cheng,  
 Siu Hung Chien,  D. M. Chipman,  D. L. Crittenden,  H. Dachsel,  
 R. J. Doerksen,  A. D. Dutoi,  R. G. Edgar,  J. Fosso-Tande,  
 L. Fusti-Molnar,  D. Ghosh,  A. Ghysels,  A. Golubeva-Zadorozhnaya,  
 J. Gonthier,  M. S. Gordon,  S. R. Gwaltney,  G. Hawkins,  J. E. Herr,  
 A. Heyden,  S. Hirata,  E. G. Hohenstein,  G. Kedziora,  F. J. Keil,  
 C. Kelley,  Jihan Kim,  R. A. King,  R. Z. Khaliullin,  P. P. Korambath,  
 W. Kurlancheek,  A. Laurent,  A. M. Lee,  M. S. Lee,  S. V. Levchenko,  
 Ching Yeh Lin,  D. Liotard,  E. Livshits,  R. C. Lochan,  I. Lotan,  
 L. A. Martinez-Martinez,  P. E. Maslen,  N. Nair,  D. P. O'Neill,  
 D. Neuhauser,  E. Neuscamman,  C. M. Oana,  R. Olivares-Amaya,  R. Olson,  
 T. M. Perrine,  B. Peters,  P. A. Pieniazek,  A. Prociuk,  Y. M. Rhee,  
 J. Ritchie,  M. A. Rohrdanz,  E. Rosta,  N. J. Russ,  H. F. Schaefer III,  
 M. W. Schmidt,  N. E. Schultz,  S. Sharma,  N. Shenvi,  C. D. Sherrill,  
 A. C. Simmonett,  A. Sodt,  T. Stein,  D. Stuck,  K. S. Thanthiriwatte,  
 V. Vanovschi,  L. Vogt,  Tao Wang,  A. Warshel,  M. A. Watson,  
 C. F. Williams,  Q. Wu,  X. Xu,  Jun Yang,  W. Zhang,  Yan Zhao

 Please cite Q-Chem as follows:
 Y. Shao et al., Mol. Phys. 113, 184-215 (2015)
 DOI: 10.1080/00268976.2014.952696

 Q-Chem 5.4.1 for Intel X86 EM64T Linux

 Parts of Q-Chem use Armadillo 9.800.1 (Horizon Scraper).
 http://arma.sourceforge.net/

 Q-Chem begins on Wed Mar 15 16:15:41 2023  

 Host: cpu121.yggdrasil
0

     Scratch files written to /srv/beegfs/scratch/users/f/fum/qchem66200//
 Processing $rem in /home/share/wesolowski/qc5.aug2021.FDE/config/preferences:
 Processing $rem in /home/fum/.qchemrc:

 Checking the input file for inconsistencies... 	...done.

--------------------------------------------------------------
User input:
--------------------------------------------------------------
$comment
generated from CCJob.Templates
$end

$rem
sym_ignore = true
method = adc(2)
ee_states = 10
basis = cc-pVDZ
mem_static = 1024
mem_total = 40000
adc_davidson_maxiter = 900
adc_davidson_conv = 6
adc_print = 3
adc_prop_es = true
adc_prop_es2es = true
adc_prop_tpa = true
molden_format = True
state_analysis = true
print_orbitals = 15
gen_scfman = false
fde_export_density = true
fde_details = 3
$end

$molecule
0 1
H -0.0348278765 -0.2442097827 0.0636489606
C -1.1165972949 -0.5242748755 -0.0023551776
H -1.313264467 -1.5767591607 -0.0757276926
C -2.043634118 0.3926884087 0.0061254933
H -1.8137616575 1.4459188338 0.0804456828
H -3.085977293 0.114931858 -0.0593381042                     
$end
--------------------------------------------------------------
 ----------------------------------------------------------------
             Standard Nuclear Orientation (Angstroms)
    I     Atom           X                Y                Z
 ----------------------------------------------------------------
    1      H      -0.0348278765    -0.2442097827     0.0636489606
    2      C      -1.1165972949    -0.5242748755    -0.0023551776
    3      H      -1.3132644670    -1.5767591607    -0.0757276926
    4      C      -2.0436341180     0.3926884087     0.0061254933
    5      H      -1.8137616575     1.4459188338     0.0804456828
    6      H      -3.0859772930     0.1149318580    -0.0593381042
 ----------------------------------------------------------------
 Nuclear Repulsion Energy =          33.69687112 hartrees
 There are        8 alpha and        8 beta electrons
 Requested basis set is cc-pVDZ
 There are 24 shells and 48 basis functions
 Total memory of 40000 MB is distributed as follows: 
   MEM_STATIC is set to 1024 MB
   QALLOC/CCMAN JOB total memory use is  38976 MB
 Warning: actual memory use might exceed 40000 MB

 Total QAlloc Memory Limit  40000 MB
 Mega-Array Size      1001 MB
 MEM_STATIC part      1024 MB

                       Distance Matrix (Angstroms)
             H (  1)   C (  2)   H (  3)   C (  4)   H (  5)
   C (  2)  1.119383
   H (  3)  1.851895  1.073212
   C (  4)  2.108139  1.303952  2.102109
   H (  5)  2.453859  2.091544  3.067812  1.080583
   H (  6)  3.074674  2.071301  2.450428  1.080700  1.846510

 A cutoff of  1.0D-11 yielded    300 shell pairs
 There are      1220 function pairs (      1329 Cartesian)
 Smallest overlap matrix eigenvalue = 4.32E-03

 Scale SEOQF with 1.000000e-01/1.000000e-01/1.000000e+00

 Standard Electronic Orientation quadrupole field applied
 Nucleus-field energy     =     0.0000000022 hartrees
 Guess from superposition of atomic densities
 Warning:  Energy on first SCF cycle will be non-variational
 SAD guess density has 16.000000 electrons
 A restricted Hartree-Fock SCF calculation will be
 performed using Pulay DIIS extrapolation
 SCF converges when DIIS error is below 1.0E-08
 using 10 threads for integral computing
 -------------------------------------------------------
 OpenMP Integral computing Module                
 Release: version 1.0, May 2013, Q-Chem Inc. Pittsburgh 
 -------------------------------------------------------
 ---------------------------------------
  Cycle       Energy         DIIS Error
 ---------------------------------------
    1     -78.4760950899      1.03E-01
    2     -78.0161143048      7.33E-03
    3     -78.0370204427      1.91E-03
    4     -78.0385499940      6.21E-04
    5     -78.0386928425      6.06E-05
    6     -78.0386948099      1.27E-05
    7     -78.0386948970      5.63E-06
    8     -78.0386949084      1.11E-06
    9     -78.0386949096      3.49E-07
   10     -78.0386949097      7.89E-08
   11     -78.0386949097      6.07E-09 Convergence criterion met
 ---------------------------------------
 SCF time:  CPU 1.91 s  wall 2.69 s
 SCF   energy in the final basis set = -78.03869491
 Total energy in the final basis set = -78.03869491
Exporting Density Matrix to file 'Densmat_SCF.txt'.
Export successful
================================================================================
|                                                                              |
|                                 A D C  M A N                                 |
|                                                                              |
 ------------------------------------------------------------------------------ 
|                                                                              |
| Components:                                                                  |
|                                                                              |
| - libvmm - 1.3-trunk                                                         |
|   Authors:                                                                   |
|   Evgeny Epifanovsky, Ilya Kaliman                                           |
|                                                                              |
| - libtensor - 2.5-trunk                                                      |
|   Authors:                                                                   |
|   Evgeny Epifanovsky, Michael Wormit, Dmitry Zuev, Sam Manzer,               |
|   Ilya Kaliman                                                               |
|                                                                              |
| - libwfa - 1.1-trunk                                                         |
|   Authors:                                                                   |
|   Felix Plasser, Stefanie Mewes (Baeppler), Benjamin Thomitzni,              |
|   Michael Wormit, Feng Chen, Anna I. Krylov, Pavel Pokhilko                  |
|                                                                              |
| - libadc - 1.1-trunk                                                         |
|   Authors:                                                                   |
|   Michael Wormit, Adrian L. Dempwolff, Philipp H. P. Harbach,                |
|   Caroline Krauter, Dirk Rehn, Matthias Schneider, Jan Wenzel                |
|                                                                              |
| - adcman - 2.6-trunk                                                         |
|   Authors:                                                                   |
|   Michael Wormit, Adrian L. Dempwolff, Philipp H. P. Harbach,                |
|   Caroline Krauter, Daniel Lefrancois, Jan-Michael Mewes, Dirk Rehn,         |
|   Matthias Schneider, Jan Wenzel, Andreas Dreuw                              |
|                                                                              |
| Authors of earlier versions of ADCMAN:                                       |
| Andreas Dreuw, Jan Hendrik Starcke, Dirk Rehn, Michael Wormit                |
|                                                                              |
================================================================================

 Created directory /srv/beegfs/scratch/users/f/fum/qchem66200/plots
  Import QC data ...  CPU 0.00 s  wall 0.00 s

 Alpha MOs, Restricted
 -- Occupied --                  
-11.233 -11.230  -1.040  -0.785  -0.640  -0.589  -0.495  -0.381
  1 A     2 A     3 A     4 A     5 A     6 A     7 A     8 A                  
 -- Virtual --                   
  0.175   0.204   0.230   0.239   0.305   0.468   0.574   0.614
  9 A    10 A    11 A    12 A    13 A    14 A    15 A    16 A                  
  0.683   0.707   0.790   0.811   0.856   0.937   0.988   1.009
 17 A    18 A    19 A    20 A    21 A    22 A    23 A    24 A                  
  1.127   1.244   1.253   1.275   1.298   1.590   1.733   1.755
 25 A    26 A    27 A    28 A    29 A    30 A    31 A    32 A                  
  1.821   1.864   1.876   1.921   1.960   1.987   2.240   2.274
 33 A    34 A    35 A    36 A    37 A    38 A    39 A    40 A                  
  2.375   2.443   2.512   2.656   2.692   2.830   3.130   3.426
 41 A    42 A    43 A    44 A    45 A    46 A    47 A    48 A                  

 Beta MOs, Restricted
 -- Occupied --                  
-11.233 -11.230  -1.040  -0.785  -0.640  -0.589  -0.495  -0.381
  1 A     2 A     3 A     4 A     5 A     6 A     7 A     8 A                  
 -- Virtual --                   
  0.175   0.204   0.230   0.239   0.305   0.468   0.574   0.614
  9 A    10 A    11 A    12 A    13 A    14 A    15 A    16 A                  
  0.683   0.707   0.790   0.811   0.856   0.937   0.988   1.009
 17 A    18 A    19 A    20 A    21 A    22 A    23 A    24 A                  
  1.127   1.244   1.253   1.275   1.298   1.590   1.733   1.755
 25 A    26 A    27 A    28 A    29 A    30 A    31 A    32 A                  
  1.821   1.864   1.876   1.921   1.960   1.987   2.240   2.274
 33 A    34 A    35 A    36 A    37 A    38 A    39 A    40 A                  
  2.375   2.443   2.512   2.656   2.692   2.830   3.130   3.426
 41 A    42 A    43 A    44 A    45 A    46 A    47 A    48 A                  
  Import AO data ...  CPU 0.00 s  wall 0.07 s
  Using point group: C1
  Irreducible representations in point group: A
  Molecular orbitals: 
  Occupied MOs:
  Block   0:   1 (  A) A   2 (  A) A   3 (  A) A   4 (  A) A   5 (  A) A
                  -11.23      -11.23       -1.04     -0.7853     -0.6399
               6 (  A) A   7 (  A) A   8 (  A) A
                 -0.5888     -0.4951     -0.3814
  Block   1:   1 (  A) B   2 (  A) B   3 (  A) B   4 (  A) B   5 (  A) B
                  -11.23      -11.23       -1.04     -0.7853     -0.6399
               6 (  A) B   7 (  A) B   8 (  A) B
                 -0.5888     -0.4951     -0.3814
  Virtual MOs:
  Block   0:   9 (  A) A  10 (  A) A  11 (  A) A  12 (  A) A  13 (  A) A
                   0.175      0.2037      0.2304      0.2386      0.3048
              14 (  A) A  15 (  A) A  16 (  A) A  17 (  A) A  18 (  A) A
                  0.4683      0.5735      0.6141      0.6826      0.7067
              19 (  A) A  20 (  A) A  21 (  A) A  22 (  A) A
                  0.7897       0.811      0.8561      0.9365
  Block   1:  23 (  A) A  24 (  A) A  25 (  A) A  26 (  A) A  27 (  A) A
                  0.9881       1.009       1.127       1.244       1.253
              28 (  A) A  29 (  A) A  30 (  A) A  31 (  A) A  32 (  A) A
                   1.275       1.298        1.59       1.733       1.755
              33 (  A) A  34 (  A) A  35 (  A) A  36 (  A) A
                   1.821       1.864       1.876       1.921
  Block   2:  37 (  A) A  38 (  A) A  39 (  A) A  40 (  A) A  41 (  A) A
                    1.96       1.987        2.24       2.274       2.375
              42 (  A) A  43 (  A) A  44 (  A) A  45 (  A) A  46 (  A) A
                   2.443       2.512       2.656       2.692        2.83
              47 (  A) A  48 (  A) A
                    3.13       3.426
  Block   3:   9 (  A) B  10 (  A) B  11 (  A) B  12 (  A) B  13 (  A) B
                   0.175      0.2037      0.2304      0.2386      0.3048
              14 (  A) B  15 (  A) B  16 (  A) B  17 (  A) B  18 (  A) B
                  0.4683      0.5735      0.6141      0.6826      0.7067
              19 (  A) B  20 (  A) B  21 (  A) B  22 (  A) B
                  0.7897       0.811      0.8561      0.9365
  Block   4:  23 (  A) B  24 (  A) B  25 (  A) B  26 (  A) B  27 (  A) B
                  0.9881       1.009       1.127       1.244       1.253
              28 (  A) B  29 (  A) B  30 (  A) B  31 (  A) B  32 (  A) B
                   1.275       1.298        1.59       1.733       1.755
              33 (  A) B  34 (  A) B  35 (  A) B  36 (  A) B
                   1.821       1.864       1.876       1.921
  Block   5:  37 (  A) B  38 (  A) B  39 (  A) B  40 (  A) B  41 (  A) B
                    1.96       1.987        2.24       2.274       2.375
              42 (  A) B  43 (  A) B  44 (  A) B  45 (  A) B  46 (  A) B
                   2.443       2.512       2.656       2.692        2.83
              47 (  A) B  48 (  A) B
                    3.13       3.426
  Import MO data ...  CPU 0.01 s  wall 0.02 s
  Import HF data ...  CPU 0.07 s  wall 0.03 s
  Import 2e integrals ...  CPU 0.80 s  wall 0.15 s

--------------------------------------------------------------------------------
                                   HF Summary                                   
--------------------------------------------------------------------------------
  Energy:                                                  -78.0386949097 a.u.
  Dip. moment [a.u.]:                  [  -0.006841,   -0.004506,   -0.001170]
  Total dipole [Debye]:                                               0.021033
  <r^2> [a.u.]:                        [ 177.278609,   34.843608,   11.567469]
  Total <r^2> [a.u.]:                                               223.689686
--------------------------------------------------------------------------------
  HF properties ...  CPU 0.01 s  wall 0.00 s
  MP(1) calculation ...  CPU 0.00 s  wall 0.00 s
  N^6 prerequesite intermediates ...  CPU 0.42 s  wall 0.07 s
  Difference density matrix of state mp2_gs printed to ASCII file 'State_mp2_gs_Difference.txt'
Exporting MP density matrix to file 'Densmat_MP.txt'.
Export successful
  Total density matrix of state mp2_gs printed to ASCII file 'State_mp2_gs_Total.txt'
Exporting MP density matrix to file 'Densmat_MP.txt'.
Export successful

--------------------------------------------------------------------------------
                                 MP(2) Summary                                  
--------------------------------------------------------------------------------
  MP energy contribution:                                   -0.2785081670 a.u.
  Total energy:                                            -78.3172030767 a.u.
  Dip. moment [a.u.]:                  [  -0.005739,   -0.003410,   -0.001046]
  Total dipole [Debye]:                                               0.017174
  <r^2> [a.u.]:                        [ 177.324245,   34.895622,   11.416414]
  Total <r^2> [a.u.]:                                               223.636280

  Density matrix analysis:
  ------------------------
  NOs
    Occupation of frontier NOs:
       0.0430   1.9403
    Number of electrons: 16.000000
    Number of unpaired electrons: n_u =  0.39831, n_u,nl =  0.04322
    NO participation ratio (PR_NO): 14.112010
  
  
  Mulliken Population Analysis
  Atom      Charge (e)              h+              e-           Del q
  --------------------------------------------------------------------
   1 H        0.053541        0.013962       -0.011246        0.002716
   2 C       -0.111039        0.091967       -0.097486       -0.005519
   3 H        0.047805        0.014127       -0.011247        0.002880
   4 C       -0.087730        0.090137       -0.096108       -0.005971
   5 H        0.049730        0.013999       -0.011182        0.002817
   6 H        0.047692        0.014201       -0.011124        0.003077
  --------------------------------------------------------------------
  Sum:       -0.000000        0.238393       -0.238393        0.000000
  
  Multipole moment analysis of the density matrix
    Molecular charge:                      0.000000
    Number of electrons:                   16.000000
      Center of electronic charge [Ang]: [ -1.575386,  -0.065490,   0.002013]
    Total nuclear charge:                  16.000000
      Center of nuclear charge [Ang]:    [ -1.575576,  -0.065602,   0.001978]
    Dipole moment [D]:                     0.017174
      Cartesian components [D]:          [ -0.014586,  -0.008667,  -0.002659]
    RMS size of the density [Ang]:         1.194947
      Cartesian components [Ang]:        [  0.788447,   0.778747,   0.446994]
  
  Exciton analysis of the difference density matrix
    <r_h> [Ang]:                  [ -1.569167,  -0.065569,   0.002398]
    <r_e> [Ang]:                  [ -1.571614,  -0.068003,   0.002122]
    |<r_e - r_h>| [Ang]:            0.003462
    Hole size [Ang]:                1.385493
      Cartesian components [Ang]: [  0.847040,   0.830929,   0.715311]
    Electron size [Ang]:            1.359723
      Cartesian components [Ang]: [  0.873726,   0.866728,   0.578129]
--------------------------------------------------------------------------------
  MP(2) calculation ...  CPU 0.11 s  wall 0.54 s
  Start ADC(2)-s ...  CPU 0.01 s  wall 0.00 s
  ADC(2) intermediates ...  CPU 0.02 s  wall 0.01 s
  Starting Davidson for singlet states of irrep A ... 
--------------------------------------------------------------------------------
   It NVec Conv  Avg. Norm  Max. Norm  Conv. states           Remark
--------------------------------------------------------------------------------
        10    0  1.333e-01  4.719e-01  0.4176 n n n n n n n n Guess.
    1   20    0  2.545e-02  1.465e-01  0.3336 n n n n n n n n 
    2   30    0  6.596e-03  4.135e-02  0.3308 n n n n n n n n 
    3   40    0  2.300e-03  1.780e-02  0.3305 n n n n n n n n 
    4   50    0  8.000e-04  6.895e-03  0.3304 n n n n n n n n 
    5   20    0  5.329e-04  4.942e-03  0.3304 n n n n n n n n Subspace collapsed.
    6   30    0  9.239e-04  9.182e-03  0.3304 n n n n n n n n 
    7   40    0  6.516e-04  6.484e-03  0.3304 n n n n n n n n 
    8   50    0  4.428e-04  4.414e-03  0.3304 n n n n n n n n 
    9   20    1  2.705e-04  2.696e-03  0.3304 n y n n n n n n Subspace collapsed.
   10   30    2  2.115e-04  2.110e-03  0.3304 n y n y n n n n 
   11   40    4  9.175e-05  9.151e-04  0.3304 n y y y y n n n 
   12   50    6  7.516e-05  7.505e-04  0.3304 y y y y y y n n 
   13   20    6  5.359e-05  5.352e-04  0.3304 y y y y y y n n Subspace collapsed.
   14   30    6  8.684e-05  8.670e-04  0.3304 y y y y y y n n 
   15   40    6  7.225e-05  7.205e-04  0.3304 y y y y y y n n 
   16   50    6  5.247e-05  5.203e-04  0.3304 y y y y y y n n 
   17   20    6  2.583e-05  2.561e-04  0.3304 y y y y y y n n Subspace collapsed.
   18   30    6  1.995e-05  1.977e-04  0.3304 y y y y y y n n 
   19   40    7  9.275e-06  9.169e-05  0.3304 y y y y y y n y 
   20   50    8  8.550e-06  8.439e-05  0.3304 y y y y y y y y 
   21   20    8  5.869e-06  5.787e-05  0.3304 y y y y y y y y Subspace collapsed.
   22   21    8  5.909e-06  5.826e-05  0.3304 y y y y y y y y 
   23   22    8  5.931e-06  5.848e-05  0.3304 y y y y y y y y 
   24   23    8  5.874e-06  5.791e-05  0.3304 y y y y y y y y 
   25   32    8  9.222e-06  9.038e-05  0.3304 y y y y y y y y 
   26   41    8  7.877e-06  7.599e-05  0.3304 y y y y y y y y 
   27   42    8  7.852e-06  7.570e-05  0.3304 y y y y y y y y 
   28   49    8  6.949e-06  6.292e-05  0.3304 y y y y y y y y 
   29   50    8  6.978e-06  6.316e-05  0.3304 y y y y y y y y 
   30   15    8  2.622e-06  2.360e-05  0.3304 y y y y y y y y Subspace collapsed.
   31   20    8  2.210e-06  1.986e-05  0.3304 y y y y y y y y 
   32   25    8  1.193e-06  1.068e-05  0.3304 y y y y y y y y 
   33   30    8  1.124e-06  9.670e-06  0.3304 y y y y y y y y 
   34   35    8  1.199e-06  9.609e-06  0.3304 y y y y y y y y 
   35   35    8  1.199e-06  9.609e-06  0.3304 y y y y y y y y 
   36   45    8  1.410e-06  1.105e-05  0.3304 y y y y y y y y 
   37   49    8  9.873e-07  8.818e-06  0.3304 y y y y y y y y 
   38   50    8  9.858e-07  8.805e-06  0.3304 y y y y y y y y 
   39   14    8  5.301e-07  4.747e-06  0.3304 y y y y y y y y Subspace collapsed.
   40   18    8  2.951e-07  2.655e-06  0.3304 y y y y y y y y 
   41   22    9  2.025e-07  1.846e-06  0.3304 y y y y y y y y 
   42   26    9  1.378e-07  1.268e-06  0.3304 y y y y y y y y 
   43   30    9  1.166e-07  1.086e-06  0.3304 y y y y y y y y 
   44   34    9  1.927e-07  1.851e-06  0.3304 y y y y y y y y 
   45   38    9  2.216e-07  2.176e-06  0.3304 y y y y y y y y 
   46   42    9  2.106e-07  2.089e-06  0.3304 y y y y y y y y 
   47   46    9  1.451e-07  1.445e-06  0.3304 y y y y y y y y 
   48   50   10  6.520e-08  6.498e-07  0.3304 y y y y y y y y Converged.
--------------------------------------------------------------------------------
  Davidson Summary: 
 ------------------------------------------------------------
  State  0: excitation energy =   0.3304 a.u.   (converged)
  State  1: excitation energy =   0.3315 a.u.   (converged)
  State  2: excitation energy =   0.3413 a.u.   (converged)
  State  3: excitation energy =   0.3619 a.u.   (converged)
  State  4: excitation energy =   0.3815 a.u.   (converged)
  State  5: excitation energy =   0.3971 a.u.   (converged)
  State  6: excitation energy =   0.4176 a.u.   (converged)
  State  7: excitation energy =   0.4527 a.u.   (converged)
  State  8: excitation energy =   0.4546 a.u.   (converged)
  State  9: excitation energy =   0.4620 a.u.   (converged)
 ------------------------------------------------------------

  Singlet states of irrep A ...  CPU 123.74 s  wall 32.10 s
  TDMs ...  CPU 0.59 s  wall 0.23 s
  SDMs ...  CPU 1.50 s  wall 0.46 s
  Starting TPA DIIS iterations ... 
------------------------------------ 
   It     Res. Norm  Remark
------------------------------------
                       Guess.
    1     3.954e+00  
    2     5.151e+00  
    3     1.030e+00  
    4     2.484e-01  
    5     5.688e-02  
    6     2.538e-02  
    7     7.698e-03  
    8     1.584e-03  
    9     5.933e-04  
   10     9.665e-05  
   11     3.287e-05  
   12     4.914e-06  
   13     1.770e-06  
   14     5.079e-07  Converged.
   ... Converged in 14 steps (norm: 5.079e-07)
------------------------------------
  Starting TPA DIIS iterations ... 
------------------------------------ 
   It     Res. Norm  Remark
------------------------------------
                       Guess.
    1     3.957e+00  
    2     5.124e+00  
    3     9.842e-01  
    4     2.297e-01  
    5     5.654e-02  
    6     2.369e-02  
    7     7.436e-03  
    8     1.404e-03  
    9     5.382e-04  
   10     8.774e-05  
   11     2.822e-05  
   12     4.342e-06  
   13     1.646e-06  
   14     4.959e-07  Converged.
   ... Converged in 14 steps (norm: 4.95916e-07)
------------------------------------
  Starting TPA DIIS iterations ... 
------------------------------------ 
   It     Res. Norm  Remark
------------------------------------
                       Guess.
    1     6.865e-01  
    2     4.790e-01  
    3     1.684e-01  
    4     5.019e-02  
    5     1.797e-02  
    6     7.065e-03  
    7     1.207e-03  
    8     4.464e-04  
    9     1.995e-04  
   10     4.472e-05  
   11     2.750e-05  
   12     9.027e-06  
   13     4.757e-06  
   14     1.977e-06  
   15     6.701e-07  Converged.
   ... Converged in 15 steps (norm: 6.70057e-07)
------------------------------------
  Starting TPA DIIS iterations ... 
------------------------------------ 
   It     Res. Norm  Remark
------------------------------------
                       Guess.
    1     3.975e+00  
    2     5.187e+00  
    3     1.037e+00  
    4     2.506e-01  
    5     5.745e-02  
    6     2.567e-02  
    7     7.785e-03  
    8     1.602e-03  
    9     6.003e-04  
   10     9.785e-05  
   11     3.330e-05  
   12     4.983e-06  
   13     1.795e-06  
   14     5.154e-07  Converged.
   ... Converged in 14 steps (norm: 5.15428e-07)
------------------------------------
  Starting TPA DIIS iterations ... 
------------------------------------ 
   It     Res. Norm  Remark
------------------------------------
                       Guess.
    1     3.978e+00  
    2     5.160e+00  
    3     9.902e-01  
    4     2.317e-01  
    5     5.711e-02  
    6     2.395e-02  
    7     7.519e-03  
    8     1.419e-03  
    9     5.445e-04  
   10     8.882e-05  
   11     2.859e-05  
   12     4.402e-06  
   13     1.671e-06  
   14     5.035e-07  Converged.
   ... Converged in 14 steps (norm: 5.03545e-07)
------------------------------------
  Starting TPA DIIS iterations ... 
------------------------------------ 
   It     Res. Norm  Remark
------------------------------------
                       Guess.
    1     6.875e-01  
    2     4.805e-01  
    3     1.692e-01  
    4     5.067e-02  
    5     1.811e-02  
    6     7.118e-03  
    7     1.220e-03  
    8     4.514e-04  
    9     2.020e-04  
   10     4.558e-05  
   11     2.793e-05  
   12     9.175e-06  
   13     4.854e-06  
   14     2.025e-06  
   15     6.834e-07  Converged.
   ... Converged in 15 steps (norm: 6.83403e-07)
------------------------------------
  Starting TPA DIIS iterations ... 
------------------------------------ 
   It     Res. Norm  Remark
------------------------------------
                       Guess.
    1     4.181e+00  
    2     5.554e+00  
    3     1.099e+00  
    4     2.731e-01  
    5     6.341e-02  
    6     2.863e-02  
    7     8.676e-03  
    8     1.786e-03  
    9     6.727e-04  
   10     1.102e-04  
   11     3.778e-05  
   12     5.701e-06  
   13     2.065e-06  
   14     5.946e-07  Converged.
   ... Converged in 14 steps (norm: 5.94635e-07)
------------------------------------
  Starting TPA DIIS iterations ... 
------------------------------------ 
   It     Res. Norm  Remark
------------------------------------
                       Guess.
    1     4.185e+00  
    2     5.525e+00  
    3     1.050e+00  
    4     2.523e-01  
    5     6.304e-02  
    6     2.668e-02  
    7     8.366e-03  
    8     1.579e-03  
    9     6.096e-04  
   10     9.997e-05  
   11     3.240e-05  
   12     5.034e-06  
   13     1.936e-06  
   14     5.842e-07  Converged.
   ... Converged in 14 steps (norm: 5.84163e-07)
------------------------------------
  Starting TPA DIIS iterations ... 
------------------------------------ 
   It     Res. Norm  Remark
------------------------------------
                       Guess.
    1     6.976e-01  
    2     4.948e-01  
    3     1.773e-01  
    4     5.561e-02  
    5     1.945e-02  
    6     7.657e-03  
    7     1.354e-03  
    8     5.022e-04  
    9     2.279e-04  
   10     5.471e-05  
   11     3.245e-05  
   12     1.076e-05  
   13     5.905e-06  
   14     2.551e-06  
   15     8.229e-07  Converged.
   ... Converged in 15 steps (norm: 8.22862e-07)
------------------------------------
  Starting TPA DIIS iterations ... 
------------------------------------ 
   It     Res. Norm  Remark
------------------------------------
                       Guess.
    1     4.680e+00  
    2     6.459e+00  
    3     1.250e+00  
    4     3.307e-01  
    5     7.866e-02  
    6     3.632e-02  
    7     1.097e-02  
    8     2.260e-03  
    9     8.604e-04  
   10     1.426e-04  
   11     4.964e-05  
   12     7.630e-06  
   13     2.801e-06  
   14     8.117e-07  Converged.
   ... Converged in 14 steps (norm: 8.11737e-07)
------------------------------------
  Starting TPA DIIS iterations ... 
------------------------------------ 
   It     Res. Norm  Remark
------------------------------------
                       Guess.
    1     4.683e+00  
    2     6.425e+00  
    3     1.195e+00  
    4     3.049e-01  
    5     7.823e-02  
    6     3.373e-02  
    7     1.055e-02  
    8     1.989e-03  
    9     7.785e-04  
   10     1.291e-04  
   11     4.251e-05  
   12     6.725e-06  
   13     2.671e-06  
   14     8.080e-07  Converged.
   ... Converged in 14 steps (norm: 8.08036e-07)
------------------------------------
  Starting TPA DIIS iterations ... 
------------------------------------ 
   It     Res. Norm  Remark
------------------------------------
                       Guess.
    1     7.198e-01  
    2     5.275e-01  
    3     1.963e-01  
    4     6.863e-02  
    5     2.257e-02  
    6     9.016e-03  
    7     1.705e-03  
    8     6.261e-04  
    9     2.948e-04  
   10     8.074e-05  
   11     4.513e-05  
   12     1.544e-05  
   13     9.081e-06  
   14     4.185e-06  
   15     1.196e-06  
   16     3.894e-07  Converged.
   ... Converged in 16 steps (norm: 3.89361e-07)
------------------------------------
  Starting TPA DIIS iterations ... 
------------------------------------ 
   It     Res. Norm  Remark
------------------------------------
                       Guess.
    1     5.250e+00  
    2     7.530e+00  
    3     1.421e+00  
    4     4.024e-01  
    5     9.757e-02  
    6     4.603e-02  
    7     1.384e-02  
    8     2.849e-03  
    9     1.097e-03  
   10     1.835e-04  
   11     6.491e-05  
   12     1.016e-05  
   13     3.787e-06  
   14     1.109e-06  
   15     3.382e-07  Converged.
   ... Converged in 15 steps (norm: 3.38206e-07)
------------------------------------
  Starting TPA DIIS iterations ... 
------------------------------------ 
   It     Res. Norm  Remark
------------------------------------
                       Guess.
    1     5.254e+00  
    2     7.491e+00  
    3     1.359e+00  
    4     3.700e-01  
    5     9.703e-02  
    6     4.262e-02  
    7     1.326e-02  
    8     2.498e-03  
    9     9.913e-04  
   10     1.659e-04  
   11     5.562e-05  
   12     8.936e-06  
   13     3.688e-06  
   14     1.121e-06  
   15     5.743e-07  Converged.
   ... Converged in 15 steps (norm: 5.74284e-07)
------------------------------------
  Starting TPA DIIS iterations ... 
------------------------------------ 
   It     Res. Norm  Remark
------------------------------------
                       Guess.
    1     7.422e-01  
    2     5.623e-01  
    3     2.173e-01  
    4     8.541e-02  
    5     2.604e-02  
    6     1.069e-02  
    7     2.157e-03  
    8     7.636e-04  
    9     3.777e-04  
   10     1.172e-04  
   11     6.287e-05  
   12     2.250e-05  
   13     1.413e-05  
   14     6.696e-06  
   15     1.713e-06  
   16     5.648e-07  Converged.
   ... Converged in 16 steps (norm: 5.64803e-07)
------------------------------------
  Starting TPA DIIS iterations ... 
------------------------------------ 
   It     Res. Norm  Remark
------------------------------------
                       Guess.
    1     5.794e+00  
    2     8.584e+00  
    3     1.583e+00  
    4     4.761e-01  
    5     1.169e-01  
    6     5.614e-02  
    7     1.679e-02  
    8     3.454e-03  
    9     1.342e-03  
   10     2.262e-04  
   11     8.093e-05  
   12     1.287e-05  
   13     4.853e-06  
   14     1.447e-06  
   15     4.514e-07  Converged.
   ... Converged in 15 steps (norm: 4.51448e-07)
------------------------------------
  Starting TPA DIIS iterations ... 
------------------------------------ 
   It     Res. Norm  Remark
------------------------------------
                       Guess.
    1     5.797e+00  
    2     8.539e+00  
    3     1.515e+00  
    4     4.367e-01  
    5     1.163e-01  
    6     5.185e-02  
    7     1.604e-02  
    8     3.019e-03  
    9     1.212e-03  
   10     2.043e-04  
   11     6.950e-05  
   12     1.129e-05  
   13     4.841e-06  
   14     1.486e-06  
   15     8.187e-07  Converged.
   ... Converged in 15 steps (norm: 8.18713e-07)
------------------------------------
  Starting TPA DIIS iterations ... 
------------------------------------ 
   It     Res. Norm  Remark
------------------------------------
                       Guess.
    1     7.611e-01  
    2     5.935e-01  
    3     2.367e-01  
    4     1.032e-01  
    5     2.934e-02  
    6     1.239e-02  
    7     2.633e-03  
    8     8.857e-04  
    9     4.623e-04  
   10     1.581e-04  
   11     8.317e-05  
   12     3.118e-05  
   13     2.081e-05  
   14     9.709e-06  
   15     2.352e-06  
   16     7.796e-07  Converged.
   ... Converged in 16 steps (norm: 7.79637e-07)
------------------------------------
  Starting TPA DIIS iterations ... 
------------------------------------ 
   It     Res. Norm  Remark
------------------------------------
                       Guess.
    1     6.657e+00  
    2     1.032e+01  
    3     1.837e+00  
    4     6.025e-01  
    5     1.501e-01  
    6     7.372e-02  
    7     2.187e-02  
    8     4.490e-03  
    9     1.768e-03  
   10     3.004e-04  
   11     1.085e-04  
   12     1.773e-05  
   13     6.747e-06  
   14     2.102e-06  
   15     6.725e-07  Converged.
   ... Converged in 15 steps (norm: 6.72506e-07)
------------------------------------
  Starting TPA DIIS iterations ... 
------------------------------------ 
   It     Res. Norm  Remark
------------------------------------
                       Guess.
    1     6.659e+00  
    2     1.026e+01  
    3     1.760e+00  
    4     5.505e-01  
    5     1.491e-01  
    6     6.787e-02  
    7     2.082e-02  
    8     3.910e-03  
    9     1.596e-03  
   10     2.710e-04  
   11     9.388e-05  
   12     1.548e-05  
   13     7.041e-06  
   14     2.231e-06  
   15     1.338e-06  
   16     5.098e-07  Converged.
   ... Converged in 16 steps (norm: 5.09785e-07)
------------------------------------
  Starting TPA DIIS iterations ... 
------------------------------------ 
   It     Res. Norm  Remark
------------------------------------
                       Guess.
    1     7.874e-01  
    2     6.394e-01  
    3     2.663e-01  
    4     1.349e-01  
    5     3.472e-02  
    6     1.530e-02  
    7     3.470e-03  
    8     1.062e-03  
    9     6.067e-04  
   10     2.346e-04  
   11     1.223e-04  
   12     4.926e-05  
   13     3.596e-05  
   14     1.572e-05  
   15     3.762e-06  
   16     1.240e-06  
   17     4.105e-07  Converged.
   ... Converged in 17 steps (norm: 4.10453e-07)
------------------------------------
  Starting TPA DIIS iterations ... 
------------------------------------ 
   It     Res. Norm  Remark
------------------------------------
                       Guess.
    1     8.722e+00  
    2     1.473e+01  
    3     2.432e+00  
    4     9.438e-01  
    5     2.397e-01  
    6     1.226e-01  
    7     3.567e-02  
    8     7.291e-03  
    9     2.942e-03  
   10     5.052e-04  
   11     1.804e-04  
   12     3.265e-05  
   13     1.213e-05  
   14     4.253e-06  
   15     1.545e-06  
   16     4.838e-07  Converged.
   ... Converged in 16 steps (norm: 4.83779e-07)
------------------------------------
  Starting TPA DIIS iterations ... 
------------------------------------ 
   It     Res. Norm  Remark
------------------------------------
                       Guess.
    1     8.719e+00  
    2     1.465e+01  
    3     2.333e+00  
    4     8.563e-01  
    5     2.378e-01  
    6     1.123e-01  
    7     3.375e-02  
    8     6.313e-03  
    9     2.655e-03  
   10     4.549e-04  
   11     1.603e-04  
   12     2.737e-05  
   13     1.428e-05  
   14     5.316e-06  
   15     3.371e-06  
   16     1.484e-06  
   17     9.070e-07  Converged.
   ... Converged in 17 steps (norm: 9.06971e-07)
------------------------------------
  Starting TPA DIIS iterations ... 
------------------------------------ 
   It     Res. Norm  Remark
------------------------------------
                       Guess.
    1     8.372e-01  
    2     7.362e-01  
    3     3.324e-01  
    4     2.238e-01  
    5     4.874e-02  
    6     2.281e-02  
    7     5.773e-03  
    8     1.492e-03  
    9     9.977e-04  
   10     4.663e-04  
   11     2.492e-04  
   12     1.138e-04  
   13     9.370e-05  
   14     3.622e-05  
   15     9.551e-06  
   16     3.272e-06  
   17     9.617e-07  Converged.
   ... Converged in 17 steps (norm: 9.61674e-07)
------------------------------------
  Starting TPA DIIS iterations ... 
------------------------------------ 
   It     Res. Norm  Remark
------------------------------------
                       Guess.
    1     8.865e+00  
    2     1.505e+01  
    3     2.473e+00  
    4     9.693e-01  
    5     2.464e-01  
    6     1.263e-01  
    7     3.671e-02  
    8     7.501e-03  
    9     3.031e-03  
   10     5.207e-04  
   11     1.856e-04  
   12     3.390e-05  
   13     1.257e-05  
   14     4.430e-06  
   15     1.636e-06  
   16     5.084e-07  Converged.
   ... Converged in 16 steps (norm: 5.08418e-07)
------------------------------------
  Starting TPA DIIS iterations ... 
------------------------------------ 
   It     Res. Norm  Remark
------------------------------------
                       Guess.
    1     8.863e+00  
    2     1.496e+01  
    3     2.372e+00  
    4     8.790e-01  
    5     2.444e-01  
    6     1.157e-01  
    7     3.472e-02  
    8     6.493e-03  
    9     2.735e-03  
   10     4.688e-04  
   11     1.652e-04  
   12     2.829e-05  
   13     1.491e-05  
   14     5.625e-06  
   15     3.562e-06  
   16     1.582e-06  
   17     9.587e-07  Converged.
   ... Converged in 17 steps (norm: 9.58653e-07)
------------------------------------
  Starting TPA DIIS iterations ... 
------------------------------------ 
   It     Res. Norm  Remark
------------------------------------
                       Guess.
    1     8.402e-01  
    2     7.424e-01  
    3     3.368e-01  
    4     2.305e-01  
    5     4.977e-02  
    6     2.334e-02  
    7     5.945e-03  
    8     1.527e-03  
    9     1.027e-03  
   10     4.846e-04  
   11     2.597e-04  
   12     1.193e-04  
   13     9.855e-05  
   14     3.797e-05  
   15     1.009e-05  
   16     3.475e-06  
   17     1.019e-06  
   18     3.572e-07  Converged.
   ... Converged in 18 steps (norm: 3.57237e-07)
------------------------------------
  Starting TPA DIIS iterations ... 
------------------------------------ 
   It     Res. Norm  Remark
------------------------------------
                       Guess.
    1     9.441e+00  
    2     1.634e+01  
    3     2.635e+00  
    4     1.073e+00  
    5     2.738e-01  
    6     1.416e-01  
    7     4.096e-02  
    8     8.359e-03  
    9     3.397e-03  
   10     5.842e-04  
   11     2.065e-04  
   12     3.920e-05  
   13     1.439e-05  
   14     5.170e-06  
   15     2.051e-06  
   16     6.159e-07  Converged.
   ... Converged in 16 steps (norm: 6.15921e-07)
------------------------------------
  Starting TPA DIIS iterations ... 
------------------------------------ 
   It     Res. Norm  Remark
------------------------------------
                       Guess.
    1     9.436e+00  
    2     1.625e+01  
    3     2.528e+00  
    4     9.716e-01  
    5     2.715e-01  
    6     1.295e-01  
    7     3.868e-02  
    8     7.227e-03  
    9     3.065e-03  
   10     5.257e-04  
   11     1.851e-04  
   12     3.211e-05  
   13     1.757e-05  
   14     7.007e-06  
   15     4.402e-06  
   16     2.027e-06  
   17     1.182e-06  
   18     4.173e-07  Converged.
   ... Converged in 18 steps (norm: 4.17297e-07)
------------------------------------
  Starting TPA DIIS iterations ... 
------------------------------------ 
   It     Res. Norm  Remark
------------------------------------
                       Guess.
    1     8.515e-01  
    2     7.666e-01  
    3     3.542e-01  
    4     2.578e-01  
    5     5.397e-02  
    6     2.546e-02  
    7     6.643e-03  
    8     1.674e-03  
    9     1.148e-03  
   10     5.602e-04  
   11     3.039e-04  
   12     1.421e-04  
   13     1.185e-04  
   14     4.533e-05  
   15     1.242e-05  
   16     4.385e-06  
   17     1.275e-06  
   18     4.746e-07  Converged.
   ... Converged in 18 steps (norm: 4.74645e-07)
------------------------------------
  Two-photon absorbption ...  CPU 103.42 s  wall 19.55 s
  Transition density matrix of state singlet_A_1 printed to ASCII file 'State_singlet_A_1_Transition.txt'
  Transition density matrix of state singlet_A_2 printed to ASCII file 'State_singlet_A_2_Transition.txt'
  Transition density matrix of state singlet_A_3 printed to ASCII file 'State_singlet_A_3_Transition.txt'
  Transition density matrix of state singlet_A_4 printed to ASCII file 'State_singlet_A_4_Transition.txt'
  Transition density matrix of state singlet_A_5 printed to ASCII file 'State_singlet_A_5_Transition.txt'
  Transition density matrix of state singlet_A_6 printed to ASCII file 'State_singlet_A_6_Transition.txt'
  Transition density matrix of state singlet_A_7 printed to ASCII file 'State_singlet_A_7_Transition.txt'
  Transition density matrix of state singlet_A_8 printed to ASCII file 'State_singlet_A_8_Transition.txt'
  Transition density matrix of state singlet_A_9 printed to ASCII file 'State_singlet_A_9_Transition.txt'
  Transition density matrix of state singlet_A_10 printed to ASCII file 'State_singlet_A_10_Transition.txt'
  Transition properties ...  CPU 0.14 s  wall 0.86 s
  Difference density matrix of state singlet_A_1 printed to ASCII file 'State_singlet_A_1_Difference.txt'
  Total density matrix of state singlet_A_1 printed to ASCII file 'State_singlet_A_1_Total.txt'
  Difference density matrix of state singlet_A_2 printed to ASCII file 'State_singlet_A_2_Difference.txt'
  Total density matrix of state singlet_A_2 printed to ASCII file 'State_singlet_A_2_Total.txt'
  Difference density matrix of state singlet_A_3 printed to ASCII file 'State_singlet_A_3_Difference.txt'
  Total density matrix of state singlet_A_3 printed to ASCII file 'State_singlet_A_3_Total.txt'
  Difference density matrix of state singlet_A_4 printed to ASCII file 'State_singlet_A_4_Difference.txt'
  Total density matrix of state singlet_A_4 printed to ASCII file 'State_singlet_A_4_Total.txt'
  Difference density matrix of state singlet_A_5 printed to ASCII file 'State_singlet_A_5_Difference.txt'
  Total density matrix of state singlet_A_5 printed to ASCII file 'State_singlet_A_5_Total.txt'
  Difference density matrix of state singlet_A_6 printed to ASCII file 'State_singlet_A_6_Difference.txt'
  Total density matrix of state singlet_A_6 printed to ASCII file 'State_singlet_A_6_Total.txt'
  Difference density matrix of state singlet_A_7 printed to ASCII file 'State_singlet_A_7_Difference.txt'
  Total density matrix of state singlet_A_7 printed to ASCII file 'State_singlet_A_7_Total.txt'
  Difference density matrix of state singlet_A_8 printed to ASCII file 'State_singlet_A_8_Difference.txt'
  Total density matrix of state singlet_A_8 printed to ASCII file 'State_singlet_A_8_Total.txt'
  Difference density matrix of state singlet_A_9 printed to ASCII file 'State_singlet_A_9_Difference.txt'
  Total density matrix of state singlet_A_9 printed to ASCII file 'State_singlet_A_9_Total.txt'
  Difference density matrix of state singlet_A_10 printed to ASCII file 'State_singlet_A_10_Difference.txt'
  Total density matrix of state singlet_A_10 printed to ASCII file 'State_singlet_A_10_Total.txt'
  Properties ...  CPU 0.27 s  wall 1.26 s
  ISR TDMS ...  CPU 7.46 s  wall 2.64 s
  ISR transition properties ...  CPU 0.15 s  wall 0.07 s
  Sum-over-states TPA ...  CPU 0.00 s  wall 0.00 s

--------------------------------------------------------------------------------
                   State-averaged natural transition orbitals
--------------------------------------------------------------------------------
--------------------------------------------------------------------------------
  SA-NTO decomposition ...  CPU 0.01 s  wall 0.14 s

--------------------------------------------------------------------------------
                             Excited State Summary
--------------------------------------------------------------------------------
--------------------------------------------------------------------------------

  Excited state 1 (singlet, A)                                     [converged]
  ----------------------------------------------------------------------------
  Term symbol:  2 (1) A                                     R^2 =  2.05756e-13

  Total energy:                                            -77.9867630002 a.u.
  Excitation energy:                                               8.991732 eV

  Osc. strength:                                                      0.457035
  Trans. dip. moment [a.u.]:           [  -1.037189,    0.999424,    0.007306]
  <i|r^2|0> [a.u.]:                    [  -6.150856,    0.227737,    0.005214]
  Two-photon absorption cross-section (SoS) [a.u.]:                   0.039062
  Two-photon absorption matrix (SoS) [a.u.]:
                                       |    0.061236    0.042814    0.015860 |
                                       |    0.042814    0.003141    0.014839 |
                                       |    0.015860    0.014839   -0.018309 |
  Two-photon absorption cross-section [a.u.]:                         0.028023
  Two-photon absorption matrix [a.u.]:
                                       |    0.024329    0.023981   -0.004860 |
                                       |    0.023981   -0.051601   -0.001065 |
                                       |   -0.004860   -0.001065   -0.030099 |

  Dip. moment [a.u.]:                  [  -0.005103,   -0.002201,   -0.000797]
  Total dipole [Debye]:                                               0.014270
  <r^2> [a.u.]:                        [ 178.058820,   35.629163,   11.870352]
  Total <r^2> [a.u.]:                                               225.558334

  V1^2 = 0.9713, V2^2 = 0.0287

  Important amplitudes:
      occ i     occ j     vir a      vir b          v   
    -----------------------------------------------------
     8 (A) A              9 (A) A                 0.6809
     4 (A) A             10 (A) A                 0.0629
     7 (A) A             16 (A) A                -0.0589
     6 (A) A             14 (A) A                -0.0563
     5 (A) A             13 (A) A                -0.0533
     6 (A) A             23 (A) A                 0.0470
     8 (A) A             20 (A) A                 0.0339
     3 (A) A             12 (A) A                -0.0276
     6 (A) A             19 (A) A                -0.0252
     5 (A) A             22 (A) A                -0.0220
     4 (A) A             24 (A) A                 0.0192
     6 (A) A             12 (A) A                -0.0185
     8 (A) A   8 (A) B   17 (A) A   20 (A) B     -0.0181
     3 (A) A             26 (A) A                 0.0179
     7 (A) A             11 (A) A                -0.0178
     7 (A) A              9 (A) A                 0.0178
     8 (A) A   8 (A) B    9 (A) A   28 (A) B     -0.0165
     6 (A) A             26 (A) A                -0.0163
     7 (A) A             21 (A) A                 0.0154
     3 (A) A             14 (A) A                 0.0135
     3 (A) A   4 (A) B    9 (A) A    9 (A) B     -0.0127
     3 (A) A             19 (A) A                 0.0111
     8 (A) A   8 (A) B   18 (A) A   19 (A) B     -0.0110
     7 (A) A             32 (A) A                 0.0096
     7 (A) A             36 (A) A                -0.0087
     3 (A) A             23 (A) A                -0.0078
     8 (A) A   8 (A) B   25 (A) A   29 (A) B      0.0075
     6 (A) A             40 (A) A                 0.0067
     5 (A) A   8 (A) B   11 (A) A    9 (A) B     -0.0066
     3 (A) A   6 (A) B    9 (A) A   28 (A) B      0.0063
     6 (A) A             35 (A) A                 0.0062
     5 (A) A   8 (A) B   16 (A) A    9 (A) B      0.0061
     3 (A) A             27 (A) A                -0.0060
     7 (A) A   8 (A) B   13 (A) A   20 (A) B      0.0060
     5 (A) A   8 (A) B   11 (A) A   20 (A) B      0.0060
     5 (A) A   7 (A) B    9 (A) A    9 (A) B     -0.0059
     3 (A) A   5 (A) B    9 (A) A   25 (A) B     -0.0059
     3 (A) A             40 (A) A                -0.0058
     6 (A) A             22 (A) A                -0.0058
     5 (A) A             10 (A) A                 0.0057
    -----------------------------------------------------

  Density matrix analysis:
  ------------------------
  NOs
    Occupation of frontier NOs:
       0.9496   1.0219
    Number of electrons: 16.000000
    Number of unpaired electrons: n_u =  2.31260, n_u,nl =  2.03202
    NO participation ratio (PR_NO):  2.862744
  
  
  Mulliken Population Analysis
  Atom      Charge (e)              h+              e-           Del q
  --------------------------------------------------------------------
   1 H        0.062659        0.021728       -0.012610        0.009118
   2 C       -0.130029        0.492228       -0.511218       -0.018991
   3 H        0.056975        0.021587       -0.012416        0.009170
   4 C       -0.104654        0.492675       -0.509599       -0.016924
   5 H        0.058910        0.021695       -0.012516        0.009179
   6 H        0.056140        0.021306       -0.012858        0.008448
  --------------------------------------------------------------------
  Sum:       -0.000000        1.071218       -1.071218        0.000000
  
  Multipole moment analysis of the density matrix
    Molecular charge:                      0.000000
    Number of electrons:                   16.000000
      Center of electronic charge [Ang]: [ -1.575407,  -0.065530,   0.002005]
    Total nuclear charge:                  16.000000
      Center of nuclear charge [Ang]:    [ -1.575576,  -0.065602,   0.001978]
    Dipole moment [D]:                     0.014270
      Cartesian components [D]:          [ -0.012971,  -0.005594,  -0.002025]
    RMS size of the density [Ang]:         1.208911
      Cartesian components [Ang]:        [  0.796516,   0.786943,   0.455794]
  
  Exciton analysis of the difference density matrix
    <r_h> [Ang]:                  [ -1.578362,  -0.065514,   0.002378]
    <r_e> [Ang]:                  [ -1.578676,  -0.066111,   0.002254]
    |<r_e - r_h>| [Ang]:            0.000686
    Hole size [Ang]:                1.282072
      Cartesian components [Ang]: [  0.722602,   0.716018,   0.780303]
    Electron size [Ang]:            1.464611
      Cartesian components [Ang]: [  0.844505,   0.839261,   0.852958]

  Transition density matrix analysis:
  -----------------------------------
  
  CT numbers (Mulliken)
    omega =     0.9533
    <Phe> =    -0.1529
  
  Exciton analysis of the transition density matrix
    Trans. dipole moment [D]:             1.830526
      Cartesian components [D]:         [ -1.318136,   1.270141,   0.009285]
    <r_h> [Ang]:                        [ -1.579929,  -0.065079,   0.002183]
    <r_e> [Ang]:                        [ -1.578301,  -0.066034,   0.002273]
    |<r_e - r_h>| [Ang]:                  0.001890
    Hole size [Ang]:                      1.203382
      Cartesian components [Ang]:       [  0.637600,   0.633475,   0.800189]
    Electron size [Ang]:                  1.491200
      Cartesian components [Ang]:       [  0.856427,   0.850371,   0.875830]
    RMS electron-hole separation [Ang]:   1.928965
      Cartesian components [Ang]:       [  1.086331,   1.080799,   1.171608]
    Covariance(r_h, r_e) [Ang^2]:        -0.024548
    Correlation coefficient:             -0.013680
    Center-of-mass size [Ang]:            0.951671
      Cartesian components [Ang]:       [  0.524379,   0.519789,   0.600437]

  Decomposition into state-averaged NTOs
    H- 0 -> L+ 0: -0.6700 ( 89.8%)
    H- 2 -> L+ 5: -0.0778 (  1.2%)
                   omega =  95.3%
  ----------------------------------------------------------------------------


  Excited state 2 (singlet, A)                                     [converged]
  ----------------------------------------------------------------------------
  Term symbol:  3 (1) A                                     R^2 =  7.58183e-14

  Total energy:                                            -77.9857417523 a.u.
  Excitation energy:                                               9.019521 eV

  Osc. strength:                                                      0.000616
  Trans. dip. moment [a.u.]:           [  -0.029450,    0.023773,    0.036840]
  <i|r^2|0> [a.u.]:                    [  -0.095445,    0.074551,   -0.148343]
  Two-photon absorption cross-section (SoS) [a.u.]:                   4.240635
  Two-photon absorption matrix (SoS) [a.u.]:
                                       |    0.049984    0.054195   -0.512490 |
                                       |    0.054195    0.069121   -0.504854 |
                                       |   -0.512490   -0.504854   -0.109144 |
  Two-photon absorption cross-section [a.u.]:                         0.272665
  Two-photon absorption matrix [a.u.]:
                                       |    0.007169   -0.009071    0.183270 |
                                       |   -0.009071   -0.021261   -0.005336 |
                                       |    0.183270   -0.005336    0.016228 |

  Dip. moment [a.u.]:                  [   0.038278,   -0.072685,   -0.003965]
  Total dipole [Debye]:                                               0.209043
  <r^2> [a.u.]:                        [ 176.369931,   34.322917,   13.131438]
  Total <r^2> [a.u.]:                                               223.824287

  V1^2 = 0.9553, V2^2 = 0.0447

  Important amplitudes:
      occ i     occ j     vir a      vir b          v   
    -----------------------------------------------------
     7 (A) A              9 (A) A                -0.6666
     8 (A) A             11 (A) A                 0.1451
     7 (A) A             20 (A) A                -0.0762
     8 (A) A             10 (A) A                -0.0674
     5 (A) A   8 (A) B    9 (A) A    9 (A) B      0.0300
     8 (A) A             16 (A) A                -0.0277
     8 (A) A              9 (A) A                 0.0178
     8 (A) A             21 (A) A                -0.0171
     5 (A) A             28 (A) A                 0.0147
     4 (A) A   7 (A) B    9 (A) A   19 (A) B      0.0134
     5 (A) A   7 (A) B    9 (A) A   16 (A) B      0.0132
     7 (A) A   8 (A) B   20 (A) A   17 (A) B      0.0105
     7 (A) A   8 (A) A    9 (A) A   28 (A) A     -0.0095
     5 (A) A   8 (A) B    9 (A) A   20 (A) B      0.0094
     4 (A) A   6 (A) B    9 (A) A   16 (A) B      0.0089
     6 (A) A              9 (A) A                -0.0089
     5 (A) A   6 (A) A    9 (A) A   23 (A) A     -0.0088
     6 (A) A   7 (A) B    9 (A) A   18 (A) B     -0.0085
     8 (A) A   7 (A) B    9 (A) A   28 (A) B      0.0084
     4 (A) A   5 (A) A    9 (A) A   10 (A) A      0.0083
     5 (A) A   6 (A) A    9 (A) A   14 (A) A      0.0082
     3 (A) A   7 (A) B    9 (A) A   18 (A) B     -0.0078
     5 (A) A   6 (A) B    9 (A) A   23 (A) B     -0.0078
     5 (A) A   7 (A) A    9 (A) A   16 (A) A      0.0078
     5 (A) A   6 (A) B    9 (A) A   19 (A) B      0.0076
     4 (A) A   8 (A) B    9 (A) A   25 (A) B      0.0075
     4 (A) A   7 (A) B   19 (A) A    9 (A) B      0.0073
     7 (A) A   8 (A) B   17 (A) A   20 (A) B      0.0072
     5 (A) A   5 (A) B    9 (A) A   13 (A) B      0.0071
     7 (A) A   8 (A) B   19 (A) A   18 (A) B      0.0070
     4 (A) A   5 (A) B    9 (A) A   18 (A) B     -0.0068
     5 (A) A   8 (A) A    9 (A) A   20 (A) A      0.0068
     7 (A) A   7 (A) B   20 (A) A   22 (A) B     -0.0065
     5 (A) A   7 (A) B   11 (A) A   20 (A) B     -0.0062
     4 (A) A   7 (A) A    9 (A) A   19 (A) A      0.0061
     4 (A) A   5 (A) B   10 (A) A    9 (A) B     -0.0060
     4 (A) A   7 (A) B    9 (A) A   14 (A) B     -0.0059
     7 (A) A   8 (A) B   17 (A) A    9 (A) B      0.0059
     5 (A) A             38 (A) A                 0.0058
     4 (A) A   6 (A) B   16 (A) A    9 (A) B      0.0058
    -----------------------------------------------------

  Density matrix analysis:
  ------------------------
  NOs
    Occupation of frontier NOs:
       0.9492   1.0597
    Number of electrons: 16.000000
    Number of unpaired electrons: n_u =  2.35167, n_u,nl =  2.06689
    NO participation ratio (PR_NO):  3.061435
  
  
  Mulliken Population Analysis
  Atom      Charge (e)              h+              e-           Del q
  --------------------------------------------------------------------
   1 H        0.169404        0.154905       -0.039043        0.115862
   2 C       -0.306027        0.283879       -0.478867       -0.194988
   3 H        0.143547        0.109333       -0.013591        0.095742
   4 C       -0.289075        0.259418       -0.460763       -0.201346
   5 H        0.123545        0.106861       -0.033047        0.073814
   6 H        0.158607        0.127996       -0.017080        0.110916
  --------------------------------------------------------------------
  Sum:       -0.000000        1.042391       -1.042391        0.000000
  
  Multipole moment analysis of the density matrix
    Molecular charge:                      -0.000000
    Number of electrons:                   16.000000
      Center of electronic charge [Ang]: [ -1.576842,  -0.063198,   0.002109]
    Total nuclear charge:                  16.000000
      Center of nuclear charge [Ang]:    [ -1.575576,  -0.065602,   0.001978]
    Dipole moment [D]:                     0.209043
      Cartesian components [D]:          [  0.097294,  -0.184747,  -0.010077]
    RMS size of the density [Ang]:         1.194527
      Cartesian components [Ang]:        [  0.774827,   0.772475,   0.479395]
  
  Exciton analysis of the difference density matrix
    <r_h> [Ang]:                  [ -1.516619,  -0.081128,   0.003565]
    <r_e> [Ang]:                  [ -1.538965,  -0.045960,   0.005047]
    |<r_e - r_h>| [Ang]:            0.041693
    Hole size [Ang]:                1.487310
      Cartesian components [Ang]: [  1.053995,   0.942994,   0.460376]
    Electron size [Ang]:            1.482826
      Cartesian components [Ang]: [  0.886713,   0.860149,   0.820158]

  Transition density matrix analysis:
  -----------------------------------
  
  CT numbers (Mulliken)
    omega =     0.9238
    <Phe> =    -0.0114
  
  Exciton analysis of the transition density matrix
    Trans. dipole moment [D]:             0.067123
      Cartesian components [D]:         [ -0.037427,   0.030212,   0.046819]
    <r_h> [Ang]:                        [ -1.509182,  -0.084770,   0.003694]
    <r_e> [Ang]:                        [ -1.543340,  -0.041877,   0.005217]
    |<r_e - r_h>| [Ang]:                  0.054854
    Hole size [Ang]:                      1.514060
      Cartesian components [Ang]:       [  1.081519,   0.959041,   0.450483]
    Electron size [Ang]:                  1.480279
      Cartesian components [Ang]:       [  0.876492,   0.851517,   0.835408]
    RMS electron-hole separation [Ang]:   2.099446
      Cartesian components [Ang]:       [  1.378519,   1.268076,   0.948336]
    Covariance(r_h, r_e) [Ang^2]:         0.039470
    Correlation coefficient:              0.017611
    Center-of-mass size [Ang]:            1.068006
      Cartesian components [Ang]:       [  0.702975,   0.648750,   0.474959]

  Decomposition into state-averaged NTOs
    H- 1 -> L+ 0:  0.6593 ( 86.9%)
    H- 0 -> L+ 2:  0.1523 (  4.6%)
                   omega =  92.4%
  ----------------------------------------------------------------------------


  Excited state 3 (singlet, A)                                     [converged]
  ----------------------------------------------------------------------------
  Term symbol:  4 (1) A                                     R^2 =  9.61086e-14

  Total energy:                                            -77.9759263306 a.u.
  Excitation energy:                                               9.286613 eV

  Osc. strength:                                                      0.023266
  Trans. dip. moment [a.u.]:           [   0.008777,    0.024983,   -0.318682]
  <i|r^2|0> [a.u.]:                    [   0.060209,    0.010617,   -0.009163]
  Two-photon absorption cross-section (SoS) [a.u.]:                   0.638955
  Two-photon absorption matrix (SoS) [a.u.]:
                                       |   -0.011249   -0.019303    0.218485 |
                                       |   -0.019303   -0.032061    0.174638 |
                                       |    0.218485    0.174638    0.036724 |
  Two-photon absorption cross-section [a.u.]:                         0.417989
  Two-photon absorption matrix [a.u.]:
                                       |   -0.015342   -0.014998    0.192369 |
                                       |   -0.014998   -0.023696    0.118990 |
                                       |    0.192369    0.118990    0.029622 |

  Dip. moment [a.u.]:                  [  -0.382446,   -0.213849,   -0.030044]
  Total dipole [Debye]:                                               1.116341
  <r^2> [a.u.]:                        [ 180.645112,   40.257849,   11.018459]
  Total <r^2> [a.u.]:                                               231.921420

  V1^2 = 0.9581, V2^2 = 0.0419

  Important amplitudes:
      occ i     occ j     vir a      vir b          v   
    -----------------------------------------------------
     8 (A) A             10 (A) A                 0.6836
     7 (A) A              9 (A) A                -0.0762
     8 (A) A             24 (A) A                 0.0499
     8 (A) A             11 (A) A                -0.0331
     8 (A) A             18 (A) A                -0.0316
     4 (A) A              9 (A) A                 0.0243
     8 (A) A   8 (A) B    9 (A) A   12 (A) B     -0.0211
     8 (A) A   8 (A) B   10 (A) A   17 (A) B      0.0175
     5 (A) A   8 (A) B   11 (A) A   10 (A) B     -0.0168
     8 (A) A             15 (A) A                -0.0145
     7 (A) A   8 (A) B   13 (A) A   10 (A) B     -0.0142
     6 (A) A   8 (A) A   10 (A) A   15 (A) A     -0.0112
     4 (A) A   8 (A) B   12 (A) A   10 (A) B     -0.0111
     6 (A) A   8 (A) B   15 (A) A   10 (A) B      0.0109
     7 (A) A   8 (A) B   22 (A) A   10 (A) B     -0.0108
     4 (A) A   8 (A) A   10 (A) A   12 (A) A      0.0107
     8 (A) A             13 (A) A                -0.0105
     7 (A) A   8 (A) A   10 (A) A   22 (A) A      0.0099
     7 (A) A   8 (A) A   10 (A) A   13 (A) A      0.0098
     5 (A) A   8 (A) A   10 (A) A   11 (A) A      0.0098
     8 (A) A             21 (A) A                 0.0096
     5 (A) A   8 (A) B   21 (A) A   10 (A) B      0.0093
     6 (A) A   8 (A) B   10 (A) A   10 (A) B      0.0091
     8 (A) A             16 (A) A                 0.0085
     7 (A) A   8 (A) A   12 (A) A   16 (A) A      0.0082
     7 (A) A             20 (A) A                -0.0082
     6 (A) A   8 (A) A   10 (A) A   18 (A) A      0.0082
     5 (A) A   8 (A) A   10 (A) A   21 (A) A     -0.0079
     3 (A) A   4 (A) B   10 (A) A    9 (A) B     -0.0078
     4 (A) A   8 (A) B   19 (A) A   10 (A) B      0.0075
     8 (A) A   8 (A) B   10 (A) A   28 (A) B     -0.0071
     7 (A) A   8 (A) B   16 (A) A   12 (A) B     -0.0071
     8 (A) A   8 (A) B    9 (A) A   19 (A) B      0.0071
     5 (A) A   8 (A) B   10 (A) A   11 (A) B     -0.0070
     3 (A) A   8 (A) B   10 (A) A   10 (A) B      0.0070
     3 (A) A   8 (A) A   10 (A) A   24 (A) A     -0.0070
     8 (A) A   8 (A) B    9 (A) A   23 (A) B      0.0069
     3 (A) A   8 (A) B   10 (A) A   18 (A) B     -0.0068
     6 (A) A   8 (A) B   18 (A) A   10 (A) B     -0.0062
     3 (A) A   6 (A) B   10 (A) A   28 (A) B      0.0060
    -----------------------------------------------------

  Density matrix analysis:
  ------------------------
  NOs
    Occupation of frontier NOs:
       0.9733   0.9938
    Number of electrons: 16.000000
    Number of unpaired electrons: n_u =  2.30969, n_u,nl =  2.03009
    NO participation ratio (PR_NO):  2.745350
  
  
  Mulliken Population Analysis
  Atom      Charge (e)              h+              e-           Del q
  --------------------------------------------------------------------
   1 H       -0.216237        0.055482       -0.325260       -0.269778
   2 C        0.306275        0.533967       -0.116653        0.417314
   3 H       -0.119099        0.055901       -0.222805       -0.166904
   4 C        0.320604        0.520723       -0.112389        0.408334
   5 H       -0.189509        0.054131       -0.293370       -0.239239
   6 H       -0.102035        0.057071       -0.206798       -0.149727
  --------------------------------------------------------------------
  Sum:       -0.000000        1.277275       -1.277275        0.000000
  
  Multipole moment analysis of the density matrix
    Molecular charge:                      0.000000
    Number of electrons:                   16.000000
      Center of electronic charge [Ang]: [ -1.562927,  -0.058530,   0.002972]
    Total nuclear charge:                  16.000000
      Center of nuclear charge [Ang]:    [ -1.575576,  -0.065602,   0.001978]
    Dipole moment [D]:                     1.116341
      Cartesian components [D]:          [ -0.972079,  -0.543550,  -0.076364]
    RMS size of the density [Ang]:         1.269985
      Cartesian components [Ang]:        [  0.847862,   0.837352,   0.439129]
  
  Exciton analysis of the difference density matrix
    <r_h> [Ang]:                  [ -1.567385,  -0.066686,   0.002487]
    <r_e> [Ang]:                  [ -1.411314,   0.020499,   0.014501]
    |<r_e - r_h>| [Ang]:            0.179175
    Hole size [Ang]:                1.407161
      Cartesian components [Ang]: [  0.831407,   0.821703,   0.783370]
    Electron size [Ang]:            2.065245
      Cartesian components [Ang]: [  1.372657,   1.361922,   0.725408]

  Transition density matrix analysis:
  -----------------------------------
  
  CT numbers (Mulliken)
    omega =     0.9262
    <Phe> =    -0.0112
  
  Exciton analysis of the transition density matrix
    Trans. dipole moment [D]:             0.406400
      Cartesian components [D]:         [  0.011155,   0.031751,  -0.405004]
    <r_h> [Ang]:                        [ -1.583532,  -0.069362,   0.001718]
    <r_e> [Ang]:                        [ -1.357946,   0.049933,   0.018624]
    |<r_e - r_h>| [Ang]:                  0.255747
    Hole size [Ang]:                      1.205185
      Cartesian components [Ang]:       [  0.629757,   0.626179,   0.814726]
    Electron size [Ang]:                  2.270762
      Cartesian components [Ang]:       [  1.508228,   1.497266,   0.799875]
    RMS electron-hole separation [Ang]:   2.573450
      Cartesian components [Ang]:       [  1.642487,   1.620095,   1.140250]
    Covariance(r_h, r_e) [Ang^2]:         0.025797
    Correlation coefficient:              0.009426
    Center-of-mass size [Ang]:            1.290390
      Cartesian components [Ang]:       [  0.820947,   0.815067,   0.571680]

  Decomposition into state-averaged NTOs
    H- 0 -> L+ 1: -0.6652 ( 88.5%)
    H- 0 -> L+ 2: -0.1181 (  2.8%)
    H- 1 -> L+ 0:  0.0754 (  1.1%)
                   omega =  92.6%
  ----------------------------------------------------------------------------


  Excited state 4 (singlet, A)                                     [converged]
  ----------------------------------------------------------------------------
  Term symbol:  5 (1) A                                     R^2 =  1.43087e-13

  Total energy:                                            -77.9552894334 a.u.
  Excitation energy:                                               9.848171 eV

  Osc. strength:                                                      0.000820
  Trans. dip. moment [a.u.]:           [   0.004331,    0.002152,   -0.058097]
  <i|r^2|0> [a.u.]:                    [   0.040577,    0.020645,   -0.034399]
  Two-photon absorption cross-section (SoS) [a.u.]:                 129.125267
  Two-photon absorption matrix (SoS) [a.u.]:
                                       |    0.277527    0.298153   -2.837235 |
                                       |    0.298153    0.330870   -2.779587 |
                                       |   -2.837235   -2.779587   -0.604152 |
  Two-photon absorption cross-section [a.u.]:                        75.051379
  Two-photon absorption matrix [a.u.]:
                                       |    0.248175    0.231925   -2.215304 |
                                       |    0.231925    0.213831   -2.064233 |
                                       |   -2.215304   -2.064233   -0.459007 |

  Dip. moment [a.u.]:                  [   0.354095,    0.375611,    0.039966]
  Total dipole [Debye]:                                               1.315987
  <r^2> [a.u.]:                        [ 185.810318,   40.005840,   10.713732]
  Total <r^2> [a.u.]:                                               236.529890

  V1^2 = 0.9634, V2^2 = 0.0366

  Important amplitudes:
      occ i     occ j     vir a      vir b          v   
    -----------------------------------------------------
     8 (A) A             11 (A) A                 0.6693
     7 (A) A              9 (A) A                 0.1429
     8 (A) A             21 (A) A                -0.0767
     8 (A) A             16 (A) A                -0.0669
     8 (A) A             10 (A) A                 0.0493
     5 (A) A   8 (A) B   11 (A) A   11 (A) B     -0.0160
     8 (A) A   8 (A) B    9 (A) A   13 (A) B      0.0158
     8 (A) A   8 (A) B   11 (A) A   17 (A) B      0.0141
     7 (A) A             20 (A) A                 0.0129
     7 (A) A   8 (A) B   13 (A) A   11 (A) B     -0.0128
     4 (A) A   8 (A) B   12 (A) A   11 (A) B     -0.0110
     5 (A) A   8 (A) A   11 (A) A   21 (A) A     -0.0109
     8 (A) A   8 (A) B    9 (A) A   22 (A) B      0.0105
     7 (A) A   8 (A) A   11 (A) A   22 (A) A      0.0095
     6 (A) A   8 (A) B   15 (A) A   11 (A) B      0.0092
     6 (A) A   8 (A) B   10 (A) A   11 (A) B      0.0090
     7 (A) A   8 (A) B   22 (A) A   11 (A) B     -0.0090
     8 (A) A             19 (A) A                -0.0088
     8 (A) A             24 (A) A                 0.0083
     3 (A) A   4 (A) B   11 (A) A    9 (A) B     -0.0082
     6 (A) A   8 (A) A   11 (A) A   15 (A) A     -0.0082
     3 (A) A   8 (A) B   11 (A) A   18 (A) B     -0.0081
     7 (A) A   8 (A) A   13 (A) A   16 (A) A     -0.0078
     7 (A) A   8 (A) A   11 (A) A   13 (A) A      0.0075
     4 (A) A   8 (A) B   19 (A) A   11 (A) B      0.0072
     5 (A) A   8 (A) B   21 (A) A   11 (A) B      0.0070
     8 (A) A             14 (A) A                 0.0069
     4 (A) A   8 (A) A   11 (A) A   12 (A) A      0.0063
     8 (A) A             13 (A) A                 0.0062
     5 (A) A   8 (A) B    9 (A) A    9 (A) B     -0.0061
     3 (A) A   6 (A) B   11 (A) A   28 (A) B      0.0059
     3 (A) A   8 (A) B   11 (A) A   30 (A) B     -0.0057
     6 (A) A   8 (A) A   11 (A) A   18 (A) A      0.0057
     6 (A) A   8 (A) B   18 (A) A   11 (A) B     -0.0056
     7 (A) A   8 (A) B   16 (A) A   13 (A) B      0.0056
     3 (A) A   8 (A) A   11 (A) A   18 (A) A     -0.0056
     3 (A) A   5 (A) B   11 (A) A   25 (A) B     -0.0055
     8 (A) A   8 (A) B   20 (A) A   22 (A) B      0.0054
     7 (A) A   8 (A) B   11 (A) A   13 (A) B     -0.0053
     7 (A) A   8 (A) B   12 (A) A   10 (A) B      0.0053
    -----------------------------------------------------

  Density matrix analysis:
  ------------------------
  NOs
    Occupation of frontier NOs:
       0.9457   1.0237
    Number of electrons: 16.000000
    Number of unpaired electrons: n_u =  2.31697, n_u,nl =  2.04568
    NO participation ratio (PR_NO):  2.884170
  
  
  Mulliken Population Analysis
  Atom      Charge (e)              h+              e-           Del q
  --------------------------------------------------------------------
   1 H       -0.084797        0.046806       -0.185145       -0.138339
   2 C        0.257646        0.501551       -0.132866        0.368685
   3 H       -0.180463        0.046003       -0.274271       -0.228268
   4 C        0.287986        0.500023       -0.124307        0.375716
   5 H       -0.045501        0.044367       -0.139599       -0.095232
   6 H       -0.234871        0.047072       -0.329635       -0.282562
  --------------------------------------------------------------------
  Sum:       -0.000000        1.185823       -1.185823        0.000000
  
  Multipole moment analysis of the density matrix
    Molecular charge:                      0.000000
    Number of electrons:                   16.000000
      Center of electronic charge [Ang]: [ -1.587287,  -0.078025,   0.000656]
    Total nuclear charge:                  16.000000
      Center of nuclear charge [Ang]:    [ -1.575576,  -0.065602,   0.001978]
    Dipole moment [D]:                     1.315987
      Cartesian components [D]:          [  0.900018,   0.954709,   0.101584]
    RMS size of the density [Ang]:         1.270482
      Cartesian components [Ang]:        [  0.855880,   0.833118,   0.433023]
  
  Exciton analysis of the difference density matrix
    <r_h> [Ang]:                  [ -1.586118,  -0.077195,   0.000996]
    <r_e> [Ang]:                  [ -1.746695,  -0.246335,  -0.017306]
    |<r_e - r_h>| [Ang]:            0.233940
    Hole size [Ang]:                1.384953
      Cartesian components [Ang]: [  0.814584,   0.796817,   0.787167]
    Electron size [Ang]:            2.091098
      Cartesian components [Ang]: [  1.460252,   1.336771,   0.673348]

  Transition density matrix analysis:
  -----------------------------------
  
  CT numbers (Mulliken)
    omega =     0.9305
    <Phe> =    -0.0143
  
  Exciton analysis of the transition density matrix
    Trans. dipole moment [D]:             0.074089
      Cartesian components [D]:         [  0.005504,   0.002734,  -0.073834]
    <r_h> [Ang]:                        [ -1.576687,  -0.066373,   0.002197]
    <r_e> [Ang]:                        [ -1.778694,  -0.283080,  -0.021101]
    |<r_e - r_h>| [Ang]:                  0.297173
    Hole size [Ang]:                      1.214797
      Cartesian components [Ang]:       [  0.649552,   0.637535,   0.804589]
    Electron size [Ang]:                  2.227279
      Cartesian components [Ang]:       [  1.559398,   1.420099,   0.715799]
    RMS electron-hole separation [Ang]:   2.543631
      Cartesian components [Ang]:       [  1.692223,   1.564384,   1.076635]
    Covariance(r_h, r_e) [Ang^2]:         0.027379
    Correlation coefficient:              0.010119
    Center-of-mass size [Ang]:            1.273898
      Cartesian components [Ang]:       [  0.849186,   0.781973,   0.538717]

  Decomposition into state-averaged NTOs
    H- 0 -> L+ 2:  0.6521 ( 85.1%)
    H- 1 -> L+ 0: -0.1410 (  4.0%)
    H- 0 -> L+ 1: -0.1323 (  3.5%)
                   omega =  93.1%
  ----------------------------------------------------------------------------


  Excited state 5 (singlet, A)                                     [converged]
  ----------------------------------------------------------------------------
  Term symbol:  6 (1) A                                     R^2 =  1.93778e-13

  Total energy:                                            -77.9357380079 a.u.
  Excitation energy:                                              10.380192 eV

[...]
    16   -1.193170686630e-03
    17   -1.939432701223e-03
    18    2.606709645515e-03
    19   -2.769453778346e-03
    20    6.895637302751e-03
    21    9.188301442550e-01
    22   -7.192831658034e-04
    23    1.407525596360e-02
    24    8.567982099321e-04
    25    6.730358203543e-02
    26   -4.737178810521e-02
    27   -1.377588520313e+00
    28    8.980682597538e-02
    29   -1.013426052289e-01
    30   -2.649184302470e-03
    31    3.400501611578e-01
    32   -3.890555849508e-01
    33   -1.033093246482e-02
    34    1.479991407909e-02
    35   -1.336728646011e-03
    36   -1.736865680095e-03
    37   -1.662875725048e-04
    38   -2.793537453066e-03
    39    1.457220913775e-02
    40    9.762653010098e-01
    41    2.554216477063e-04
    42   -1.454145121559e-02
    43   -8.987254099967e-04
    44    3.955144393087e-03
    45    8.359500578022e-01
    46    1.275962193831e-02
    47   -1.027643657497e-04
    48    5.633805560325e-04
Sym=X
Ene= 0.230442
Spin=Alpha
Occup=0
     1   -3.500711577285e-02
     2   -1.141970730139e+00
     3    1.262877952534e-02
     4    2.696602246324e-03
     5    7.354956780286e-04
     6   -1.134821413702e-03
     7    2.039958292660e-04
     8   -7.406065062684e-03
     9    1.587116164639e-01
    10    1.621344605504e-01
    11    1.699972958060e-02
    12    4.917847047831e-01
    13    5.758951867050e-01
    14    5.702856872847e-02
    15   -6.896667825833e-05
    16   -1.441963140931e-04
    17   -1.850332375710e-06
    18   -1.291232567690e-03
    19   -1.968151269854e-04
    20    2.475270564346e-02
    21    1.170245018156e+00
    22    2.754516943350e-03
    23    1.354047436070e-02
    24    9.397924801241e-04
    25    9.561248365976e-03
    26   -5.586139230350e-03
    27   -2.275105491280e-01
    28    1.643498440605e-01
    29    1.468187618792e-01
    30    1.665028021573e-02
    31    5.627490351506e-01
    32    5.294922688010e-01
    33    5.853601432367e-02
    34    3.560850846022e-03
    35   -1.744366591010e-04
    36   -5.594316599971e-04
    37    3.261027550047e-03
    38   -1.554176162471e-03
    39   -2.920803692656e-02
    40   -1.050445691559e+00
    41    2.300953826672e-03
    42    1.074641202424e-02
    43    7.681825141393e-04
    44    3.188781013374e-02
    45    1.317067063806e+00
    46    1.587829673423e-02
    47    3.594781974454e-03
    48    9.624631850753e-04
Sym=X
Ene= 0.238617
Spin=Alpha
Occup=0
     1   -1.563396681097e-02
     2   -9.501099620528e-01
     3    1.395483415480e-02
     4    9.539237721429e-03
     5    1.189444433776e-03
     6   -8.375518744832e-02
     7    7.789086056648e-02
     8    1.503811083880e+00
     9    5.412792670968e-02
    10   -6.482938455966e-02
    11   -1.884635263743e-03
    12    2.145439058861e-01
    13   -2.807807179924e-01
    14   -8.530612388036e-03
    15   -2.138520984391e-02
    16    2.375161007067e-03
    17    2.936759069458e-03
    18   -2.045388337769e-03
    19    1.209298329319e-02
    20   -1.951455635474e-02
    21   -1.170413115759e+00
    22   -8.467116111852e-03
    23   -1.834258606905e-02
    24   -1.538494003724e-03
    25    8.713401062809e-02
    26   -8.200350396723e-02
    27   -1.585352261513e+00
    28    5.049245407737e-02
    29   -6.976218526239e-02
    30   -1.801770241068e-03
    31    2.285198891266e-01
    32   -2.818065304696e-01
    33   -5.772910758383e-03
    34    2.298075181746e-02
    35   -2.665455633171e-03
    36   -3.028708935764e-03
    37    9.109684632524e-04
    38   -1.294033745872e-02
    39    1.541787370721e-02
    40    1.189767397862e+00
    41   -8.674818829799e-03
    42   -1.849640802927e-02
    43   -1.521451431248e-03
    44    1.587127639444e-02
    45    1.035509936371e+00
    46    1.641311500504e-02
    47    9.042471804329e-03
    48    1.309121095559e-03
Sym=X
Ene= 0.304771
Spin=Alpha
Occup=0
     1    1.357977570420e-02
     2   -1.617740713667e+00
     3    2.280972898456e-02
     4   -1.717914339654e-03
     5    9.766680584650e-04
     6   -3.597653707593e-04
     7    9.700076898861e-04
     8   -7.273108250986e-02
     9    1.342683069497e-01
    10    1.412740288884e-01
    11    1.469089531641e-02
    12    1.131592156179e+00
    13    1.211974807424e+00
    14    1.255306755996e-01
    15    1.112724209069e-03
    16    1.316622493610e-03
    17   -2.122939843439e-03
    18    3.193558999423e-02
    19   -4.301231784713e-04
    20   -2.497946487140e-02
    21    1.710876072950e+00
    22   -1.478527127750e-03
    23    2.318057826362e-02
    24    1.297693915790e-03
    25    4.763785344073e-04
    26    3.255687887229e-04
    27   -3.878946248706e-02
    28   -1.322900183601e-01
    29   -1.412395861493e-01
    30   -1.471170059906e-02
    31   -1.177978534558e+00
    32   -1.211790740048e+00
    33   -1.280872278167e-01
    34    3.088093596255e-04
    35    1.627759685884e-03
    36   -2.056509584315e-03
    37    3.429680104055e-02
    38    5.043255353638e-04
    39   -2.686643418183e-02
    40    1.720173594422e+00
    41    1.474449590990e-03
    42   -2.357353298984e-02
    43   -1.305650453340e-03
    44    2.323083172179e-02
    45   -1.692605546208e+00
    46   -2.318474241465e-02
    47    1.315372098703e-03
    48   -1.051232461589e-03
Sym=X
Ene= 0.468314
Spin=Alpha
Occup=0
     1   -1.270369753312e-01
     2   -6.356908929364e-01
     3   -1.825739385156e-02
     4   -6.570883712455e-03
     5   -1.269133900512e-03
     6    6.137110418818e-02
     7    1.770198030608e-02
     8   -4.010916857919e+00
     9    1.044982219954e-01
    10   -9.571982417886e-02
    11   -1.587552148653e-03
    12    2.461994305360e+00
    13   -2.478180571424e+00
    14   -2.622306437972e-02
    15    5.577176488063e-02
    16   -3.297072726487e-03
    17   -4.372241580435e-03
    18   -3.075276915793e-03
    19    2.443012350377e-02
    20   -8.606086730974e-02
    21   -8.082007004972e-01
    22    1.042839066226e-02
    23    1.704320188550e-02
    24    1.481742130627e-03
    25   -5.998264727386e-02
    26   -2.465394554060e-02
    27    3.971156827108e+00
    28    8.968224257840e-02
    29   -8.636236428177e-02
    30   -1.463906414997e-03
    31    2.529161473983e+00
    32   -2.477483374069e+00
    33   -2.173308051761e-02
    34   -5.899557078733e-02
    35    3.876162817153e-03
    36    5.082452268090e-03
    37    2.279561765918e-03
    38   -1.889339640049e-02
    39    1.135909077852e-01
    40    7.385043975514e-01
    41    1.084282675227e-02
    42    1.772596777408e-02
    43    1.563793020147e-03
    44    1.397494667880e-01
    45    7.039480519565e-01
    46   -1.912733801976e-02
    47   -8.327423370770e-03
    48   -1.422186904812e-03
Sym=X
Ene= 0.573548
Spin=Alpha
Occup=0
     1   -2.320664298322e-01
     2   -3.495336584675e-02
     3    2.309639882694e-02
     4   -2.927287500067e-02
     5   -6.594878296644e-04
     6    1.126895444902e-02
     7    1.864597162295e-01
     8    2.312583024153e-01
     9   -3.036577694323e-01
    10    2.802934211307e-01
    11    1.568051763766e-03
    12    8.575762518185e-01
    13   -8.377433302430e-01
    14   -9.148660915685e-03
    15    3.296862051574e-03
    16   -3.664789519574e-03
    17   -2.523218576282e-03
    18   -5.653310623518e-03
    19   -5.262771975034e-02
    20   -2.098784163534e-01
    21   -1.473952980624e-01
    22    2.653923031067e-02
    23   -2.101405690305e-02
    24   -1.318657425517e-05
    25    4.884460264518e-03
    26    1.808123939157e-01
    27    5.776167154865e-01
    28    3.117683603211e-01
    29   -2.909732002303e-01
    30   -2.049003641745e-03
    31   -6.650897480128e-01
    32    6.168363029404e-01
    33    5.429406584129e-03
    34    1.674290008963e-03
    35   -3.576200664717e-03
    36   -2.320020597349e-03
    37   -6.066845355082e-03
    38   -5.263485387583e-02
    39   -2.133464398020e-01
    40   -4.119569698212e-02
    41   -2.391462454742e-02
    42    2.080667434476e-02
    43    9.775029805388e-05
    44   -2.392392444784e-01
    45    1.079579802322e-02
    46   -1.834938821123e-02
    47    2.445168784651e-02
    48    5.753505476831e-04
Sym=X
Ene= 0.614079
Spin=Alpha
Occup=0
     1    5.309912304681e-01
     2   -3.548104747310e-01
     3    6.221809911858e-02
     4   -3.904500479944e-02
     5    5.715123715508e-04
     6   -1.641516539969e-03
     7   -1.344842619021e-02
     8   -8.136103114094e-02
     9    1.858331985005e-02
    10    3.924666789218e-02
    11    3.138174569387e-03
    12   -1.080925378731e-01
    13   -3.796488032839e-01
    14   -2.730050099944e-02
    15    4.878817012601e-04
    16    7.845125048434e-03
    17   -8.882081517269e-03
    18    1.547923116744e-01
    19    1.347904801702e-02
    20   -5.316597269661e-01
    21    2.096223546580e-01
    22   -3.771744896159e-02
    23    6.187620361535e-02
    24    1.950741494832e-03
    25    1.792206388446e-03
    26   -4.109581694297e-04
    27    1.488111188324e-01
    28    3.044028440818e-02
    29    3.995987487943e-02
    30    3.652165841016e-03
    31   -1.608527548536e-01
    32   -3.893882715799e-01
    33   -3.067699293992e-02
    34   -8.141430647977e-03
    35   -6.614677876397e-03
    36    9.237366255544e-03
    37   -1.457226148766e-01
    38   -6.856655964864e-03
    39    5.370420939395e-01
    40   -1.887518291347e-01
    41   -3.824261896168e-02
    42    6.223246498972e-02
    43    1.858302759696e-03
    44   -4.823949486136e-01
    45    2.368968710936e-01
    46    5.846538226875e-02
    47   -4.045178910383e-02
    48    3.745687425254e-04
Sym=X
Ene= 0.682625
Spin=Alpha
Occup=0
     1    2.248775901069e-04
     2    2.210051955185e-03
     3    3.744305584081e-04
     4    8.812572125130e-04
     5   -1.361801722004e-02
     6   -1.265494260904e-05
     7   -1.085060120374e-03
     8    3.391269664591e-03
     9    3.168288609837e-02
    10    3.901010298626e-02
    11   -6.634286882906e-01
    12   -3.284901424043e-02
    13   -3.211390216439e-02
    14    6.113416996296e-01
    15   -1.147975031238e-03
    16    8.088804025004e-02
    17   -8.073657531951e-02
    18   -8.679620340322e-03
    19   -6.810222553143e-04
    20    3.967901478087e-04
    21    2.246544678616e-03
    22    9.280823134003e-04
    23    1.550480642974e-03
    24   -2.169147408631e-02
    25   -7.099458287600e-05
    26   -1.003536538675e-04
    27   -2.497402663204e-03
    28    3.143591656729e-02
    29    3.950865523660e-02
    30   -6.622987304380e-01
    31   -3.287131194586e-02
    32   -3.290838509077e-02
    33    6.131078639216e-01
    34    1.537500196050e-03
    35   -8.136458959992e-02
    36    8.058792983074e-02
    37    8.645094640730e-03
    38    5.576406260763e-04
    39   -1.354830733632e-03
    40   -1.638878926552e-03
    41    8.128818630001e-04
    42    1.161028864263e-03
    43   -1.997337822746e-02
    44   -1.286847430928e-03
    45   -1.443261650530e-03
    46    9.734656282724e-04
    47    1.361038422847e-03
    48   -1.990969358971e-02
Sym=X
Ene= 0.706717
Spin=Alpha
Occup=0
     1   -5.167152439888e-01
     2    2.137490468657e-01
     3   -7.708555677313e-02
     4   -4.754228163333e-02
     5   -6.589297867039e-03
     6   -4.737333026581e-02
     7   -2.965954305738e-01
     8    4.183892228049e-01
     9    1.932543153592e-01
    10   -1.609365483160e-01
    11    5.400182824947e-04
    12   -2.995521832546e-02
    13   -3.658844520971e-02
    14   -6.805797881787e-03
    15    1.981318259569e-01
    16   -2.083552091210e-02
    17   -2.429171848495e-02
    18    5.088176415626e-03
    19   -7.709406777395e-02
    20   -5.041621341762e-01
    21    1.062961151053e-01
    22    3.892473463366e-02
    23    8.380600657775e-02
    24    6.698222006426e-03
    25   -4.518268667895e-02
    26   -3.198335635926e-01
    27    5.922851241774e-01
    28   -1.766497786860e-01
    29    1.851425378733e-01
    30    3.242317747975e-03
    31    4.102704353739e-02
    32   -1.050623969005e-01
    33   -2.695610724413e-03
    34    1.839923248744e-01
    35   -2.015600247624e-02
    36   -2.301453529470e-02
    37    1.992085328393e-03
    38   -8.220569492247e-02
    39   -4.531625737183e-01
    40    1.495294550011e-01
    41   -4.277447670684e-02
    42   -7.623430423381e-02
    43   -6.405167952777e-03
    44   -4.909205576027e-01
    45    1.193303995694e-01
    46    7.317370769871e-02
    47    4.313891901279e-02
    48    6.208083285803e-03
Sym=X
Ene= 0.789661
Spin=Alpha
Occup=0
     1    5.633442214682e-01
     2   -6.546036073067e-01
     3    1.218833320987e-01
     4    3.138661626200e-02
     5    7.596372415706e-03
     6    8.778968234884e-02
     7   -2.515501604096e-01
     8   -7.543693126990e-01
     9    3.474178337223e-02
    10   -1.284220961460e-01
    11   -6.419546643637e-03
    12    5.209015470974e-01
    13   -3.050023857810e-01
    14    8.990771840123e-03
    15   -1.948206654854e-01
    16    1.737146872895e-02
    17    2.014409921115e-02
    18    1.545875893442e-02
    19    1.552785193955e-02
    20    4.993870419405e-01
    21   -4.011394703663e-01
    22   -2.181694062994e-02
    23   -9.901052897660e-02
    24   -6.880576222274e-03
    25   -9.234966271450e-02
    26    1.862266660087e-01
    27    8.289927776280e-01
    28    5.915872184284e-02
    29   -7.760250751245e-02
    30   -3.250496387364e-04
    31    4.379918299613e-01
    32   -4.195948542201e-01
    33   -5.394207824007e-03
    34    2.134632890470e-01
    35   -1.970715925627e-02
    36   -2.261302099580e-02
    37   -1.067844589553e-02
    38   -2.401186757089e-02
    39   -5.429566653992e-01
    40    4.935668436504e-01
    41   -2.316989904329e-02
    42   -1.137185937381e-01
    43   -7.801201463384e-03
    44   -5.499979835443e-01
    45    5.392648304294e-01
    46    1.223793397407e-01
    47    3.262504192863e-02
    48    7.824655596669e-03
Sym=X
Ene= 0.810982
Spin=Alpha
Occup=0
     1    6.904599883320e-04
     2   -1.131719401566e-03
     3   -9.417919715871e-04
     4   -1.797894897557e-03
     5    2.878837602799e-02
     6    8.111004539820e-05
     7    6.105243709715e-04
     8   -1.163960022531e-03
     9   -3.631939744121e-02
    10   -4.520323987406e-02
    11    7.638936735646e-01
    12    5.545902388463e-02
    13    6.648071872344e-02
    14   -1.140741548747e+00
    15   -1.573092767095e-03
    16    7.192368061613e-02
    17   -7.117424285556e-02
    18   -7.680047171376e-03
    19   -7.427117242549e-04
    20    6.410092795529e-04
    21   -1.110966087194e-03
    22   -1.505238000676e-03
    23   -2.403980681107e-03
    24    3.374711358814e-02
    25   -1.648318786023e-04
    26    1.108357599786e-03
    27    1.998340769308e-04
    28    3.714971713227e-02
    29    4.480493150137e-02
    30   -7.631476979248e-01
    31   -5.493934543478e-02
    32   -6.794231782418e-02
    33    1.142484572477e+00
    34   -8.880786630020e-04
    35    7.173248538228e-02
    36   -7.135939187561e-02
    37   -7.583268912211e-03
    38   -6.063276622873e-04
    39   -6.793083274123e-04
    40    9.570763418911e-04
    41    1.554354136603e-03
    42    1.930543562118e-03
    43   -3.369687426341e-02
    44   -6.677283841011e-04
    45    3.487322804649e-04
    46    1.715336047736e-03
    47    2.164880998825e-03
    48   -3.612279746627e-02
Sym=X
Ene= 0.856138
Spin=Alpha
Occup=0
     1   -2.690448413558e-02
     2   -1.078456000900e+00
     3    1.414614407198e-01
     4    5.362539219275e-02
     5    9.633846711246e-03
     6   -9.186300474286e-03
     7   -1.654543446308e-02
     8    1.909420229477e-02
     9   -4.495777299331e-01
    10   -4.196114316368e-01
    11   -4.595344890727e-02
    12    9.861913287252e-01
    13    1.004288085286e+00
    14    1.056710916083e-01
    15    2.829231216869e-02
    16    9.461637479351e-03
    17   -1.591450501254e-02
    18    2.300931764829e-01
    19    1.766774574807e-02
    20   -4.156861293919e-02
    21    1.111997376262e+00
    22    4.207717312410e-02
    23    1.598348685991e-01
    24    1.167770893707e-02
    25    6.345264065149e-03
    26   -4.335608016548e-02
    27    2.214469892207e-02
    28   -4.096737527305e-01
    29   -3.899124530528e-01
    30   -4.287953361055e-02
    31    9.326665598692e-01
    32    9.538302168242e-01
    33    1.015991464519e-01
    34   -1.358364822216e-02
    35   -1.038553456297e-02
    36    1.406535969097e-02
    37   -2.245833153109e-01
    38   -1.701382794855e-02
    39    2.010026124296e-02
    40   -1.087488109225e+00
    41    4.981631752497e-02
    42    1.494622810668e-01
    43    1.141521341617e-02
    44    3.194396696475e-02
    45    1.050680476043e+00
    46    1.326041331670e-01
    47    5.580264552977e-02
    48    9.484666410703e-03
Sym=X
Ene= 0.936515
Spin=Alpha
Occup=0
     1   -1.115860803842e-01
     2    1.269692779239e+00
     3   -1.822082567595e-01
     4   -2.709674665898e-03
     5   -8.857339382342e-03
     6    7.963664314459e-03
     7    9.749634758246e-02
     8   -9.300784529207e-02
     9    5.171336449159e-01
    10    4.352441614685e-01
    11    5.032597275009e-02
    12   -1.508945478239e+00
    13   -1.367080263017e+00
    14   -1.525195918992e-01
    15   -2.086090113125e-02
    16   -5.158589122274e-03
    17    6.216347025262e-03
    18   -1.001484042423e-01
    19   -3.674825712992e-02
    20    1.303846763624e-01
    21   -1.122950604966e+00
    22    2.986592166928e-02
    23   -1.634602665761e-01
    24   -8.074681803917e-03
    25   -4.719548219573e-03
    26    7.170404666048e-02
    27   -1.488148992753e-01
    28   -4.685774380782e-01
    29   -5.289840993485e-01
    30   -5.378970087500e-02
    31    1.439580563104e+00
    32    1.603639910624e+00
    33    1.637918313758e-01
    34    1.318699699633e-02
    35   -7.464264920539e-03
    36    6.154967386626e-03
    37   -1.290780417909e-01
    38    1.507874875070e-03
    39    1.069047239730e-01
    40   -1.296030168609e+00
    41   -1.289322562335e-02
    42    1.781628591835e-01
    43    9.729146531792e-03
    44   -1.435985237516e-01
    45    1.313252408309e+00
    46    1.978180984395e-01
    47   -5.628180187735e-03
    48    9.339002714054e-03
Sym=X
Ene= 0.988064
Spin=Alpha
Occup=0
     1    2.358657287942e-02
     2   -7.238517070207e-01
     3    6.562039969480e-02
     4    9.911895788568e-02
     5    8.564847385873e-03
     6   -3.480635744271e-02
     7   -3.035007196282e-01
     8   -2.969370425857e-01
     9   -4.349835277615e-01
    10    5.023982014522e-01
    11    9.344646692373e-03
    12    1.229337863375e+00
    13   -1.541256169557e+00
    14   -3.340304355042e-02
    15    6.871763730836e-02
    16    9.495445684784e-03
    17    9.315851097792e-03
    18   -3.244392600061e-02
    19    2.916435822597e-01
    20    3.150256798584e-02
    21   -1.067831835745e+00
    22   -9.257716530750e-02
    23   -1.134460459378e-01
    24   -1.145202687892e-02
    25    3.451064878860e-02
    26    2.896231300507e-01
    27    3.219866405958e-01
    28   -4.943381958739e-01
    29    4.252686885322e-01
    30    1.282953227318e-03
    31    1.495227013005e+00
    32   -1.211199583251e+00
    33    8.117430275759e-04
    34   -6.846959488552e-02
    35   -1.117125127196e-02
    36   -8.363602384351e-03
    37    9.264037566165e-03
    38   -2.977180957033e-01
    39   -3.750304772143e-02
    40    8.087571603881e-01
    41   -9.485280464088e-02
    42   -8.095444735714e-02
    43   -9.595539633290e-03
    44   -8.301894194406e-03
    45    9.573917354177e-01
    46    9.239204408520e-02
    47    1.015509059371e-01
    48    1.026514592697e-02
[5D]

======= END OF MOLDEN-FORMATTED INPUT FILE =======


        *************************************************************
        *                                                           *
        *  Thank you very much for using Q-Chem.  Have a nice day.  *
        *                                                           *
        *************************************************************


