                  Welcome to Q-Chem
     A Quantum Leap Into The Future Of Chemistry


 Q-Chem 5.4 (devel), Q-Chem, Inc., Pleasanton, CA (2021)

 E. Epifanovsky,  A. T. B. Gilbert,  Xintian Feng,  Joonho Lee,  Yuezhi Mao,  
 N. Mardirossian,  P. Pokhilko,  A. White,  M. Wormit,  M. P. Coons,  
 A. L. Dempwolff,  Zhengting Gan,  D. Hait,  P. R. Horn,  L. D. Jacobson,  
 I. Kaliman,  J. Kussmann,  A. W. Lange,  Ka Un Lao,  D. S. Levine,  Jie Liu,  
 S. C. McKenzie,  A. F. Morrison,  K. Nanda,  F. Plasser,  D. R. Rehn,  
 M. L. Vidal,  Zhi-Qiang You,  Ying Zhu,  B. Alam,  B. Albrecht,  
 A. Aldossary,  E. Alguire,  J. H. Andersen,  D. Barton,  K. Begam,  A. Behn,  
 Y. A. Bernard,  E. J. Berquist,  H. Burton,  A. Carreras,  K. Carter-Fenk,  
 R. Chakraborty,  A. D. Chien,  K. D. Closser,  V. Cofer-Shabica,  
 S. Dasgupta,  Jia Deng,  M. de Wergifosse,  M. Diedenhofen,  Hainam Do,  
 S. Ehlert,  Po-Tung Fang,  S. Fatehi,  Qingguo Feng,  T. Friedhoff,  
 J. Gayvert,  Qinghui Ge,  G. Gidofalvi,  M. Goldey,  J. Gomes,  
 C. Gonzalez-Espinoza,  S. Gulania,  A. Gunina,  M. W. D. Hanson-Heine,  
 P. H. P. Harbach,  A. W. Hauser,  M. F. Herbst,  M. Hernandez Vera,  
 M. Hodecker,  Z. C. Holden,  S. Houck,  Xunkun Huang,  Kerwin Hui,  
 B. C. Huynh,  M. Ivanov,  Hyunjun Ji,  Hanjie Jiang,  B. Kaduk,  S. Kaehler,  
 K. Khistyaev,  Jaehoon Kim,  P. Klunzinger,  Z. Koczor-Benda,  
 Joong Hoon Koh,  D. Kosenkov,  L. Koulias,  T. Kowalczyk,  C. M. Krauter,  
 K. Kue,  A. Kunitsa,  T. Kus,  A. Landau,  K. V. Lawler,  D. Lefrancois,  
 S. Lehtola,  Rain Li,  Yi-Pei Li,  Jiashu Liang,  M. Liebenthal,  
 Hung-Hsuan Lin,  You-Sheng Lin,  Fenglai Liu,  Kuan-Yu Liu,  
 M. Loipersberger,  A. Luenser,  A. Manjanath,  P. Manohar,  E. Mansoor,  
 S. F. Manzer,  Shan-Ping Mao,  A. V. Marenich,  T. Markovich,  S. Mason,  
 S. A. Maurer,  P. F. McLaughlin,  M. F. S. J. Menger,  J.-M. Mewes,  
 S. A. Mewes,  P. Morgante,  J. W. Mullinax,  K. J. Oosterbaan,  G. Paran,  
 Alexander C. Paul,  Suranjan K. Paul,  F. Pavosevic,  Zheng Pei,  S. Prager,  
 E. I. Proynov,  E. Ramos,  B. Rana,  A. E. Rask,  A. Rettig,  R. M. Richard,  
 F. Rob,  E. Rossomme,  T. Scheele,  M. Scheurer,  M. Schneider,  
 N. Sergueev,  S. M. Sharada,  W. Skomorowski,  D. W. Small,  C. J. Stein,  
 Yu-Chuan Su,  E. J. Sundstrom,  Zhen Tao,  J. Thirman,  T. Tsuchimochi,  
 N. M. Tubman,  S. P. Veccham,  O. Vydrov,  J. Wenzel,  J. Witte,  A. Yamada,  
 Kun Yao,  S. Yeganeh,  S. R. Yost,  A. Zech,  Igor Ying Zhang,  Xing Zhang,  
 Yu Zhang,  D. Zuev,  A. Aspuru-Guzik,  A. T. Bell,  N. A. Besley,  
 K. B. Bravaya,  B. R. Brooks,  D. Casanova,  Jeng-Da Chai,  S. Coriani,  
 C. J. Cramer,  A. E. DePrince, III,  R. A. DiStasio Jr.,  A. Dreuw,  
 B. D. Dunietz,  T. R. Furlani,  W. A. Goddard III,  S. Grimme,  
 S. Hammes-Schiffer,  T. Head-Gordon,  W. J. Hehre,  Chao-Ping Hsu,  
 T.-C. Jagau,  Yousung Jung,  A. Klamt,  Jing Kong,  D. S. Lambrecht,  
 WanZhen Liang,  N. J. Mayhall,  C. W. McCurdy,  J. B. Neaton,  
 C. Ochsenfeld,  J. A. Parkhill,  R. Peverati,  V. A. Rassolov,  Yihan Shao,  
 L. V. Slipchenko,  T. Stauch,  R. P. Steele,  J. E. Subotnik,  
 A. J. W. Thom,  A. Tkatchenko,  D. G. Truhlar,  T. Van Voorhis,  
 T. A. Wesolowski,  K. B. Whaley,  H. L. Woodcock III,  P. M. Zimmerman,  
 S. Faraji,  P. M. W. Gill,  M. Head-Gordon,  J. M. Herbert,  A. I. Krylov

 Additional authors for Version 5.4.1: 
 S. Kotaru,  Shaozhi Li,  Xiangyuan Li,  F. Matz,  A. Molle,  Haisheng Ren,  
 Yingli Su,  Hung-Yi Tsai,  C. Utku,  Fang Wang

 Contributors to earlier versions of Q-Chem not listed above: 
 R. D. Adamson,  B. Austin,  R. Baer,  J. Baker,  G. J. O. Beran,  
 K. Brandhorst,  S. T. Brown,  E. F. C. Byrd,  A. K. Chakraborty,  
 G. K. L. Chan,  Chun-Min Chang,  Yunqing Chen,  C.-L. Cheng,  
 Siu Hung Chien,  D. M. Chipman,  D. L. Crittenden,  H. Dachsel,  
 R. J. Doerksen,  A. D. Dutoi,  R. G. Edgar,  J. Fosso-Tande,  
 L. Fusti-Molnar,  D. Ghosh,  A. Ghysels,  A. Golubeva-Zadorozhnaya,  
 J. Gonthier,  M. S. Gordon,  S. R. Gwaltney,  G. Hawkins,  J. E. Herr,  
 A. Heyden,  S. Hirata,  E. G. Hohenstein,  G. Kedziora,  F. J. Keil,  
 C. Kelley,  Jihan Kim,  R. A. King,  R. Z. Khaliullin,  P. P. Korambath,  
 W. Kurlancheek,  A. Laurent,  A. M. Lee,  M. S. Lee,  S. V. Levchenko,  
 Ching Yeh Lin,  D. Liotard,  E. Livshits,  R. C. Lochan,  I. Lotan,  
 L. A. Martinez-Martinez,  P. E. Maslen,  N. Nair,  D. P. O'Neill,  
 D. Neuhauser,  E. Neuscamman,  C. M. Oana,  R. Olivares-Amaya,  R. Olson,  
 T. M. Perrine,  B. Peters,  P. A. Pieniazek,  A. Prociuk,  Y. M. Rhee,  
 J. Ritchie,  M. A. Rohrdanz,  E. Rosta,  N. J. Russ,  H. F. Schaefer III,  
 M. W. Schmidt,  N. E. Schultz,  S. Sharma,  N. Shenvi,  C. D. Sherrill,  
 A. C. Simmonett,  A. Sodt,  T. Stein,  D. Stuck,  K. S. Thanthiriwatte,  
 V. Vanovschi,  L. Vogt,  Tao Wang,  A. Warshel,  M. A. Watson,  
 C. F. Williams,  Q. Wu,  X. Xu,  Jun Yang,  W. Zhang,  Yan Zhao

 Please cite Q-Chem as follows:
 Y. Shao et al., Mol. Phys. 113, 184-215 (2015)
 DOI: 10.1080/00268976.2014.952696

 Q-Chem 5.4.1 for Intel X86 EM64T Linux

 Parts of Q-Chem use Armadillo 9.800.1 (Horizon Scraper).
 http://arma.sourceforge.net/

 Q-Chem begins on Tue Mar 21 11:48:13 2023  

 Host: cpu186.baobab
0

     Scratch files written to /scratch/fum/qchem65284//
 Processing $rem in /home/share/wesolowski/qc5.aug2021.FDE/config/preferences:
 Processing $rem in /home/fum/.qchemrc:

 Checking the input file for inconsistencies... 	...done.

--------------------------------------------------------------
User input:
--------------------------------------------------------------
$comment
generated from CCJob.Templates
$end

$rem
sym_ignore = true
method = adc(2)
ee_states = 10
basis = cc-pVDZ
mem_static = 1024
mem_total = 40000
adc_davidson_maxiter = 900
adc_davidson_conv = 6
adc_print = 3
adc_prop_es = true
adc_prop_es2es = true
adc_prop_tpa = true
molden_format = True
state_analysis = true
print_orbitals = 15
gen_scfman = false
fde_export_density = true
fde_details = 3
$end

$molecule
0 1
H -0.019716671304249398 -0.24651051382467495 0.06524306931877083
C -1.078549586903139 -0.5250891794083234 -0.0024341284114902735
H -1.3008300766398526 -1.5911948119015353 -0.07756671847911947
C -2.0453972489030177 0.39317327029179866 0.006538971888529118
H -1.8211361878399308 1.46432276959812 0.08205172402085145
H -3.099306414804599 0.11687750347523392 -0.06068552798127183                     
$end
--------------------------------------------------------------
 ----------------------------------------------------------------
             Standard Nuclear Orientation (Angstroms)
    I     Atom           X                Y                Z
 ----------------------------------------------------------------
    1      H      -0.0197166713    -0.2465105138     0.0652430693
    2      C      -1.0785495869    -0.5250891794    -0.0024341284
    3      H      -1.3008300766    -1.5911948119    -0.0775667185
    4      C      -2.0453972489     0.3931732703     0.0065389719
    5      H      -1.8211361878     1.4643227696     0.0820517240
    6      H      -3.0993064148     0.1168775035    -0.0606855280
 ----------------------------------------------------------------
 Nuclear Repulsion Energy =          33.21002396 hartrees
 There are        8 alpha and        8 beta electrons
 Requested basis set is cc-pVDZ
 There are 24 shells and 48 basis functions
 Total memory of 40000 MB is distributed as follows: 
   MEM_STATIC is set to 1024 MB
   QALLOC/CCMAN JOB total memory use is  38976 MB
 Warning: actual memory use might exceed 40000 MB

 Total QAlloc Memory Limit  40000 MB
 Mega-Array Size      1001 MB
 MEM_STATIC part      1024 MB

                       Distance Matrix (Angstroms)
             H (  1)   C (  2)   H (  3)   C (  4)   H (  5)
   C (  2)  1.096956
   H (  3)  1.862746  1.091620
   C (  4)  2.125094  1.333447  2.121125
   H (  5)  2.484421  2.125166  3.103608  1.096976
   H (  6)  3.103511  2.121078  2.480386  1.091597  1.862714

 A cutoff of  1.0D-11 yielded    300 shell pairs
 There are      1220 function pairs (      1329 Cartesian)
 Smallest overlap matrix eigenvalue = 4.81E-03

 Scale SEOQF with 1.000000e-01/1.000000e-01/1.000000e+00

 Standard Electronic Orientation quadrupole field applied
 Nucleus-field energy     =     0.0000000022 hartrees
 Guess from superposition of atomic densities
 Warning:  Energy on first SCF cycle will be non-variational
 SAD guess density has 16.000000 electrons
 A restricted Hartree-Fock SCF calculation will be
 performed using Pulay DIIS extrapolation
 SCF converges when DIIS error is below 1.0E-08
 using 10 threads for integral computing
 -------------------------------------------------------
 OpenMP Integral computing Module                
 Release: version 1.0, May 2013, Q-Chem Inc. Pittsburgh 
 -------------------------------------------------------
 ---------------------------------------
  Cycle       Energy         DIIS Error
 ---------------------------------------
    1     -78.3977839123      9.93E-02
    2     -78.0175707053      7.13E-03
    3     -78.0380373062      1.83E-03
    4     -78.0395134991      5.64E-04
    5     -78.0396311258      5.81E-05
    6     -78.0396329895      9.29E-06
    7     -78.0396330508      1.95E-06
    8     -78.0396330535      1.67E-07
    9     -78.0396330535      1.83E-08
   10     -78.0396330535      6.42E-09 Convergence criterion met
 ---------------------------------------
 SCF time:  CPU 1.90 s  wall 2.44 s
 SCF   energy in the final basis set = -78.03963305
 Total energy in the final basis set = -78.03963305
Exporting Density Matrix to file 'Densmat_SCF.txt'.
Export successful
================================================================================
|                                                                              |
|                                 A D C  M A N                                 |
|                                                                              |
 ------------------------------------------------------------------------------ 
|                                                                              |
| Components:                                                                  |
|                                                                              |
| - libvmm - 1.3-trunk                                                         |
|   Authors:                                                                   |
|   Evgeny Epifanovsky, Ilya Kaliman                                           |
|                                                                              |
| - libtensor - 2.5-trunk                                                      |
|   Authors:                                                                   |
|   Evgeny Epifanovsky, Michael Wormit, Dmitry Zuev, Sam Manzer,               |
|   Ilya Kaliman                                                               |
|                                                                              |
| - libwfa - 1.1-trunk                                                         |
|   Authors:                                                                   |
|   Felix Plasser, Stefanie Mewes (Baeppler), Benjamin Thomitzni,              |
|   Michael Wormit, Feng Chen, Anna I. Krylov, Pavel Pokhilko                  |
|                                                                              |
| - libadc - 1.1-trunk                                                         |
|   Authors:                                                                   |
|   Michael Wormit, Adrian L. Dempwolff, Philipp H. P. Harbach,                |
|   Caroline Krauter, Dirk Rehn, Matthias Schneider, Jan Wenzel                |
|                                                                              |
| - adcman - 2.6-trunk                                                         |
|   Authors:                                                                   |
|   Michael Wormit, Adrian L. Dempwolff, Philipp H. P. Harbach,                |
|   Caroline Krauter, Daniel Lefrancois, Jan-Michael Mewes, Dirk Rehn,         |
|   Matthias Schneider, Jan Wenzel, Andreas Dreuw                              |
|                                                                              |
| Authors of earlier versions of ADCMAN:                                       |
| Andreas Dreuw, Jan Hendrik Starcke, Dirk Rehn, Michael Wormit                |
|                                                                              |
================================================================================

 Created directory /scratch/fum/qchem65284/plots
  Import QC data ...  CPU 0.00 s  wall 0.00 s

 Alpha MOs, Restricted
 -- Occupied --                  
-11.239 -11.237  -1.030  -0.786  -0.635  -0.582  -0.500  -0.374
  1 A     2 A     3 A     4 A     5 A     6 A     7 A     8 A                  
 -- Virtual --                   
  0.168   0.203   0.231   0.236   0.303   0.463   0.580   0.609
  9 A    10 A    11 A    12 A    13 A    14 A    15 A    16 A                  
  0.689   0.705   0.776   0.807   0.858   0.928   0.971   1.006
 17 A    18 A    19 A    20 A    21 A    22 A    23 A    24 A                  
  1.130   1.237   1.241   1.263   1.291   1.593   1.728   1.744
 25 A    26 A    27 A    28 A    29 A    30 A    31 A    32 A                  
  1.811   1.852   1.854   1.901   1.963   1.973   2.224   2.248
 33 A    34 A    35 A    36 A    37 A    38 A    39 A    40 A                  
  2.356   2.423   2.493   2.623   2.679   2.795   3.099   3.369
 41 A    42 A    43 A    44 A    45 A    46 A    47 A    48 A                  

 Beta MOs, Restricted
 -- Occupied --                  
-11.239 -11.237  -1.030  -0.786  -0.635  -0.582  -0.500  -0.374
  1 A     2 A     3 A     4 A     5 A     6 A     7 A     8 A                  
 -- Virtual --                   
  0.168   0.203   0.231   0.236   0.303   0.463   0.580   0.609
  9 A    10 A    11 A    12 A    13 A    14 A    15 A    16 A                  
  0.689   0.705   0.776   0.807   0.858   0.928   0.971   1.006
 17 A    18 A    19 A    20 A    21 A    22 A    23 A    24 A                  
  1.130   1.237   1.241   1.263   1.291   1.593   1.728   1.744
 25 A    26 A    27 A    28 A    29 A    30 A    31 A    32 A                  
  1.811   1.852   1.854   1.901   1.963   1.973   2.224   2.248
 33 A    34 A    35 A    36 A    37 A    38 A    39 A    40 A                  
  2.356   2.423   2.493   2.623   2.679   2.795   3.099   3.369
 41 A    42 A    43 A    44 A    45 A    46 A    47 A    48 A                  
  Import AO data ...  CPU 0.01 s  wall 0.04 s
  Using point group: C1
  Irreducible representations in point group: A
  Molecular orbitals: 
  Occupied MOs:
  Block   0:   1 (  A) A   2 (  A) A   3 (  A) A   4 (  A) A   5 (  A) A
                  -11.24      -11.24       -1.03     -0.7859      -0.635
               6 (  A) A   7 (  A) A   8 (  A) A
                 -0.5823     -0.4995     -0.3744
  Block   1:   1 (  A) B   2 (  A) B   3 (  A) B   4 (  A) B   5 (  A) B
                  -11.24      -11.24       -1.03     -0.7859      -0.635
               6 (  A) B   7 (  A) B   8 (  A) B
                 -0.5823     -0.4995     -0.3744
  Virtual MOs:
  Block   0:   9 (  A) A  10 (  A) A  11 (  A) A  12 (  A) A  13 (  A) A
                  0.1679      0.2026       0.231      0.2364       0.303
              14 (  A) A  15 (  A) A  16 (  A) A  17 (  A) A  18 (  A) A
                  0.4628      0.5798      0.6089      0.6887      0.7048
              19 (  A) A  20 (  A) A  21 (  A) A  22 (  A) A
                  0.7757      0.8074      0.8584       0.928
  Block   1:  23 (  A) A  24 (  A) A  25 (  A) A  26 (  A) A  27 (  A) A
                  0.9706       1.006        1.13       1.237       1.241
              28 (  A) A  29 (  A) A  30 (  A) A  31 (  A) A  32 (  A) A
                   1.263       1.291       1.593       1.728       1.744
              33 (  A) A  34 (  A) A  35 (  A) A  36 (  A) A
                   1.811       1.852       1.854       1.901
  Block   2:  37 (  A) A  38 (  A) A  39 (  A) A  40 (  A) A  41 (  A) A
                   1.963       1.973       2.224       2.248       2.356
              42 (  A) A  43 (  A) A  44 (  A) A  45 (  A) A  46 (  A) A
                   2.423       2.493       2.623       2.679       2.795
              47 (  A) A  48 (  A) A
                   3.099       3.369
  Block   3:   9 (  A) B  10 (  A) B  11 (  A) B  12 (  A) B  13 (  A) B
                  0.1679      0.2026       0.231      0.2364       0.303
              14 (  A) B  15 (  A) B  16 (  A) B  17 (  A) B  18 (  A) B
                  0.4628      0.5798      0.6089      0.6887      0.7048
              19 (  A) B  20 (  A) B  21 (  A) B  22 (  A) B
                  0.7757      0.8074      0.8584       0.928
  Block   4:  23 (  A) B  24 (  A) B  25 (  A) B  26 (  A) B  27 (  A) B
                  0.9706       1.006        1.13       1.237       1.241
              28 (  A) B  29 (  A) B  30 (  A) B  31 (  A) B  32 (  A) B
                   1.263       1.291       1.593       1.728       1.744
              33 (  A) B  34 (  A) B  35 (  A) B  36 (  A) B
                   1.811       1.852       1.854       1.901
  Block   5:  37 (  A) B  38 (  A) B  39 (  A) B  40 (  A) B  41 (  A) B
                   1.963       1.973       2.224       2.248       2.356
              42 (  A) B  43 (  A) B  44 (  A) B  45 (  A) B  46 (  A) B
                   2.423       2.493       2.623       2.679       2.795
              47 (  A) B  48 (  A) B
                   3.099       3.369
  Import MO data ...  CPU 0.15 s  wall 0.07 s
  Import HF data ...  CPU 0.48 s  wall 0.18 s
  Import 2e integrals ...  CPU 1.08 s  wall 0.21 s

--------------------------------------------------------------------------------
                                   HF Summary                                   
--------------------------------------------------------------------------------
  Energy:                                                  -78.0396330535 a.u.
  Dip. moment [a.u.]:                  [  -0.001129,   -0.001179,   -0.000109]
  Total dipole [Debye]:                                               0.004158
  <r^2> [a.u.]:                        [ 175.853071,   35.298764,   11.680388]
  Total <r^2> [a.u.]:                                               222.832223
--------------------------------------------------------------------------------
  HF properties ...  CPU 0.03 s  wall 0.02 s
  MP(1) calculation ...  CPU 0.01 s  wall 0.01 s
  N^6 prerequesite intermediates ...  CPU 0.66 s  wall 0.15 s
  Difference density matrix of state mp2_gs printed to ASCII file 'State_mp2_gs_Difference.txt'
Exporting MP density matrix to file 'Densmat_MP.txt'.
Export successful
  Total density matrix of state mp2_gs printed to ASCII file 'State_mp2_gs_Total.txt'
Exporting MP density matrix to file 'Densmat_MP.txt'.
Export successful

--------------------------------------------------------------------------------
                                 MP(2) Summary                                  
--------------------------------------------------------------------------------
  MP energy contribution:                                   -0.2804883738 a.u.
  Total energy:                                            -78.3201214273 a.u.
  Dip. moment [a.u.]:                  [  -0.000926,   -0.000966,   -0.000087]
  Total dipole [Debye]:                                               0.003408
  <r^2> [a.u.]:                        [ 175.894502,   35.334620,   11.507965]
  Total <r^2> [a.u.]:                                               222.737087

  Density matrix analysis:
  ------------------------
  NOs
    Occupation of frontier NOs:
       0.0455   1.9380
    Number of electrons: 16.000000
    Number of unpaired electrons: n_u =  0.40725, n_u,nl =  0.04580
    NO participation ratio (PR_NO): 13.896542
  
  
  Mulliken Population Analysis
  Atom      Charge (e)              h+              e-           Del q
  --------------------------------------------------------------------
   1 H        0.055494        0.013879       -0.011314        0.002565
   2 C       -0.109932        0.094595       -0.099790       -0.005196
   3 H        0.054442        0.013935       -0.011304        0.002631
   4 C       -0.109935        0.094593       -0.099791       -0.005197
   5 H        0.055500        0.013879       -0.011314        0.002565
   6 H        0.054431        0.013936       -0.011304        0.002632
  --------------------------------------------------------------------
  Sum:        0.000000        0.244817       -0.244817       -0.000000
  
  Multipole moment analysis of the density matrix
    Molecular charge:                      0.000000
    Number of electrons:                   16.000000
      Center of electronic charge [Ang]: [ -1.561511,  -0.065468,   0.002107]
    Total nuclear charge:                  16.000000
      Center of nuclear charge [Ang]:    [ -1.561542,  -0.065500,   0.002104]
    Dipole moment [D]:                     0.003408
      Cartesian components [D]:          [ -0.002353,  -0.002455,  -0.000221]
    RMS size of the density [Ang]:         1.206519
      Cartesian components [Ang]:        [  0.800094,   0.783666,   0.448782]
  
  Exciton analysis of the difference density matrix
    <r_h> [Ang]:                  [ -1.560904,  -0.064831,   0.002172]
    <r_e> [Ang]:                  [ -1.561343,  -0.065292,   0.002124]
    |<r_e - r_h>| [Ang]:            0.000638
    Hole size [Ang]:                1.401660
      Cartesian components [Ang]: [  0.853007,   0.840247,   0.728706]
    Electron size [Ang]:            1.361763
      Cartesian components [Ang]: [  0.879568,   0.864273,   0.577746]
--------------------------------------------------------------------------------
  MP(2) calculation ...  CPU 0.32 s  wall 0.23 s
  Start ADC(2)-s ...  CPU 0.02 s  wall 0.01 s
  ADC(2) intermediates ...  CPU 0.04 s  wall 0.01 s
  Starting Davidson for singlet states of irrep A ... 
--------------------------------------------------------------------------------
   It NVec Conv  Avg. Norm  Max. Norm  Conv. states           Remark
--------------------------------------------------------------------------------
        10    0  1.329e-01  4.687e-01  0.4117 n n n n n n n n Guess.
    1   20    0  2.312e-02  1.125e-01  0.3261 n n n n n n n n 
    2   30    0  5.846e-03  2.461e-02  0.3213 n n n n n n n n 
    3   40    0  1.751e-03  1.049e-02  0.3209 n n n n n n n n 
    4   50    0  4.964e-04  3.452e-03  0.3209 n n n n n n n n 
    5   20    0  2.544e-04  1.665e-03  0.3209 n n n n n n n n Subspace collapsed.
    6   30    0  1.086e-04  7.732e-04  0.3209 n n n n n n n n 
    7   40    0  6.739e-05  5.797e-04  0.3209 n n n n n n n n 
    8   50    0  3.855e-05  3.322e-04  0.3209 n n n n n n n n 
    9   20    1  2.503e-05  2.271e-04  0.3209 n y n n n n n n Subspace collapsed.
   10   30    5  2.032e-05  1.903e-04  0.3209 n y y y y y n n 
   11   40    5  8.826e-06  8.067e-05  0.3209 n y y y y y n n 
   12   50    6  3.540e-06  3.090e-05  0.3209 y y y y y y n n 
   13   20    7  1.984e-06  1.647e-05  0.3209 y y y y y y n y Subspace collapsed.
   14   30    8  1.305e-06  1.161e-05  0.3209 y y y y y y n y 
   15   40    8  8.728e-07  8.204e-06  0.3209 y y y y y y n y 
   16   50    8  3.814e-07  3.195e-06  0.3209 y y y y y y n y 
   17   20    8  1.519e-07  1.122e-06  0.3209 y y y y y y n y Subspace collapsed.
   18   30   10  1.318e-07  9.256e-07  0.3209 y y y y y y y y Converged.
--------------------------------------------------------------------------------
  Davidson Summary: 
 ------------------------------------------------------------
  State  0: excitation energy =   0.3209 a.u.   (converged)
  State  1: excitation energy =   0.3290 a.u.   (converged)
  State  2: excitation energy =   0.3359 a.u.   (converged)
  State  3: excitation energy =   0.3579 a.u.   (converged)
  State  4: excitation energy =   0.3733 a.u.   (converged)
  State  5: excitation energy =   0.3866 a.u.   (converged)
  State  6: excitation energy =   0.4202 a.u.   (converged)
  State  7: excitation energy =   0.4435 a.u.   (converged)
  State  8: excitation energy =   0.4537 a.u.   (converged)
  State  9: excitation energy =   0.4585 a.u.   (converged)
 ------------------------------------------------------------

  Singlet states of irrep A ...  CPU 121.87 s  wall 39.97 s
  TDMs ...  CPU 1.97 s  wall 0.77 s
  SDMs ...  CPU 4.79 s  wall 1.49 s
  Starting TPA DIIS iterations ... 
------------------------------------ 
   It     Res. Norm  Remark
------------------------------------
                       Guess.
    1     4.397e+00  
    2     5.834e+00  
    3     1.086e+00  
    4     2.633e-01  
    5     6.571e-02  
    6     2.777e-02  
    7     8.477e-03  
    8     1.552e-03  
    9     5.830e-04  
   10     9.778e-05  
   11     3.155e-05  
   12     4.886e-06  
   13     1.647e-06  
   14     4.818e-07  Converged.
   ... Converged in 14 steps (norm: 4.81753e-07)
------------------------------------
  Starting TPA DIIS iterations ... 
------------------------------------ 
   It     Res. Norm  Remark
------------------------------------
                       Guess.
    1     4.187e+00  
    2     5.545e+00  
    3     1.037e+00  
    4     2.614e-01  
    5     6.544e-02  
    6     2.777e-02  
    7     8.334e-03  
    8     1.571e-03  
    9     5.919e-04  
   10     9.732e-05  
   11     3.186e-05  
   12     4.853e-06  
   13     1.673e-06  
   14     4.762e-07  Converged.
   ... Converged in 14 steps (norm: 4.76156e-07)
------------------------------------
  Starting TPA DIIS iterations ... 
------------------------------------ 
   It     Res. Norm  Remark
------------------------------------
                       Guess.
    1     6.855e-01  
    2     4.795e-01  
    3     1.687e-01  
    4     6.351e-02  
    5     1.873e-02  
    6     6.695e-03  
    7     1.081e-03  
    8     4.576e-04  
    9     1.322e-04  
   10     2.628e-05  
   11     8.651e-06  
   12     2.773e-06  
   13     1.931e-06  
   14     8.270e-07  Converged.
   ... Converged in 14 steps (norm: 8.27034e-07)
------------------------------------
  Starting TPA DIIS iterations ... 
------------------------------------ 
   It     Res. Norm  Remark
------------------------------------
                       Guess.
    1     4.593e+00  
    2     6.185e+00  
    3     1.142e+00  
    4     2.833e-01  
    5     7.138e-02  
    6     3.037e-02  
    7     9.258e-03  
    8     1.693e-03  
    9     6.394e-04  
   10     1.077e-04  
   11     3.498e-05  
   12     5.450e-06  
   13     1.847e-06  
   14     5.388e-07  Converged.
   ... Converged in 14 steps (norm: 5.38828e-07)
------------------------------------
  Starting TPA DIIS iterations ... 
------------------------------------ 
   It     Res. Norm  Remark
------------------------------------
                       Guess.
    1     4.373e+00  
    2     5.879e+00  
    3     1.090e+00  
    4     2.811e-01  
    5     7.110e-02  
    6     3.038e-02  
    7     9.103e-03  
    8     1.715e-03  
    9     6.495e-04  
   10     1.072e-04  
   11     3.531e-05  
   12     5.411e-06  
   13     1.877e-06  
   14     5.323e-07  Converged.
   ... Converged in 14 steps (norm: 5.32264e-07)
------------------------------------
  Starting TPA DIIS iterations ... 
------------------------------------ 
   It     Res. Norm  Remark
------------------------------------
                       Guess.
    1     6.939e-01  
    2     4.913e-01  
    3     1.753e-01  
    4     6.919e-02  
    5     1.971e-02  
    6     7.115e-03  
    7     1.174e-03  
    8     5.118e-04  
    9     1.497e-04  
   10     2.839e-05  
   11     9.624e-06  
   12     3.127e-06  
   13     2.253e-06  
   14     9.782e-07  Converged.
   ... Converged in 14 steps (norm: 9.78171e-07)
------------------------------------
  Starting TPA DIIS iterations ... 
------------------------------------ 
   It     Res. Norm  Remark
------------------------------------
                       Guess.
    1     4.773e+00  
    2     6.511e+00  
    3     1.193e+00  
    4     3.021e-01  
    5     7.673e-02  
    6     3.284e-02  
    7     9.997e-03  
    8     1.827e-03  
    9     6.930e-04  
   10     1.171e-04  
   11     3.827e-05  
   12     5.992e-06  
   13     2.040e-06  
   14     5.937e-07  Converged.
   ... Converged in 14 steps (norm: 5.93744e-07)
------------------------------------
  Starting TPA DIIS iterations ... 
------------------------------------ 
   It     Res. Norm  Remark
------------------------------------
                       Guess.
    1     4.544e+00  
    2     6.188e+00  
    3     1.138e+00  
    4     2.996e-01  
    5     7.644e-02  
    6     3.287e-02  
    7     9.831e-03  
    8     1.852e-03  
    9     7.041e-04  
   10     1.166e-04  
   11     3.861e-05  
   12     5.946e-06  
   13     2.074e-06  
   14     5.862e-07  Converged.
   ... Converged in 14 steps (norm: 5.86238e-07)
------------------------------------
  Starting TPA DIIS iterations ... 
------------------------------------ 
   It     Res. Norm  Remark
------------------------------------
                       Guess.
    1     7.012e-01  
    2     5.018e-01  
    3     1.813e-01  
    4     7.463e-02  
    5     2.059e-02  
    6     7.510e-03  
    7     1.263e-03  
    8     5.647e-04  
    9     1.668e-04  
   10     3.006e-05  
   11     1.057e-05  
   12     3.476e-06  
   13     2.577e-06  
   14     1.134e-06  
   15     4.406e-07  Converged.
   ... Converged in 15 steps (norm: 4.40615e-07)
------------------------------------
  Starting TPA DIIS iterations ... 
------------------------------------ 
   It     Res. Norm  Remark
------------------------------------
                       Guess.
    1     5.423e+00  
    2     7.722e+00  
    3     1.377e+00  
    4     3.744e-01  
    5     9.727e-02  
    6     4.241e-02  
    7     1.283e-02  
    8     2.340e-03  
    9     9.007e-04  
   10     1.537e-04  
   11     5.126e-05  
   12     8.138e-06  
   13     2.821e-06  
   14     8.127e-07  Converged.
   ... Converged in 14 steps (norm: 8.12747e-07)
------------------------------------
  Starting TPA DIIS iterations ... 
------------------------------------ 
   It     Res. Norm  Remark
------------------------------------
                       Guess.
    1     5.161e+00  
    2     7.338e+00  
    3     1.313e+00  
    4     3.706e-01  
    5     9.692e-02  
    6     4.249e-02  
    7     1.263e-02  
    8     2.376e-03  
    9     9.160e-04  
   10     1.530e-04  
   11     5.166e-05  
   12     8.065e-06  
   13     2.870e-06  
   14     8.015e-07  Converged.
   ... Converged in 14 steps (norm: 8.01505e-07)
------------------------------------
  Starting TPA DIIS iterations ... 
------------------------------------ 
   It     Res. Norm  Remark
------------------------------------
                       Guess.
    1     7.252e-01  
    2     5.381e-01  
    3     2.026e-01  
    4     9.605e-02  
    5     2.378e-02  
    6     9.026e-03  
    7     1.617e-03  
    8     7.760e-04  
    9     2.338e-04  
   10     3.419e-05  
   11     1.440e-05  
   12     4.957e-06  
   13     3.970e-06  
   14     1.838e-06  
   15     6.928e-07  Converged.
   ... Converged in 15 steps (norm: 6.9277e-07)
------------------------------------
  Starting TPA DIIS iterations ... 
------------------------------------ 
   It     Res. Norm  Remark
------------------------------------
                       Guess.
    1     5.973e+00  
    2     8.779e+00  
    3     1.531e+00  
    4     4.400e-01  
    5     1.159e-01  
    6     5.121e-02  
    7     1.541e-02  
    8     2.804e-03  
    9     1.091e-03  
   10     1.873e-04  
   11     6.344e-05  
   12     1.015e-05  
   13     3.571e-06  
   14     1.023e-06  
   15     3.363e-07  Converged.
   ... Converged in 15 steps (norm: 3.36274e-07)
------------------------------------
  Starting TPA DIIS iterations ... 
------------------------------------ 
   It     Res. Norm  Remark
------------------------------------
                       Guess.
    1     5.683e+00  
    2     8.342e+00  
    3     1.460e+00  
    4     4.349e-01  
    5     1.155e-01  
    6     5.135e-02  
    7     1.517e-02  
    8     2.852e-03  
    9     1.110e-03  
   10     1.866e-04  
   11     6.386e-05  
   12     1.005e-05  
   13     3.634e-06  
   14     1.008e-06  
   15     3.316e-07  Converged.
   ... Converged in 15 steps (norm: 3.31584e-07)
------------------------------------
  Starting TPA DIIS iterations ... 
------------------------------------ 
   It     Res. Norm  Remark
------------------------------------
                       Guess.
    1     7.432e-01  
    2     5.667e-01  
    3     2.200e-01  
    4     1.160e-01  
    5     2.650e-02  
    6     1.041e-02  
    7     1.956e-03  
    8     9.671e-04  
    9     2.934e-04  
   10     3.667e-05  
   11     1.818e-05  
   12     6.495e-06  
   13     5.413e-06  
   14     2.605e-06  
   15     9.612e-07  Converged.
   ... Converged in 15 steps (norm: 9.61227e-07)
------------------------------------
  Starting TPA DIIS iterations ... 
------------------------------------ 
   It     Res. Norm  Remark
------------------------------------
                       Guess.
    1     6.524e+00  
    2     9.869e+00  
    3     1.685e+00  
    4     5.096e-01  
    5     1.357e-01  
    6     6.064e-02  
    7     1.815e-02  
    8     3.296e-03  
    9     1.295e-03  
   10     2.234e-04  
   11     7.661e-05  
   12     1.233e-05  
   13     4.393e-06  
   14     1.257e-06  
   15     4.179e-07  Converged.
   ... Converged in 15 steps (norm: 4.17946e-07)
------------------------------------
  Starting TPA DIIS iterations ... 
------------------------------------ 
   It     Res. Norm  Remark
------------------------------------
                       Guess.
    1     6.206e+00  
    2     9.377e+00  
    3     1.606e+00  
    4     5.031e-01  
    5     1.352e-01  
    6     6.086e-02  
    7     1.787e-02  
    8     3.356e-03  
    9     1.319e-03  
   10     2.225e-04  
   11     7.703e-05  
   12     1.219e-05  
   13     4.471e-06  
   14     1.239e-06  
   15     4.107e-07  Converged.
   ... Converged in 15 steps (norm: 4.10674e-07)
------------------------------------
  Starting TPA DIIS iterations ... 
------------------------------------ 
   It     Res. Norm  Remark
------------------------------------
                       Guess.
    1     7.594e-01  
    2     5.939e-01  
    3     2.369e-01  
    4     1.376e-01  
    5     2.930e-02  
    6     1.188e-02  
    7     2.331e-03  
    8     1.157e-03  
    9     3.531e-04  
   10     3.998e-05  
   11     2.251e-05  
   12     8.331e-06  
   13     7.092e-06  
   14     3.533e-06  
   15     1.306e-06  
   16     5.613e-07  Converged.
   ... Converged in 16 steps (norm: 5.61347e-07)
------------------------------------
  Starting TPA DIIS iterations ... 
------------------------------------ 
   It     Res. Norm  Remark
------------------------------------
                       Guess.
    1     8.344e+00  
    2     1.366e+01  
    3     2.185e+00  
    4     7.630e-01  
    5     2.076e-01  
    6     9.570e-02  
    7     2.814e-02  
    8     5.080e-03  
    9     2.051e-03  
   10     3.567e-04  
   11     1.249e-04  
   12     2.044e-05  
   13     7.432e-06  
   14     2.215e-06  
   15     7.346e-07  Converged.
   ... Converged in 15 steps (norm: 7.34569e-07)
------------------------------------
  Starting TPA DIIS iterations ... 
------------------------------------ 
   It     Res. Norm  Remark
------------------------------------
                       Guess.
    1     7.933e+00  
    2     1.298e+01  
    3     2.081e+00  
    4     7.503e-01  
    5     2.070e-01  
    6     9.622e-02  
    7     2.771e-02  
    8     5.188e-03  
    9     2.090e-03  
   10     3.552e-04  
   11     1.252e-04  
   12     2.016e-05  
   13     7.550e-06  
   14     2.179e-06  
   15     7.125e-07  Converged.
   ... Converged in 15 steps (norm: 7.12467e-07)
------------------------------------
  Starting TPA DIIS iterations ... 
------------------------------------ 
   It     Res. Norm  Remark
------------------------------------
                       Guess.
    1     8.039e-01  
    2     6.750e-01  
    3     2.897e-01  
    4     2.157e-01  
    5     3.918e-02  
    6     1.722e-02  
    7     3.796e-03  
    8     1.668e-03  
    9     5.401e-04  
   10     6.386e-05  
   11     4.061e-05  
   12     1.676e-05  
   13     1.390e-05  
   14     7.627e-06  
   15     3.126e-06  
   16     1.395e-06  
   17     3.743e-07  Converged.
   ... Converged in 17 steps (norm: 3.74275e-07)
------------------------------------
  Starting TPA DIIS iterations ... 
------------------------------------ 
   It     Res. Norm  Remark
------------------------------------
                       Guess.
    1     1.014e+01  
    2     1.767e+01  
    3     2.668e+00  
    4     1.041e+00  
    5     2.873e-01  
    6     1.354e-01  
    7     3.920e-02  
    8     7.047e-03  
    9     2.902e-03  
   10     5.060e-04  
   11     1.765e-04  
   12     2.970e-05  
   13     1.069e-05  
   14     3.439e-06  
   15     1.160e-06  
   16     2.862e-07  Converged.
   ... Converged in 16 steps (norm: 2.86161e-07)
------------------------------------
  Starting TPA DIIS iterations ... 
------------------------------------ 
   It     Res. Norm  Remark
------------------------------------
                       Guess.
    1     9.641e+00  
    2     1.678e+01  
    3     2.539e+00  
    4     1.021e+00  
    5     2.865e-01  
    6     1.364e-01  
    7     3.862e-02  
    8     7.212e-03  
    9     2.958e-03  
   10     5.038e-04  
   11     1.769e-04  
   12     2.927e-05  
   13     1.085e-05  
   14     3.367e-06  
   15     1.117e-06  
   16     2.439e-07  Converged.
   ... Converged in 16 steps (norm: 2.43892e-07)
------------------------------------
  Starting TPA DIIS iterations ... 
------------------------------------ 
   It     Res. Norm  Remark
------------------------------------
                       Guess.
    1     8.385e-01  
    2     7.459e-01  
    3     3.382e-01  
    4     2.959e-01  
    5     4.973e-02  
    6     2.290e-02  
    7     5.503e-03  
    8     1.949e-03  
    9     7.100e-04  
   10     1.001e-04  
   11     6.398e-05  
   12     2.910e-05  
   13     2.146e-05  
   14     1.271e-05  
   15     5.972e-06  
   16     2.765e-06  
   17     9.112e-07  Converged.
   ... Converged in 17 steps (norm: 9.11241e-07)
------------------------------------
  Starting TPA DIIS iterations ... 
------------------------------------ 
   It     Res. Norm  Remark
------------------------------------
                       Guess.
    1     1.114e+01  
    2     1.997e+01  
    3     2.929e+00  
    4     1.203e+00  
    5     3.343e-01  
    6     1.592e-01  
    7     4.573e-02  
    8     8.203e-03  
    9     3.409e-03  
   10     5.944e-04  
   11     2.059e-04  
   12     3.538e-05  
   13     1.263e-05  
   14     4.217e-06  
   15     1.491e-06  
   16     3.685e-07  Converged.
   ... Converged in 16 steps (norm: 3.68482e-07)
------------------------------------
  Starting TPA DIIS iterations ... 
------------------------------------ 
   It     Res. Norm  Remark
------------------------------------
                       Guess.
    1     1.058e+01  
    2     1.897e+01  
    3     2.787e+00  
    4     1.178e+00  
    5     3.334e-01  
    6     1.604e-01  
    7     4.505e-02  
    8     8.403e-03  
    9     3.475e-03  
   10     5.916e-04  
   11     2.063e-04  
   12     3.486e-05  
   13     1.281e-05  
   14     4.115e-06  
   15     1.435e-06  
   16     3.048e-07  Converged.
   ... Converged in 16 steps (norm: 3.04792e-07)
------------------------------------
  Starting TPA DIIS iterations ... 
------------------------------------ 
   It     Res. Norm  Remark
------------------------------------
                       Guess.
    1     8.549e-01  
    2     7.822e-01  
    3     3.636e-01  
    4     3.383e-01  
    5     5.578e-02  
    6     2.605e-02  
    7     6.516e-03  
    8     2.034e-03  
    9     7.996e-04  
   10     1.222e-04  
   11     7.900e-05  
   12     3.771e-05  
   13     2.581e-05  
   14     1.532e-05  
   15     8.021e-06  
   16     3.777e-06  
   17     1.366e-06  
   18     5.067e-07  Converged.
   ... Converged in 18 steps (norm: 5.06671e-07)
------------------------------------
  Starting TPA DIIS iterations ... 
------------------------------------ 
   It     Res. Norm  Remark
------------------------------------
                       Guess.
    1     1.165e+01  
    2     2.120e+01  
    3     3.063e+00  
    4     1.290e+00  
    5     3.595e-01  
    6     1.721e-01  
    7     4.924e-02  
    8     8.824e-03  
    9     3.683e-03  
   10     6.419e-04  
   11     2.214e-04  
   12     3.852e-05  
   13     1.370e-05  
   14     4.650e-06  
   15     1.699e-06  
   16     4.173e-07  Converged.
   ... Converged in 16 steps (norm: 4.17265e-07)
------------------------------------
  Starting TPA DIIS iterations ... 
------------------------------------ 
   It     Res. Norm  Remark
------------------------------------
                       Guess.
    1     1.107e+01  
    2     2.014e+01  
    3     2.915e+00  
    4     1.262e+00  
    5     3.585e-01  
    6     1.734e-01  
    7     4.851e-02  
    8     9.043e-03  
    9     3.755e-03  
   10     6.388e-04  
   11     2.219e-04  
   12     3.794e-05  
   13     1.389e-05  
   14     4.530e-06  
   15     1.634e-06  
   16     3.388e-07  Converged.
   ... Converged in 16 steps (norm: 3.38793e-07)
------------------------------------
  Starting TPA DIIS iterations ... 
------------------------------------ 
   It     Res. Norm  Remark
------------------------------------
                       Guess.
    1     8.628e-01  
    2     8.004e-01  
    3     3.765e-01  
    4     3.594e-01  
    5     5.898e-02  
    6     2.767e-02  
    7     7.057e-03  
    8     2.068e-03  
    9     8.455e-04  
   10     1.340e-04  
   11     8.739e-05  
   12     4.271e-05  
   13     2.823e-05  
   14     1.633e-05  
   15     9.236e-06  
   16     4.361e-06  
   17     1.628e-06  
   18     5.649e-07  Converged.
   ... Converged in 18 steps (norm: 5.64881e-07)
------------------------------------
  Two-photon absorbption ...  CPU 150.62 s  wall 41.76 s
  Transition density matrix of state singlet_A_1 printed to ASCII file 'State_singlet_A_1_Transition.txt'
  Transition density matrix of state singlet_A_2 printed to ASCII file 'State_singlet_A_2_Transition.txt'
  Transition density matrix of state singlet_A_3 printed to ASCII file 'State_singlet_A_3_Transition.txt'
  Transition density matrix of state singlet_A_4 printed to ASCII file 'State_singlet_A_4_Transition.txt'
  Transition density matrix of state singlet_A_5 printed to ASCII file 'State_singlet_A_5_Transition.txt'
  Transition density matrix of state singlet_A_6 printed to ASCII file 'State_singlet_A_6_Transition.txt'
  Transition density matrix of state singlet_A_7 printed to ASCII file 'State_singlet_A_7_Transition.txt'
  Transition density matrix of state singlet_A_8 printed to ASCII file 'State_singlet_A_8_Transition.txt'
  Transition density matrix of state singlet_A_9 printed to ASCII file 'State_singlet_A_9_Transition.txt'
  Transition density matrix of state singlet_A_10 printed to ASCII file 'State_singlet_A_10_Transition.txt'
  Transition properties ...  CPU 0.34 s  wall 0.68 s
  Difference density matrix of state singlet_A_1 printed to ASCII file 'State_singlet_A_1_Difference.txt'
  Total density matrix of state singlet_A_1 printed to ASCII file 'State_singlet_A_1_Total.txt'
  Difference density matrix of state singlet_A_2 printed to ASCII file 'State_singlet_A_2_Difference.txt'
  Total density matrix of state singlet_A_2 printed to ASCII file 'State_singlet_A_2_Total.txt'
  Difference density matrix of state singlet_A_3 printed to ASCII file 'State_singlet_A_3_Difference.txt'
  Total density matrix of state singlet_A_3 printed to ASCII file 'State_singlet_A_3_Total.txt'
  Difference density matrix of state singlet_A_4 printed to ASCII file 'State_singlet_A_4_Difference.txt'
  Total density matrix of state singlet_A_4 printed to ASCII file 'State_singlet_A_4_Total.txt'
  Difference density matrix of state singlet_A_5 printed to ASCII file 'State_singlet_A_5_Difference.txt'
  Total density matrix of state singlet_A_5 printed to ASCII file 'State_singlet_A_5_Total.txt'
  Difference density matrix of state singlet_A_6 printed to ASCII file 'State_singlet_A_6_Difference.txt'
  Total density matrix of state singlet_A_6 printed to ASCII file 'State_singlet_A_6_Total.txt'
  Difference density matrix of state singlet_A_7 printed to ASCII file 'State_singlet_A_7_Difference.txt'
  Total density matrix of state singlet_A_7 printed to ASCII file 'State_singlet_A_7_Total.txt'
  Difference density matrix of state singlet_A_8 printed to ASCII file 'State_singlet_A_8_Difference.txt'
  Total density matrix of state singlet_A_8 printed to ASCII file 'State_singlet_A_8_Total.txt'
  Difference density matrix of state singlet_A_9 printed to ASCII file 'State_singlet_A_9_Difference.txt'
  Total density matrix of state singlet_A_9 printed to ASCII file 'State_singlet_A_9_Total.txt'
  Difference density matrix of state singlet_A_10 printed to ASCII file 'State_singlet_A_10_Difference.txt'
  Total density matrix of state singlet_A_10 printed to ASCII file 'State_singlet_A_10_Total.txt'
  Properties ...  CPU 0.61 s  wall 1.04 s
  ISR TDMS ...  CPU 27.18 s  wall 8.76 s
  ISR transition properties ...  CPU 0.63 s  wall 0.28 s
  Sum-over-states TPA ...  CPU 0.00 s  wall 0.00 s

--------------------------------------------------------------------------------
                   State-averaged natural transition orbitals
--------------------------------------------------------------------------------
--------------------------------------------------------------------------------
  SA-NTO decomposition ...  CPU 0.01 s  wall 0.04 s

--------------------------------------------------------------------------------
                             Excited State Summary
--------------------------------------------------------------------------------
--------------------------------------------------------------------------------

  Excited state 1 (singlet, A)                                     [converged]
  ----------------------------------------------------------------------------
  Term symbol:  2 (1) A                                     R^2 =  2.65495e-09

  Total energy:                                            -77.9992329954 a.u.
  Excitation energy:                                               8.731818 eV

  Osc. strength:                                                      0.446213
  Trans. dip. moment [a.u.]:           [   1.047188,   -0.994554,   -0.009711]
  <i|r^2|0> [a.u.]:                    [   6.175333,   -0.241375,    0.000162]
  Two-photon absorption cross-section (SoS) [a.u.]:                   0.000271
  Two-photon absorption matrix (SoS) [a.u.]:
                                       |   -0.005785   -0.000312   -0.000259 |
                                       |   -0.000312    0.005807    0.000408 |
                                       |   -0.000259    0.000408    0.000044 |
  Two-photon absorption cross-section [a.u.]:                         0.000297
  Two-photon absorption matrix [a.u.]:
                                       |   -0.006055   -0.000300   -0.000564 |
                                       |   -0.000300    0.006061    0.000143 |
                                       |   -0.000564    0.000143   -0.000024 |

  Dip. moment [a.u.]:                  [  -0.000780,   -0.000814,   -0.000067]
  Total dipole [Debye]:                                               0.002871
  <r^2> [a.u.]:                        [ 176.642025,   36.020943,   11.918939]
  Total <r^2> [a.u.]:                                               224.581907

  V1^2 = 0.9713, V2^2 = 0.0287

  Important amplitudes:
      occ i     occ j     vir a      vir b          v   
    -----------------------------------------------------
     8 (A) A              9 (A) A                 0.6809
     6 (A) A             14 (A) A                 0.0617
     4 (A) A             10 (A) A                -0.0614
     7 (A) A             16 (A) A                -0.0575
     5 (A) A             13 (A) A                -0.0527
     6 (A) A             23 (A) A                 0.0484
     8 (A) A             20 (A) A                 0.0348
     6 (A) A             19 (A) A                 0.0302
     3 (A) A             12 (A) A                -0.0285
     5 (A) A             22 (A) A                -0.0218
     4 (A) A             24 (A) A                -0.0188
     3 (A) A             26 (A) A                -0.0186
     7 (A) A             11 (A) A                 0.0186
     8 (A) A   8 (A) B   17 (A) A   20 (A) B     -0.0184
     8 (A) A   8 (A) B    9 (A) A   28 (A) B     -0.0168
     6 (A) A             26 (A) A                 0.0163
     7 (A) A             21 (A) A                -0.0152
     3 (A) A             14 (A) A                -0.0143
     6 (A) A             12 (A) A                -0.0136
     3 (A) A   4 (A) B    9 (A) A    9 (A) B      0.0129
     3 (A) A             19 (A) A                -0.0121
     8 (A) A   8 (A) B   18 (A) A   19 (A) B      0.0111
     7 (A) A             32 (A) A                -0.0097
     7 (A) A             36 (A) A                 0.0086
     3 (A) A             23 (A) A                -0.0082
     8 (A) A   8 (A) B   25 (A) A   29 (A) B     -0.0076
     6 (A) A             35 (A) A                -0.0072
     6 (A) A             40 (A) A                 0.0067
     3 (A) A   6 (A) B    9 (A) A   28 (A) B      0.0065
     5 (A) A   8 (A) B   11 (A) A    9 (A) B     -0.0062
     7 (A) A   8 (A) B   13 (A) A   20 (A) B     -0.0060
     5 (A) A   8 (A) B   11 (A) A   20 (A) B      0.0060
     5 (A) A   7 (A) B    9 (A) A    9 (A) B      0.0060
     6 (A) A   8 (A) A   19 (A) A   28 (A) A      0.0060
     5 (A) A             27 (A) A                 0.0060
     5 (A) A   8 (A) B   16 (A) A    9 (A) B     -0.0059
     3 (A) A   5 (A) B    9 (A) A   25 (A) B     -0.0058
     7 (A) A   8 (A) B   22 (A) A   20 (A) B     -0.0057
     3 (A) A             40 (A) A                -0.0056
     8 (A) A   8 (A) B   19 (A) A   30 (A) B      0.0056
    -----------------------------------------------------

  Density matrix analysis:
  ------------------------
  NOs
    Occupation of frontier NOs:
       0.9491   1.0219
    Number of electrons: 16.000000
    Number of unpaired electrons: n_u =  2.31678, n_u,nl =  2.03329
    NO participation ratio (PR_NO):  2.874072
  
  
  Mulliken Population Analysis
  Atom      Charge (e)              h+              e-           Del q
  --------------------------------------------------------------------
   1 H        0.063550        0.020463       -0.012407        0.008056
   2 C       -0.125970        0.490665       -0.506703       -0.016038
   3 H        0.062424        0.020413       -0.012430        0.007983
   4 C       -0.125975        0.490664       -0.506704       -0.016040
   5 H        0.063558        0.020464       -0.012406        0.008058
   6 H        0.062412        0.020412       -0.012431        0.007981
  --------------------------------------------------------------------
  Sum:        0.000000        1.063082       -1.063082       -0.000000
  
  Multipole moment analysis of the density matrix
    Molecular charge:                      0.000000
    Number of electrons:                   16.000000
      Center of electronic charge [Ang]: [ -1.561516,  -0.065473,   0.002107]
    Total nuclear charge:                  16.000000
      Center of nuclear charge [Ang]:    [ -1.561542,  -0.065500,   0.002104]
    Dipole moment [D]:                     0.002871
      Cartesian components [D]:          [ -0.001982,  -0.002070,  -0.000171]
    RMS size of the density [Ang]:         1.219820
      Cartesian components [Ang]:        [  0.808219,   0.791293,   0.456726]
  
  Exciton analysis of the difference density matrix
    <r_h> [Ang]:                  [ -1.561803,  -0.065778,   0.002067]
    <r_e> [Ang]:                  [ -1.561875,  -0.065853,   0.002057]
    |<r_e - r_h>| [Ang]:            0.000105
    Hole size [Ang]:                1.287296
      Cartesian components [Ang]: [  0.730184,   0.714790,   0.782967]
    Electron size [Ang]:            1.463845
      Cartesian components [Ang]: [  0.854312,   0.831685,   0.849290]

  Transition density matrix analysis:
  -----------------------------------
  
  CT numbers (Mulliken)
    omega =     0.9532
    <Phe> =    -0.1603
  
  Exciton analysis of the transition density matrix
    Trans. dipole moment [D]:             1.835448
      Cartesian components [D]:         [  1.330843,  -1.263952,  -0.012341]
    <r_h> [Ang]:                        [ -1.561916,  -0.065899,   0.002056]
    <r_e> [Ang]:                        [ -1.561838,  -0.065814,   0.002060]
    |<r_e - r_h>| [Ang]:                  0.000115
    Hole size [Ang]:                      1.214402
      Cartesian components [Ang]:       [  0.649922,   0.637059,   0.804071]
    Electron size [Ang]:                  1.486740
      Cartesian components [Ang]:       [  0.864778,   0.840558,   0.869493]
    RMS electron-hole separation [Ang]:   1.937162
      Cartesian components [Ang]:       [  1.106769,   1.076278,   1.170165]
    Covariance(r_h, r_e) [Ang^2]:        -0.033714
    Correlation coefficient:             -0.018673
    Center-of-mass size [Ang]:            0.951018
      Cartesian components [Ang]:       [  0.528095,   0.516331,   0.599127]

  Decomposition into state-averaged NTOs
    H- 0 -> L+ 0:  0.6697 ( 89.7%)
    H- 2 -> L+ 5:  0.0830 (  1.4%)
                   omega =  95.3%
  ----------------------------------------------------------------------------


  Excited state 2 (singlet, A)                                     [converged]
  ----------------------------------------------------------------------------
  Term symbol:  3 (1) A                                     R^2 =  2.96626e-11

  Total energy:                                            -77.9911310490 a.u.
  Excitation energy:                                               8.952283 eV

  Osc. strength:                                                      0.000024
  Trans. dip. moment [a.u.]:           [  -0.000062,    0.001144,   -0.010381]
  <i|r^2|0> [a.u.]:                    [  -0.066287,   -0.086523,    0.152809]
  Two-photon absorption cross-section (SoS) [a.u.]:                   4.570605
  Two-photon absorption matrix (SoS) [a.u.]:
                                       |   -0.049974   -0.057443    0.514737 |
                                       |   -0.057443   -0.065553    0.541295 |
                                       |    0.514737    0.541295    0.115532 |
  Two-photon absorption cross-section [a.u.]:                         0.171591
  Two-photon absorption matrix [a.u.]:
                                       |    0.008879    0.011087   -0.099798 |
                                       |    0.011087    0.013510   -0.104810 |
                                       |   -0.099798   -0.104810   -0.022382 |

  Dip. moment [a.u.]:                  [  -0.008700,   -0.009072,   -0.000930]
  Total dipole [Debye]:                                               0.032035
  <r^2> [a.u.]:                        [ 174.936940,   34.370950,   13.212833]
  Total <r^2> [a.u.]:                                               222.520724

  V1^2 = 0.9541, V2^2 = 0.0459

  Important amplitudes:
      occ i     occ j     vir a      vir b          v   
    -----------------------------------------------------
     7 (A) A              9 (A) A                -0.6682
     8 (A) A             11 (A) A                -0.1514
     7 (A) A             20 (A) A                -0.0756
     5 (A) A   8 (A) B    9 (A) A    9 (A) B     -0.0315
     8 (A) A             16 (A) A                -0.0281
     8 (A) A             10 (A) A                 0.0193
     8 (A) A             21 (A) A                 0.0178
     5 (A) A             28 (A) A                -0.0150
     4 (A) A   7 (A) B    9 (A) A   19 (A) B      0.0136
     5 (A) A   7 (A) B    9 (A) A   16 (A) B     -0.0134
     7 (A) A   8 (A) B   20 (A) A   17 (A) B      0.0106
     7 (A) A   8 (A) A    9 (A) A   28 (A) A     -0.0098
     5 (A) A   8 (A) B    9 (A) A   20 (A) B     -0.0094
     4 (A) A   6 (A) B    9 (A) A   16 (A) B     -0.0091
     5 (A) A   6 (A) A    9 (A) A   23 (A) A      0.0090
     5 (A) A   6 (A) A    9 (A) A   14 (A) A      0.0089
     5 (A) A   6 (A) B    9 (A) A   19 (A) B      0.0086
     8 (A) A   7 (A) B    9 (A) A   28 (A) B      0.0085
     6 (A) A   7 (A) B    9 (A) A   18 (A) B     -0.0085
     4 (A) A   5 (A) A    9 (A) A   10 (A) A      0.0085
     3 (A) A   7 (A) B    9 (A) A   18 (A) B     -0.0080
     5 (A) A   6 (A) B    9 (A) A   23 (A) B      0.0080
     5 (A) A   7 (A) A    9 (A) A   16 (A) A     -0.0078
     4 (A) A   8 (A) B    9 (A) A   25 (A) B      0.0076
     4 (A) A   7 (A) B   19 (A) A    9 (A) B      0.0075
     7 (A) A   8 (A) B   17 (A) A   20 (A) B      0.0074
     5 (A) A   5 (A) B    9 (A) A   13 (A) B     -0.0072
     7 (A) A   8 (A) B   19 (A) A   18 (A) B     -0.0071
     4 (A) A   5 (A) B    9 (A) A   18 (A) B     -0.0069
     5 (A) A   8 (A) A    9 (A) A   20 (A) A     -0.0068
     7 (A) A   7 (A) B   20 (A) A   22 (A) B      0.0066
     7 (A) A   8 (A) B   17 (A) A    9 (A) B      0.0065
     5 (A) A   6 (A) B    9 (A) A   14 (A) B      0.0063
     5 (A) A   7 (A) B   11 (A) A   20 (A) B     -0.0062
     4 (A) A   5 (A) B   10 (A) A    9 (A) B     -0.0061
     4 (A) A   7 (A) A    9 (A) A   19 (A) A      0.0061
     5 (A) A             38 (A) A                -0.0059
     4 (A) A   6 (A) B   16 (A) A    9 (A) B     -0.0058
     4 (A) A   8 (A) A    9 (A) A   25 (A) A      0.0057
     6 (A) A   7 (A) A   19 (A) A   28 (A) A     -0.0056
    -----------------------------------------------------

  Density matrix analysis:
  ------------------------
  NOs
    Occupation of frontier NOs:
       0.9552   1.0561
    Number of electrons: 16.000000
    Number of unpaired electrons: n_u =  2.35842, n_u,nl =  2.06546
    NO participation ratio (PR_NO):  3.050008
  
  
  Mulliken Population Analysis
  Atom      Charge (e)              h+              e-           Del q
  --------------------------------------------------------------------
   1 H        0.153520        0.126193       -0.028167        0.098026
   2 C       -0.309625        0.272551       -0.472244       -0.199693
   3 H        0.156100        0.123432       -0.021774        0.101658
   4 C       -0.309628        0.272565       -0.472257       -0.199692
   5 H        0.153510        0.126180       -0.028170        0.098010
   6 H        0.156122        0.123462       -0.021770        0.101692
  --------------------------------------------------------------------
  Sum:        0.000000        1.044384       -1.044384        0.000000
  
  Multipole moment analysis of the density matrix
    Molecular charge:                      0.000000
    Number of electrons:                   16.000000
      Center of electronic charge [Ang]: [ -1.561254,  -0.065200,   0.002135]
    Total nuclear charge:                  16.000000
      Center of nuclear charge [Ang]:    [ -1.561542,  -0.065500,   0.002104]
    Dipole moment [D]:                     0.032035
      Cartesian components [D]:          [ -0.022112,  -0.023060,  -0.002364]
    RMS size of the density [Ang]:         1.205296
      Cartesian components [Ang]:        [  0.790059,   0.772853,   0.480878]
  
  Exciton analysis of the difference density matrix
    <r_h> [Ang]:                  [ -1.557180,  -0.060868,   0.002596]
    <r_e> [Ang]:                  [ -1.553241,  -0.056761,   0.003023]
    |<r_e - r_h>| [Ang]:            0.005707
    Hole size [Ang]:                1.496133
      Cartesian components [Ang]: [  1.013781,   1.001140,   0.456488]
    Electron size [Ang]:            1.480923
      Cartesian components [Ang]: [  0.885017,   0.862773,   0.815783]

  Transition density matrix analysis:
  -----------------------------------
  
  CT numbers (Mulliken)
    omega =     0.9214
    <Phe> =    -0.0114
  
  Exciton analysis of the transition density matrix
    Trans. dipole moment [D]:             0.013274
      Cartesian components [D]:         [ -0.000079,   0.001454,  -0.013194]
    <r_h> [Ang]:                        [ -1.556977,  -0.060647,   0.002621]
    <r_e> [Ang]:                        [ -1.552934,  -0.056443,   0.003054]
    |<r_e - r_h>| [Ang]:                  0.005848
    Hole size [Ang]:                      1.526844
      Cartesian components [Ang]:       [  1.038425,   1.025745,   0.448077]
    Electron size [Ang]:                  1.476389
      Cartesian components [Ang]:       [  0.874060,   0.851043,   0.831548]
    RMS electron-hole separation [Ang]:   2.104000
      Cartesian components [Ang]:       [  1.341348,   1.317884,   0.943814]
    Covariance(r_h, r_e) [Ang^2]:         0.042097
    Correlation coefficient:              0.018675
    Center-of-mass size [Ang]:            1.071817
      Cartesian components [Ang]:       [  0.686552,   0.673805,   0.472679]

  Decomposition into state-averaged NTOs
    H- 1 -> L+ 0: -0.6605 ( 87.2%)
    H- 0 -> L+ 2: -0.1519 (  4.6%)
                   omega =  92.1%
  ----------------------------------------------------------------------------


  Excited state 3 (singlet, A)                                     [converged]
  ----------------------------------------------------------------------------
  Term symbol:  4 (1) A                                     R^2 =  1.20513e-10

  Total energy:                                            -77.9841813978 a.u.
  Excitation energy:                                               9.141393 eV

  Osc. strength:                                                      0.023530
  Trans. dip. moment [a.u.]:           [  -0.015404,   -0.019635,    0.323175]
  <i|r^2|0> [a.u.]:                    [  -0.092306,   -0.007191,    0.001170]
  Two-photon absorption cross-section (SoS) [a.u.]:                   0.011883
  Two-photon absorption matrix (SoS) [a.u.]:
                                       |    0.003936    0.003005   -0.026150 |
                                       |    0.003005    0.001899   -0.027655 |
                                       |   -0.026150   -0.027655   -0.006030 |
  Two-photon absorption cross-section [a.u.]:                         0.011278
  Two-photon absorption matrix [a.u.]:
                                       |    0.003424    0.002932   -0.025481 |
                                       |    0.002932    0.002157   -0.026957 |
                                       |   -0.025481   -0.026957   -0.005824 |

  Dip. moment [a.u.]:                  [  -0.048889,   -0.051373,   -0.005473]
  Total dipole [Debye]:                                               0.180791
  <r^2> [a.u.]:                        [ 181.129593,   40.991142,   11.059172]
  Total <r^2> [a.u.]:                                               233.179908

  V1^2 = 0.9580, V2^2 = 0.0420

  Important amplitudes:
      occ i     occ j     vir a      vir b          v   
    -----------------------------------------------------
     8 (A) A             10 (A) A                -0.6884
     8 (A) A             24 (A) A                -0.0508
     8 (A) A             18 (A) A                 0.0331
     4 (A) A              9 (A) A                 0.0247
     8 (A) A   8 (A) B    9 (A) A   12 (A) B      0.0223
     7 (A) A              9 (A) A                -0.0208
     8 (A) A   8 (A) B   10 (A) A   17 (A) B     -0.0172
     5 (A) A   8 (A) B   11 (A) A   10 (A) B      0.0169
     8 (A) A             15 (A) A                -0.0149
     7 (A) A   8 (A) B   13 (A) A   10 (A) B     -0.0143
     4 (A) A   8 (A) B   12 (A) A   10 (A) B     -0.0113
     6 (A) A   8 (A) A   10 (A) A   15 (A) A     -0.0112
     7 (A) A   8 (A) B   22 (A) A   10 (A) B     -0.0109
     6 (A) A   8 (A) B   15 (A) A   10 (A) B      0.0109
     4 (A) A   8 (A) A   10 (A) A   12 (A) A      0.0108
     7 (A) A   8 (A) A   10 (A) A   22 (A) A      0.0099
     7 (A) A   8 (A) A   10 (A) A   13 (A) A      0.0098
     5 (A) A   8 (A) A   10 (A) A   11 (A) A     -0.0097
     5 (A) A   8 (A) B   21 (A) A   10 (A) B     -0.0093
     6 (A) A   8 (A) B   10 (A) A   10 (A) B     -0.0090
     6 (A) A   8 (A) A   10 (A) A   18 (A) A     -0.0086
     7 (A) A   8 (A) A   12 (A) A   16 (A) A     -0.0084
     3 (A) A   4 (A) B   10 (A) A    9 (A) B     -0.0080
     5 (A) A   8 (A) A   10 (A) A   21 (A) A      0.0079
     4 (A) A   8 (A) B   19 (A) A   10 (A) B     -0.0075
     8 (A) A   8 (A) B    9 (A) A   23 (A) B     -0.0075
     8 (A) A   8 (A) B   10 (A) A   28 (A) B      0.0074
     5 (A) A   8 (A) B   10 (A) A   11 (A) B      0.0072
     7 (A) A   8 (A) B   16 (A) A   12 (A) B      0.0072
     3 (A) A   8 (A) A   10 (A) A   24 (A) A      0.0072
     3 (A) A   8 (A) B   10 (A) A   10 (A) B     -0.0071
     8 (A) A   8 (A) B    9 (A) A   19 (A) B      0.0070
     3 (A) A   8 (A) B   10 (A) A   18 (A) B      0.0068
     6 (A) A   8 (A) B   18 (A) A   10 (A) B      0.0065
     3 (A) A   6 (A) B   10 (A) A   28 (A) B     -0.0062
     7 (A) A   8 (A) B   12 (A) A   11 (A) B      0.0059
     6 (A) A             28 (A) A                 0.0058
     5 (A) A   8 (A) A   10 (A) A   16 (A) A     -0.0057
     3 (A) A   5 (A) B   10 (A) A   25 (A) B      0.0056
     6 (A) A   8 (A) A   11 (A) A   16 (A) A      0.0055
    -----------------------------------------------------

  Density matrix analysis:
  ------------------------
  NOs
    Occupation of frontier NOs:
       0.9821   0.9838
    Number of electrons: 16.000000
    Number of unpaired electrons: n_u =  2.29047, n_u,nl =  2.02545
    NO participation ratio (PR_NO):  2.705424
  
  
  Mulliken Population Analysis
  Atom      Charge (e)              h+              e-           Del q
  --------------------------------------------------------------------
   1 H       -0.162145        0.054145       -0.271784       -0.217640
   2 C        0.309502        0.537131       -0.117697        0.419434
   3 H       -0.147362        0.054675       -0.256479       -0.201804
   4 C        0.309498        0.537125       -0.117691        0.419433
   5 H       -0.162124        0.054147       -0.271771       -0.217624
   6 H       -0.147369        0.054674       -0.256474       -0.201800
  --------------------------------------------------------------------
  Sum:        0.000000        1.291897       -1.291897       -0.000000
  
  Multipole moment analysis of the density matrix
    Molecular charge:                      0.000000
    Number of electrons:                   16.000000
      Center of electronic charge [Ang]: [ -1.559925,  -0.063801,   0.002285]
    Total nuclear charge:                  16.000000
      Center of nuclear charge [Ang]:    [ -1.561542,  -0.065500,   0.002104]
    Dipole moment [D]:                     0.180791
      Cartesian components [D]:          [ -0.124264,  -0.130577,  -0.013910]
    RMS size of the density [Ang]:         1.282038
      Cartesian components [Ang]:        [  0.858327,   0.844599,   0.439943]
  
  Exciton analysis of the difference density matrix
    <r_h> [Ang]:                  [ -1.561236,  -0.065183,   0.002134]
    <r_e> [Ang]:                  [ -1.541589,  -0.044536,   0.004340]
    |<r_e - r_h>| [Ang]:            0.028586
    Hole size [Ang]:                1.413092
      Cartesian components [Ang]: [  0.836763,   0.822905,   0.787072]
    Electron size [Ang]:            2.079327
      Cartesian components [Ang]: [  1.376909,   1.380411,   0.722626]

  Transition density matrix analysis:
  -----------------------------------
  
  CT numbers (Mulliken)
    omega =     0.9250
    <Phe> =    -0.0109
  
  Exciton analysis of the transition density matrix
    Trans. dipole moment [D]:             0.411937
      Cartesian components [D]:         [ -0.019577,  -0.024953,   0.410715]
    <r_h> [Ang]:                        [ -1.563020,  -0.067061,   0.001930]
    <r_e> [Ang]:                        [ -1.534794,  -0.037397,   0.005101]
    |<r_e - r_h>| [Ang]:                  0.041070
    Hole size [Ang]:                      1.213088
      Cartesian components [Ang]:       [  0.636794,   0.624255,   0.822424]
    Electron size [Ang]:                  2.300732
      Cartesian components [Ang]:       [  1.522553,   1.528708,   0.798906]
    RMS electron-hole separation [Ang]:   2.591144
      Cartesian components [Ang]:       [  1.642928,   1.644347,   1.144961]
    Covariance(r_h, r_e) [Ang^2]:         0.026304
    Correlation coefficient:              0.009425
    Center-of-mass size [Ang]:            1.305523
      Cartesian components [Ang]:       [  0.828995,   0.829200,   0.574095]

  Decomposition into state-averaged NTOs
    H- 0 -> L+ 1:  0.6786 ( 92.1%)
                   omega =  92.5%
  ----------------------------------------------------------------------------


  Excited state 4 (singlet, A)                                     [converged]
  ----------------------------------------------------------------------------
  Term symbol:  5 (1) A                                     R^2 =  6.57808e-11

  Total energy:                                            -77.9622356864 a.u.
  Excitation energy:                                               9.738566 eV

  Osc. strength:                                                      0.000033
  Trans. dip. moment [a.u.]:           [   0.000393,    0.000860,   -0.011658]
  <i|r^2|0> [a.u.]:                    [   0.016101,    0.018437,   -0.031911]
  Two-photon absorption cross-section (SoS) [a.u.]:                 134.685626
  Two-photon absorption matrix (SoS) [a.u.]:
                                       |    0.270654    0.311785   -2.794499 |
                                       |    0.311785    0.356483   -2.938104 |
                                       |   -2.794499   -2.938104   -0.627136 |
  Two-photon absorption cross-section [a.u.]:                        80.051382
  Two-photon absorption matrix [a.u.]:
                                       |    0.209281    0.240400   -2.154314 |
                                       |    0.240400    0.274212   -2.265212 |
                                       |   -2.154314   -2.265212   -0.483490 |

  Dip. moment [a.u.]:                  [   0.067490,    0.071055,    0.007512]
  Total dipole [Debye]:                                               0.249818
  <r^2> [a.u.]:                        [ 181.932077,   41.030598,   10.787057]
  Total <r^2> [a.u.]:                                               233.749731

  V1^2 = 0.9633, V2^2 = 0.0367

  Important amplitudes:
      occ i     occ j     vir a      vir b          v   
    -----------------------------------------------------
     8 (A) A             11 (A) A                 0.6687
     7 (A) A              9 (A) A                -0.1533
     8 (A) A             21 (A) A                -0.0778
     8 (A) A             16 (A) A                 0.0674
     8 (A) A   8 (A) B    9 (A) A   13 (A) B      0.0167
     5 (A) A   8 (A) B   11 (A) A   11 (A) B     -0.0157
     7 (A) A             20 (A) A                -0.0140
     8 (A) A   8 (A) B   11 (A) A   17 (A) B      0.0137
     7 (A) A   8 (A) B   13 (A) A   11 (A) B      0.0127
     4 (A) A   8 (A) B   12 (A) A   11 (A) B      0.0111
     8 (A) A   8 (A) B    9 (A) A   22 (A) B      0.0110
     5 (A) A   8 (A) A   11 (A) A   21 (A) A     -0.0109
     7 (A) A   8 (A) A   11 (A) A   22 (A) A     -0.0095
     8 (A) A             10 (A) A                 0.0093
     6 (A) A   8 (A) B   10 (A) A   11 (A) B      0.0091
     6 (A) A   8 (A) B   15 (A) A   11 (A) B     -0.0089
     7 (A) A   8 (A) B   22 (A) A   11 (A) B      0.0089
     3 (A) A   4 (A) B   11 (A) A    9 (A) B      0.0083
     3 (A) A   8 (A) B   11 (A) A   18 (A) B     -0.0080
     6 (A) A   8 (A) A   11 (A) A   15 (A) A      0.0079
     7 (A) A   8 (A) A   13 (A) A   16 (A) A     -0.0079
     7 (A) A   8 (A) A   11 (A) A   13 (A) A     -0.0075
     4 (A) A   8 (A) B   19 (A) A   11 (A) B      0.0070
     5 (A) A   8 (A) B   21 (A) A   11 (A) B      0.0069
     5 (A) A   8 (A) B    9 (A) A    9 (A) B     -0.0069
     4 (A) A   8 (A) A   11 (A) A   12 (A) A     -0.0062
     3 (A) A   6 (A) B   11 (A) A   28 (A) B      0.0060
     6 (A) A   8 (A) A   11 (A) A   18 (A) A      0.0059
     6 (A) A   8 (A) B   18 (A) A   11 (A) B     -0.0058
     7 (A) A   8 (A) B   16 (A) A   13 (A) B      0.0057
     3 (A) A   8 (A) B   11 (A) A   30 (A) B     -0.0056
     5 (A) A   8 (A) B   10 (A) A   10 (A) B     -0.0055
     7 (A) A   8 (A) B   12 (A) A   10 (A) B     -0.0055
     8 (A) A   8 (A) B   20 (A) A   22 (A) B      0.0055
     6 (A) A   8 (A) B   11 (A) A   10 (A) B      0.0055
     3 (A) A   5 (A) B   11 (A) A   25 (A) B     -0.0054
     3 (A) A   8 (A) A   11 (A) A   18 (A) A     -0.0054
     3 (A) A   8 (A) A   11 (A) A   24 (A) A     -0.0053
     5 (A) A   8 (A) A   11 (A) A   16 (A) A      0.0049
     6 (A) A   8 (A) A   10 (A) A   16 (A) A     -0.0047
    -----------------------------------------------------

  Density matrix analysis:
  ------------------------
  NOs
    Occupation of frontier NOs:
       0.9387   1.0294
    Number of electrons: 16.000000
    Number of unpaired electrons: n_u =  2.32234, n_u,nl =  2.05100
    NO participation ratio (PR_NO):  2.932207
  
  
  Mulliken Population Analysis
  Atom      Charge (e)              h+              e-           Del q
  --------------------------------------------------------------------
   1 H       -0.111808        0.045910       -0.213213       -0.167302
   2 C        0.251278        0.495329       -0.134120        0.361209
   3 H       -0.139474        0.046116       -0.240031       -0.193915
   4 C        0.251263        0.495325       -0.134126        0.361198
   5 H       -0.112042        0.045899       -0.213442       -0.167542
   6 H       -0.139217        0.046128       -0.239775       -0.193648
  --------------------------------------------------------------------
  Sum:        0.000000        1.174707       -1.174707       -0.000000
  
  Multipole moment analysis of the density matrix
    Molecular charge:                      0.000000
    Number of electrons:                   16.000000
      Center of electronic charge [Ang]: [ -1.563774,  -0.067850,   0.001856]
    Total nuclear charge:                  16.000000
      Center of nuclear charge [Ang]:    [ -1.561542,  -0.065500,   0.002104]
    Dipole moment [D]:                     0.249818
      Cartesian components [D]:          [  0.171542,   0.180603,   0.019093]
    RMS size of the density [Ang]:         1.281031
      Cartesian components [Ang]:        [  0.859504,   0.844692,   0.434499]
  
  Exciton analysis of the difference density matrix
    <r_h> [Ang]:                  [ -1.563615,  -0.067686,   0.001867]
    <r_e> [Ang]:                  [ -1.594434,  -0.100129,  -0.001556]
    |<r_e - r_h>| [Ang]:            0.044879
    Hole size [Ang]:                1.394954
      Cartesian components [Ang]: [  0.819593,   0.806340,   0.789923]
    Electron size [Ang]:            2.113844
      Cartesian components [Ang]: [  1.419031,   1.415117,   0.672405]

  Transition density matrix analysis:
  -----------------------------------
  
  CT numbers (Mulliken)
    omega =     0.9293
    <Phe> =    -0.0146
  
  Exciton analysis of the transition density matrix
    Trans. dipole moment [D]:             0.014864
      Cartesian components [D]:         [  0.000500,   0.001093,  -0.014815]
    <r_h> [Ang]:                        [ -1.561709,  -0.065678,   0.002077]
    <r_e> [Ang]:                        [ -1.600455,  -0.106466,  -0.002225]
    |<r_e - r_h>| [Ang]:                  0.056422
    Hole size [Ang]:                      1.229152
      Cartesian components [Ang]:       [  0.661952,   0.649504,   0.806708]
    Electron size [Ang]:                  2.247351
      Cartesian components [Ang]:       [  1.508489,   1.505606,   0.712880]
    RMS electron-hole separation [Ang]:   2.551000
      Cartesian components [Ang]:       [  1.638937,   1.632035,   1.076080]
    Covariance(r_h, r_e) [Ang^2]:         0.028491
    Correlation coefficient:              0.010314
    Center-of-mass size [Ang]:            1.286311
      Cartesian components [Ang]:       [  0.828074,   0.823944,   0.538522]

  Decomposition into state-averaged NTOs
    H- 0 -> L+ 2:  0.6634 ( 88.0%)
    H- 1 -> L+ 0: -0.1512 (  4.6%)
                   omega =  92.9%
  ----------------------------------------------------------------------------


  Excited state 5 (singlet, A)                                     [converged]
  ----------------------------------------------------------------------------
  Term symbol:  6 (1) A                                     R^2 =  2.20694e-10

  Total energy:                                            -77.9468064634 a.u.
  Excitation energy:                                              10.158417 eV

  Osc. strength:                                                      0.000000
  Trans. dip. moment [a.u.]:           [  -0.000034,   -0.000021,   -0.000005]
  <i|r^2|0> [a.u.]:                    [   0.081081,   -0.097016,    0.015795]
  Two-photon absorption cross-section (SoS) [a.u.]:                 223.464372
  Two-photon absorption matrix (SoS) [a.u.]:
                                       |    0.367933    0.056024   -3.823577 |
                                       |    0.056024   -0.437528    3.625498 |
                                       |   -3.823577    3.625498    0.071072 |
  Two-photon absorption cross-section [a.u.]:                       115.442810
  Two-photon absorption matrix [a.u.]:
                                       |    0.265020    0.040652   -2.748200 |
                                       |    0.040652   -0.313865    2.605844 |
                                       |   -2.748200    2.605844    0.050958 |

  Dip. moment [a.u.]:                  [  -0.006846,   -0.007345,   -0.000772]
  Total dipole [Debye]:                                               0.025597
  <r^2> [a.u.]:                        [ 180.366303,   39.751769,   11.600258]
  Total <r^2> [a.u.]:                                               231.718330

  V1^2 = 0.9554, V2^2 = 0.0446

  Important amplitudes:
      occ i     occ j     vir a      vir b          v   
    -----------------------------------------------------
     8 (A) A             12 (A) A                -0.5697
     6 (A) A              9 (A) A                 0.3819
     8 (A) A             19 (A) A                -0.0525
     6 (A) A             20 (A) A                 0.0520
     8 (A) A             23 (A) A                 0.0293
     8 (A) A   8 (A) B    9 (A) A   10 (A) B      0.0205
     8 (A) A             26 (A) A                -0.0184
     3 (A) A              9 (A) A                -0.0158
     4 (A) A   8 (A) B    9 (A) A    9 (A) B      0.0158
     5 (A) A   8 (A) B   11 (A) A   12 (A) B      0.0149
     8 (A) A   8 (A) B   12 (A) A   17 (A) B     -0.0133
     7 (A) A   8 (A) B   13 (A) A   12 (A) B     -0.0130
     4 (A) A   8 (A) B   12 (A) A   12 (A) B     -0.0124
     5 (A) A   8 (A) A   11 (A) A   12 (A) A      0.0109
[...]
    16   -1.414468664025e-03
    17   -1.753636309780e-03
    18    4.166759501581e-04
    19   -2.889220538181e-03
    20    1.062692360396e-02
    21    9.179091128818e-01
    22   -5.837482497487e-04
    23    1.367871106219e-02
    24    7.998943393105e-04
    25    7.034599090714e-02
    26   -5.223882284971e-02
    27   -1.383530776596e+00
    28    9.776743587516e-02
    29   -9.700398254221e-02
    30   -1.195221137769e-03
    31    3.794627082151e-01
    32   -3.713729186358e-01
    33   -4.329464530043e-03
    34    1.506442456225e-02
    35   -1.440872085672e-03
    36   -1.719911118524e-03
    37   -1.445774267498e-04
    38   -2.917065423810e-03
    39    1.239678035720e-02
    40    9.375032423217e-01
    41    4.339600446078e-04
    42   -1.377271407706e-02
    43   -8.123023260632e-04
    44    1.062631875239e-02
    45    9.179033520482e-01
    46    1.369699667154e-02
    47    1.170349345192e-04
    48    6.629613029969e-04
Sym=X
Ene= 0.231049
Spin=Alpha
Occup=0
     1   -3.030226482557e-02
     2   -1.153607335976e+00
     3    1.264512473674e-02
     4    3.427667230541e-03
     5    8.146354920245e-04
     6    8.433689838164e-04
     7   -5.445205690346e-04
     8   -2.343931846500e-02
     9    1.536950915510e-01
    10    1.634115905601e-01
    11    1.726724632225e-02
    12    5.247545581679e-01
    13    5.628729457178e-01
    14    5.926187326879e-02
    15    3.847257665863e-04
    16   -1.161030784992e-04
    17    2.630648852794e-05
    18   -1.371946476600e-03
    19   -2.728130861671e-04
    20    2.944148162827e-02
    21    1.183142799517e+00
    22    2.916880029941e-03
    23    1.342562486103e-02
    24    9.524118529875e-04
    25    7.291852670650e-04
    26   -4.231511574273e-04
    27   -2.163534420263e-02
    28    1.553698321884e-01
    29    1.618238617552e-01
    30    1.722374034237e-02
    31    5.352613609638e-01
    32    5.528489808446e-01
    33    5.904832029713e-02
    34    3.610990539496e-04
    35    3.254083642558e-05
    36   -1.257755418591e-04
    37    1.390252904608e-03
    38   -1.185407100857e-04
    39   -3.033297568769e-02
    40   -1.154897498875e+00
    41    2.790227502771e-03
    42    1.281397516028e-02
    43    9.078840960221e-04
    44    2.941079294937e-02
    45    1.181774080010e+00
    46    1.324953673452e-02
    47    3.585024551732e-03
    48    8.515759014367e-04
Sym=X
Ene= 0.236440
Spin=Alpha
Occup=0
     1    1.910021537174e-02
     2    1.071073026847e+00
     3   -1.579965036770e-02
     4   -9.242255419892e-03
     5   -1.316910125591e-03
     6    8.712200966203e-02
     7   -8.232753897551e-02
     8   -1.545014203979e+00
     9   -5.967824807677e-02
    10    5.508557065906e-02
    11    4.662261844526e-04
    12   -2.430261979119e-01
    13    2.288100304325e-01
    14    2.157620593018e-03
    15    2.128183895046e-02
    16   -2.504565091254e-03
    17   -2.879125442468e-03
    18    6.403845219907e-04
    19   -1.240999850512e-02
    20    1.950090885976e-02
    21    1.073247288728e+00
    22    8.364865589598e-03
    23    1.640818707885e-02
    24    1.393673612320e-03
    25   -8.712247587348e-02
    26    8.232538286524e-02
    27    1.545058236926e+00
    28   -5.829034577913e-02
    29    5.655152370419e-02
    30    6.355804254622e-04
    31   -2.417632883167e-01
    32    2.301800063953e-01
    33    2.358142038587e-03
    34   -2.128290815712e-02
    35    2.505055578386e-03
    36    2.876414808004e-03
    37   -5.881791107138e-04
    38    1.241272318924e-02
    39   -1.906971426076e-02
    40   -1.069560419718e+00
    41    8.426176847008e-03
    42    1.622443434539e-02
    43    1.385939223816e-03
    44   -1.952718746842e-02
    45   -1.074812070045e+00
    46   -1.598742558964e-02
    47   -9.192236147401e-03
    48   -1.321501776628e-03
Sym=X
Ene= 0.302961
Spin=Alpha
Occup=0
     1   -2.061670962416e-02
     2    1.652320140326e+00
     3   -2.344683032997e-02
     4    4.564289697043e-04
     5   -1.099800750397e-03
     6   -5.659990391985e-05
     7   -1.249905525107e-04
     8    1.034385075000e-02
     9   -1.356733615899e-01
    10   -1.426032906286e-01
    11   -1.513817365932e-02
    12   -1.124196240809e+00
    13   -1.183970504225e+00
    14   -1.255405252710e-01
    15   -1.779628835448e-04
    16   -1.715699502549e-03
    17    2.005171336423e-03
    18   -3.408625452658e-02
    19   -1.579891969578e-03
    20    2.152136498292e-02
    21   -1.663336444327e+00
    22    1.553864998380e-03
    23   -2.350683879943e-02
    24   -1.345220449988e-03
    25    5.825833054748e-05
    26    1.198828584418e-04
    27   -1.037262068007e-02
    28    1.355633442730e-01
    29    1.427174866285e-01
    30    1.512486225460e-02
    31    1.125664112529e+00
    32    1.182578500349e+00
    33    1.254773637315e-01
    34    2.433290365361e-04
    35   -1.766822272061e-03
    36    1.945682241546e-03
    37   -3.406911454377e-02
    38   -1.903850259429e-03
    39    2.061393902922e-02
    40   -1.652333922006e+00
    41   -1.652879480181e-03
    42    2.338101823769e-02
    43    1.332452351678e-03
    44   -2.151730549375e-02
    45    1.663372447601e+00
    46    2.356779078860e-02
    47   -3.526331453667e-04
    48    1.110130615459e-03
Sym=X
Ene= 0.462776
Spin=Alpha
Occup=0
     1   -1.150469142255e-01
     2   -6.910291175961e-01
     3   -1.498258982556e-02
     4   -1.028983008202e-02
     5   -1.342250123983e-03
     6    6.251461273208e-02
     7    1.658712271897e-02
     8   -3.641075788979e+00
     9    1.044255373529e-01
    10   -9.900102078547e-02
    11   -9.838018185171e-04
    12    2.429026925423e+00
    13   -2.315507403640e+00
    14   -2.306396527543e-02
    15    5.296943457852e-02
    16   -3.274817040633e-03
    17   -4.528869479339e-03
    18   -1.260634153178e-03
    19    2.011019954093e-02
    20   -1.137944214186e-01
    21   -7.065719846903e-01
    22    9.556722987011e-03
    23    1.545029775115e-02
    24    1.392892682271e-03
    25   -6.251543018374e-02
    26   -1.658057775568e-02
    27    3.641070526445e+00
    28    1.042704449523e-01
    29   -9.918468689969e-02
    30   -1.010223599205e-03
    31    2.437572801648e+00
    32   -2.306471894829e+00
    33   -2.214244535972e-02
    34   -5.296434574904e-02
    35    3.251612151452e-03
    36    4.543815589741e-03
    37    8.951558480182e-04
    38   -2.013439223703e-02
    39    1.149782751397e-01
    40    6.911048717865e-01
    41    9.521697532594e-03
    42    1.547664133542e-02
    43    1.390843467758e-03
    44    1.137994562632e-01
    45    7.065611384025e-01
    46   -1.495264971000e-02
    47   -1.032043023579e-02
    48   -1.341368689787e-03
Sym=X
Ene= 0.579806
Spin=Alpha
Occup=0
     1    2.338099017481e-01
     2    4.690387020445e-02
     3   -2.271657670594e-02
     4    2.743903127576e-02
     5    5.668503216520e-04
     6   -6.251628597188e-03
     7   -1.689909595009e-01
     8   -4.174211367439e-01
     9    3.052674005503e-01
    10   -2.905160069677e-01
    11   -2.872346517585e-03
    12   -7.444963713062e-01
    13    7.145043572636e-01
    14    7.417196161433e-03
    15   -1.977112311117e-03
    16    3.601812051663e-03
    17    3.337328355426e-03
    18   -3.945607833938e-03
    19    5.974072447820e-02
    20    2.416821257397e-01
    21    4.886270301686e-02
    22   -2.758900202886e-02
    23    2.003553770377e-02
    24   -1.145695315316e-04
    25   -6.258805351030e-03
    26   -1.689941392284e-01
    27   -4.170979443120e-01
    28   -3.058756724543e-01
    29    2.898509331741e-01
    30    2.801680665416e-03
    31    7.522771248999e-01
    32   -7.067862817150e-01
    33   -6.584850579728e-03
    34   -1.977913327290e-03
    35    3.693551802716e-03
    36    3.232697776663e-03
    37   -2.144381410299e-03
    38    5.983271530477e-02
    39    2.337566598683e-01
    40    4.704916038011e-02
    41    2.858073775108e-02
    42   -2.128132541872e-02
    43    8.599508240194e-05
    44    2.417150919729e-01
    45    4.892614126656e-02
    46    2.142482765906e-02
    47   -2.651835749250e-02
    48   -5.738523027661e-04
Sym=X
Ene= 0.608869
Spin=Alpha
Occup=0
     1   -5.248355586914e-01
     2    2.503807596027e-01
     3   -5.959546711314e-02
     4    3.671530953359e-02
     5   -6.432384839195e-04
     6   -2.991480072600e-05
     7    2.144836394500e-03
     8   -3.068847440772e-03
     9   -3.689666359999e-02
    10   -3.629979611417e-02
    11   -3.961037720043e-03
    12    2.643756532636e-01
    13    2.716552308389e-01
    14    2.913829858022e-02
    15    1.140097416134e-03
    16   -7.741918303573e-03
    17    8.449814949983e-03
    18   -1.485277270209e-01
    19   -8.639285231166e-03
    20    5.138437996655e-01
    21   -2.400338298272e-01
    22    4.039498993808e-02
    23   -5.741997576379e-02
    24   -1.527934590467e-03
    25   -3.770679017417e-05
    26    2.171895011504e-03
    27   -3.465145191753e-03
    28   -3.437357609404e-02
    29   -3.870168794396e-02
    30   -3.992522885507e-03
    31    2.577322410137e-01
    32    2.780141712404e-01
    33    2.914245801903e-02
    34    9.001339555935e-04
    35    7.443091781176e-03
    36   -8.776653809782e-03
    37    1.486389751349e-01
    38    6.558852198187e-03
    39   -5.249611340513e-01
    40    2.504404186581e-01
    41    3.971893403635e-02
    42   -5.762222818719e-02
    43   -1.576270086743e-03
    44    5.137554932979e-01
    45   -2.400218209260e-01
    46   -5.942892484465e-02
    47    3.739573411706e-02
    48   -5.939629965105e-04
Sym=X
Ene= 0.688651
Spin=Alpha
Occup=0
     1    4.500227680109e-05
     2    3.108432432309e-05
     3    8.809008494354e-04
     4    1.114164991017e-03
     5   -1.832041486379e-02
     6    2.431612647980e-06
     7   -2.924441416369e-06
     8    5.609858546131e-05
     9    3.221911110131e-02
    10    4.052867617797e-02
    11   -6.706311089472e-01
    12   -2.954799984001e-02
    13   -3.692504699986e-02
    14    6.126555543345e-01
    15   -1.339429530803e-03
    16    8.256698812585e-02
    17   -7.839974373956e-02
    18   -8.698755582076e-03
    19   -1.203133104826e-03
    20    3.963470933612e-05
    21    5.914017078325e-05
    22    9.225641295341e-04
    23    1.165779679728e-03
    24   -1.927351418138e-02
    25   -5.638117064940e-07
    26    3.243665939963e-05
    27   -7.795109194716e-05
    28    3.220102443224e-02
    29    4.049405615989e-02
    30   -6.706327890933e-01
    31   -2.952040215211e-02
    32   -3.688605906579e-02
    33    6.126573844065e-01
    34    1.315483827557e-03
    35   -8.263208397604e-02
    36    7.833158963170e-02
    37    8.706884303236e-03
    38    1.215126191338e-03
    39   -1.938963670793e-05
    40   -4.955635649553e-05
    41    8.744387459608e-04
    42    1.112757967957e-03
    43   -1.831731516333e-02
    44   -1.351510900324e-05
    45   -7.705758400898e-05
    46    9.166565585941e-04
    47    1.165228680680e-03
    48   -1.927836073006e-02
Sym=X
Ene= 0.704768
Spin=Alpha
Occup=0
     1   -4.856329658809e-01
     2    1.708563172675e-01
     3   -7.780710906403e-02
     4   -4.480068118449e-02
     5   -6.450485243932e-03
     6   -4.595867136354e-02
     7   -3.013196963904e-01
     8    4.638029268736e-01
     9    1.980005790899e-01
    10   -1.838647646415e-01
    11   -1.615545024617e-03
    12   -6.524047191705e-02
    13    4.698251038343e-02
    14   -3.478227269819e-04
    15    1.911393780256e-01
    16   -2.044318471433e-02
    17   -2.408985745071e-02
    18    4.357655974388e-03
    19   -7.658546167414e-02
    20   -4.902253100096e-01
    21    1.567440419361e-01
    22    3.988466954397e-02
    23    8.052650562621e-02
    24    6.776780924194e-03
    25   -4.595127916183e-02
    26   -3.013282686961e-01
    27    4.635195626094e-01
    28   -1.937913046921e-01
    29    1.882967951767e-01
    30    2.045286763454e-03
    31    4.991872077272e-02
    32   -6.270780857166e-02
    33   -1.293055797932e-03
    34    1.911383902085e-01
    35   -2.049504172846e-02
    36   -2.400742802003e-02
    37    3.142090629916e-03
    38   -7.663762932588e-02
    39   -4.856275064926e-01
    40    1.709346373510e-01
    41   -4.078816737386e-02
    42   -7.996223953058e-02
    43   -6.783620789491e-03
    44   -4.901790757942e-01
    45    1.564940430837e-01
    46    7.841061530127e-02
    47    4.392479952676e-02
    48    6.421230775365e-03
Sym=X
Ene= 0.775729
Spin=Alpha
Occup=0
     1    5.421662555779e-01
     2   -4.934408014397e-01
     3    1.086422889696e-01
     4    2.641550347824e-02
     5    6.817714055460e-03
     6    8.893087245767e-02
     7   -2.266917518904e-01
     8   -5.668155322177e-01
     9    9.920252703461e-02
    10   -1.028050429855e-01
    11   -1.409269586179e-03
    12    3.056821419380e-01
    13   -2.674907663154e-01
    14   -1.504793173595e-03
    15   -2.032091968028e-01
    16    1.751141486798e-02
    17    2.173484785635e-02
    18    6.386302386005e-04
    19    7.707931807019e-03
    20    5.352530314543e-01
    21   -4.679675859516e-01
    22   -2.100524727552e-02
    23   -1.079705178216e-01
    24   -7.532871014747e-03
    25   -8.893359444727e-02
    26    2.266757473832e-01
    27    5.669011915563e-01
    28    1.078287144180e-01
    29   -9.373455666015e-02
    30   -4.803886719673e-04
    31    2.826735068450e-01
    32   -2.916132024371e-01
    33   -3.992471579311e-03
    34    2.032203977382e-01
    35   -1.740272071934e-02
    36   -2.182043582979e-02
    37    1.041334979880e-03
    38   -7.623033105908e-03
    39   -5.421143949480e-01
    40    4.935271717061e-01
    41   -2.086620289493e-02
    42   -1.097896011819e-01
    43   -7.630808622725e-03
    44   -5.353752824506e-01
    45    4.678506803637e-01
    46    1.068211694223e-01
    47    2.646933149491e-02
    48    6.727367427169e-03
Sym=X
Ene= 0.807405
Spin=Alpha
Occup=0
     1    1.109471431319e-05
     2    3.001575597040e-05
     3    1.479755193296e-03
     4    1.866948185475e-03
     5   -3.093314658278e-02
     6    3.523982433143e-06
     7   -3.308539837045e-05
     8    1.704118491866e-05
     9    3.674933292644e-02
    10    4.617321224360e-02
    11   -7.642386712720e-01
    12   -5.406411757647e-02
    13   -6.794240280421e-02
    14    1.124363676901e+00
    15    1.041452784803e-03
    16   -6.539820088589e-02
    17    6.200740350053e-02
    18    6.878317674865e-03
    19    9.604582300316e-04
    20    1.239857131392e-05
    21   -4.323427820494e-05
    22    1.529737087896e-03
    23    1.926901743673e-03
    24   -3.192416094675e-02
    25   -4.680861494550e-07
    26   -2.471101997962e-05
    27    1.223556228240e-05
    28   -3.668388468838e-02
    29   -4.613887453038e-02
    30    7.642452654604e-01
    31    5.398615831973e-02
    32    6.785576793696e-02
    33   -1.124373218924e+00
    34    1.062743596387e-03
    35   -6.535820386423e-02
    36    6.204666025390e-02
    37    6.897985369617e-03
    38    9.614317660650e-04
    39   -9.744752997151e-06
    40    5.992108858155e-05
    41   -1.483917097436e-03
    42   -1.882781344217e-03
    43    3.092180566025e-02
    44   -7.945228897436e-06
    45   -1.450544300755e-05
    46   -1.526239249103e-03
    47   -1.934762061176e-03
    48    3.193224077551e-02
Sym=X
Ene= 0.858426
Spin=Alpha
Occup=0
     1    1.341349529834e-02
     2   -1.076300057205e+00
     3    1.461735943957e-01
     4    5.618870213018e-02
     5    1.041170369867e-02
     6   -3.290367037193e-04
     7   -7.254994552171e-03
     8    5.834486625250e-03
     9   -4.125070613035e-01
    10   -4.322823191377e-01
    11   -4.596663866394e-02
    12    9.386116218953e-01
    13    9.845199548336e-01
    14    1.046426699622e-01
    15    1.483250215619e-03
    16    1.161676245181e-02
    17   -1.354239833792e-02
    18    2.303820464296e-01
    19    1.147318930515e-02
    20   -1.519591553071e-02
    21    1.075057681634e+00
    22    4.843407608987e-02
    23    1.490455356926e-01
    24    1.133851049727e-02
    25   -3.369602299828e-04
    26   -7.266843131354e-03
    27    5.815628125861e-03
    28   -4.108816303610e-01
    29   -4.338324383195e-01
    30   -4.590058394769e-02
    31    9.358774196338e-01
    32    9.871392060170e-01
    33    1.044919670924e-01
    34    1.927018233087e-03
    35   -1.193734698592e-02
    36    1.315372188339e-02
    37   -2.303592991781e-01
    38   -1.208535028113e-02
    39    1.336139683543e-02
    40   -1.076199641555e+00
    41    4.867424189943e-02
    42    1.487599262149e-01
    43    1.132944821611e-02
    44   -1.522318208591e-02
    45    1.075133049712e+00
    46    1.464735604990e-01
    47    5.595124444535e-02
    48    1.040403333814e-02
Sym=X
Ene= 0.928007
Spin=Alpha
Occup=0
     1    1.391277331559e-01
     2   -1.242712331463e+00
     3    1.829169987313e-01
     4   -3.987520545089e-03
     5    8.554213930289e-03
     6   -1.487909526269e-03
     7   -3.332335504580e-03
     8   -1.422820114721e-02
     9   -4.851235237367e-01
    10   -4.877314271131e-01
    11   -5.277517634664e-02
    12    1.410229893800e+00
    13    1.427641891496e+00
    14    1.540082596234e-01
    15    4.108106072020e-03
    16    6.411002826427e-03
    17   -7.425302769854e-03
    18    1.252870192881e-01
    19    1.210930007136e-02
    20   -1.442854236293e-01
    21    1.218872380787e+00
    22   -1.683463610127e-02
    23    1.816733242923e-01
    24    1.016410811481e-02
    25    1.492277944298e-03
    26    3.463406619601e-03
    27    1.399648463724e-02
    28    4.625888099835e-01
    29    5.091373001312e-01
    30    5.296204655136e-02
    31   -1.354474066937e+00
    32   -1.480583452564e+00
    33   -1.544599422367e-01
    34   -4.367367409727e-03
    35    6.440888285480e-03
    36   -7.115371407682e-03
    37    1.258792287412e-01
    38    7.557310029668e-04
    39   -1.391047185921e-01
    40    1.242783502819e+00
    41    1.333274423819e-02
    42   -1.823798561573e-01
    43   -1.037130066363e-02
    44    1.443166275225e-01
    45   -1.218817406895e+00
    46   -1.823909994657e-01
    47    7.529558108786e-03
    48   -8.303158419224e-03
Sym=X
Ene= 0.970604
Spin=Alpha
Occup=0
     1   -5.942736074628e-02
     2    8.643918395906e-01
     3   -8.336497325626e-02
     4   -9.643611484655e-02
     5   -9.822516581868e-03
     6    2.704672824776e-02
     7    2.529088129317e-01
     8    5.136033660778e-01
     9    4.731766459790e-01
    10   -4.689865547209e-01
    11   -5.594437652296e-03
    12   -1.437822384416e+00
    13    1.438993999074e+00
    14    1.782606812717e-02
    15   -5.785402068911e-02
    16   -1.222523257539e-02
    17   -9.372408221603e-03
    18    1.845926324385e-02
    19   -2.961460354431e-01
    20   -6.015390529189e-02
    21    9.290023397960e-01
    22    9.199456504015e-02
    23    9.657217202103e-02
    24    1.026037655208e-02
    25   -2.704551442689e-02
    26   -2.528077090346e-01
    27   -5.137685757598e-01
    28    4.927561456838e-01
    29   -4.483723498374e-01
    30   -3.428130100351e-03
    31   -1.511229789399e+00
    32    1.361755118196e+00
    33    9.687970646033e-03
    34    5.784137961830e-02
    35    1.256050726947e-02
    36    8.996510085639e-03
    37   -1.191300690611e-02
    38    2.964659743109e-01
    39    5.945001858339e-02
    40   -8.643319131635e-01
    41    9.209065393919e-02
    42    8.812818974717e-02
    43    9.757629155721e-03
    44    6.013645783522e-02
    45   -9.289606063509e-01
    46   -9.179383829983e-02
    47   -9.676094131963e-02
    48   -1.024169322853e-02
[5D]

======= END OF MOLDEN-FORMATTED INPUT FILE =======


        *************************************************************
        *                                                           *
        *  Thank you very much for using Q-Chem.  Have a nice day.  *
        *                                                           *
        *************************************************************


