                  Welcome to Q-Chem
     A Quantum Leap Into The Future Of Chemistry


 Q-Chem 5.4 (devel), Q-Chem, Inc., Pleasanton, CA (2021)

 E. Epifanovsky,  A. T. B. Gilbert,  Xintian Feng,  Joonho Lee,  Yuezhi Mao,  
 N. Mardirossian,  P. Pokhilko,  A. White,  M. Wormit,  M. P. Coons,  
 A. L. Dempwolff,  Zhengting Gan,  D. Hait,  P. R. Horn,  L. D. Jacobson,  
 I. Kaliman,  J. Kussmann,  A. W. Lange,  Ka Un Lao,  D. S. Levine,  Jie Liu,  
 S. C. McKenzie,  A. F. Morrison,  K. Nanda,  F. Plasser,  D. R. Rehn,  
 M. L. Vidal,  Zhi-Qiang You,  Ying Zhu,  B. Alam,  B. Albrecht,  
 A. Aldossary,  E. Alguire,  J. H. Andersen,  D. Barton,  K. Begam,  A. Behn,  
 Y. A. Bernard,  E. J. Berquist,  H. Burton,  A. Carreras,  K. Carter-Fenk,  
 R. Chakraborty,  A. D. Chien,  K. D. Closser,  V. Cofer-Shabica,  
 S. Dasgupta,  Jia Deng,  M. de Wergifosse,  M. Diedenhofen,  Hainam Do,  
 S. Ehlert,  Po-Tung Fang,  S. Fatehi,  Qingguo Feng,  T. Friedhoff,  
 J. Gayvert,  Qinghui Ge,  G. Gidofalvi,  M. Goldey,  J. Gomes,  
 C. Gonzalez-Espinoza,  S. Gulania,  A. Gunina,  M. W. D. Hanson-Heine,  
 P. H. P. Harbach,  A. W. Hauser,  M. F. Herbst,  M. Hernandez Vera,  
 M. Hodecker,  Z. C. Holden,  S. Houck,  Xunkun Huang,  Kerwin Hui,  
 B. C. Huynh,  M. Ivanov,  Hyunjun Ji,  Hanjie Jiang,  B. Kaduk,  S. Kaehler,  
 K. Khistyaev,  Jaehoon Kim,  P. Klunzinger,  Z. Koczor-Benda,  
 Joong Hoon Koh,  D. Kosenkov,  L. Koulias,  T. Kowalczyk,  C. M. Krauter,  
 K. Kue,  A. Kunitsa,  T. Kus,  A. Landau,  K. V. Lawler,  D. Lefrancois,  
 S. Lehtola,  Rain Li,  Yi-Pei Li,  Jiashu Liang,  M. Liebenthal,  
 Hung-Hsuan Lin,  You-Sheng Lin,  Fenglai Liu,  Kuan-Yu Liu,  
 M. Loipersberger,  A. Luenser,  A. Manjanath,  P. Manohar,  E. Mansoor,  
 S. F. Manzer,  Shan-Ping Mao,  A. V. Marenich,  T. Markovich,  S. Mason,  
 S. A. Maurer,  P. F. McLaughlin,  M. F. S. J. Menger,  J.-M. Mewes,  
 S. A. Mewes,  P. Morgante,  J. W. Mullinax,  K. J. Oosterbaan,  G. Paran,  
 Alexander C. Paul,  Suranjan K. Paul,  F. Pavosevic,  Zheng Pei,  S. Prager,  
 E. I. Proynov,  E. Ramos,  B. Rana,  A. E. Rask,  A. Rettig,  R. M. Richard,  
 F. Rob,  E. Rossomme,  T. Scheele,  M. Scheurer,  M. Schneider,  
 N. Sergueev,  S. M. Sharada,  W. Skomorowski,  D. W. Small,  C. J. Stein,  
 Yu-Chuan Su,  E. J. Sundstrom,  Zhen Tao,  J. Thirman,  T. Tsuchimochi,  
 N. M. Tubman,  S. P. Veccham,  O. Vydrov,  J. Wenzel,  J. Witte,  A. Yamada,  
 Kun Yao,  S. Yeganeh,  S. R. Yost,  A. Zech,  Igor Ying Zhang,  Xing Zhang,  
 Yu Zhang,  D. Zuev,  A. Aspuru-Guzik,  A. T. Bell,  N. A. Besley,  
 K. B. Bravaya,  B. R. Brooks,  D. Casanova,  Jeng-Da Chai,  S. Coriani,  
 C. J. Cramer,  A. E. DePrince, III,  R. A. DiStasio Jr.,  A. Dreuw,  
 B. D. Dunietz,  T. R. Furlani,  W. A. Goddard III,  S. Grimme,  
 S. Hammes-Schiffer,  T. Head-Gordon,  W. J. Hehre,  Chao-Ping Hsu,  
 T.-C. Jagau,  Yousung Jung,  A. Klamt,  Jing Kong,  D. S. Lambrecht,  
 WanZhen Liang,  N. J. Mayhall,  C. W. McCurdy,  J. B. Neaton,  
 C. Ochsenfeld,  J. A. Parkhill,  R. Peverati,  V. A. Rassolov,  Yihan Shao,  
 L. V. Slipchenko,  T. Stauch,  R. P. Steele,  J. E. Subotnik,  
 A. J. W. Thom,  A. Tkatchenko,  D. G. Truhlar,  T. Van Voorhis,  
 T. A. Wesolowski,  K. B. Whaley,  H. L. Woodcock III,  P. M. Zimmerman,  
 S. Faraji,  P. M. W. Gill,  M. Head-Gordon,  J. M. Herbert,  A. I. Krylov

 Additional authors for Version 5.4.1: 
 S. Kotaru,  Shaozhi Li,  Xiangyuan Li,  F. Matz,  A. Molle,  Haisheng Ren,  
 Yingli Su,  Hung-Yi Tsai,  C. Utku,  Fang Wang

 Contributors to earlier versions of Q-Chem not listed above: 
 R. D. Adamson,  B. Austin,  R. Baer,  J. Baker,  G. J. O. Beran,  
 K. Brandhorst,  S. T. Brown,  E. F. C. Byrd,  A. K. Chakraborty,  
 G. K. L. Chan,  Chun-Min Chang,  Yunqing Chen,  C.-L. Cheng,  
 Siu Hung Chien,  D. M. Chipman,  D. L. Crittenden,  H. Dachsel,  
 R. J. Doerksen,  A. D. Dutoi,  R. G. Edgar,  J. Fosso-Tande,  
 L. Fusti-Molnar,  D. Ghosh,  A. Ghysels,  A. Golubeva-Zadorozhnaya,  
 J. Gonthier,  M. S. Gordon,  S. R. Gwaltney,  G. Hawkins,  J. E. Herr,  
 A. Heyden,  S. Hirata,  E. G. Hohenstein,  G. Kedziora,  F. J. Keil,  
 C. Kelley,  Jihan Kim,  R. A. King,  R. Z. Khaliullin,  P. P. Korambath,  
 W. Kurlancheek,  A. Laurent,  A. M. Lee,  M. S. Lee,  S. V. Levchenko,  
 Ching Yeh Lin,  D. Liotard,  E. Livshits,  R. C. Lochan,  I. Lotan,  
 L. A. Martinez-Martinez,  P. E. Maslen,  N. Nair,  D. P. O'Neill,  
 D. Neuhauser,  E. Neuscamman,  C. M. Oana,  R. Olivares-Amaya,  R. Olson,  
 T. M. Perrine,  B. Peters,  P. A. Pieniazek,  A. Prociuk,  Y. M. Rhee,  
 J. Ritchie,  M. A. Rohrdanz,  E. Rosta,  N. J. Russ,  H. F. Schaefer III,  
 M. W. Schmidt,  N. E. Schultz,  S. Sharma,  N. Shenvi,  C. D. Sherrill,  
 A. C. Simmonett,  A. Sodt,  T. Stein,  D. Stuck,  K. S. Thanthiriwatte,  
 V. Vanovschi,  L. Vogt,  Tao Wang,  A. Warshel,  M. A. Watson,  
 C. F. Williams,  Q. Wu,  X. Xu,  Jun Yang,  W. Zhang,  Yan Zhao

 Please cite Q-Chem as follows:
 Y. Shao et al., Mol. Phys. 113, 184-215 (2015)
 DOI: 10.1080/00268976.2014.952696

 Q-Chem 5.4.1 for Intel X86 EM64T Linux

 Parts of Q-Chem use Armadillo 9.800.1 (Horizon Scraper).
 http://arma.sourceforge.net/

 Q-Chem begins on Mon Mar 20 18:33:16 2023  

 Host: cpu186.baobab
0

     Scratch files written to /scratch/fum/qchem79397//
 Processing $rem in /home/share/wesolowski/qc5.aug2021.FDE/config/preferences:
 Processing $rem in /home/fum/.qchemrc:

 Checking the input file for inconsistencies... 	...done.

--------------------------------------------------------------
User input:
--------------------------------------------------------------
$comment
generated from CCJob.Templates
$end

$rem
sym_ignore = true
method = adc(2)
ee_states = 10
basis = cc-pVDZ
mem_static = 1024
mem_total = 40000
adc_davidson_maxiter = 900
adc_davidson_conv = 6
adc_print = 3
adc_prop_es = true
adc_prop_es2es = true
adc_prop_tpa = true
molden_format = True
state_analysis = true
print_orbitals = 15
gen_scfman = false
fde_export_density = true
fde_details = 3
$end

$molecule
0 1
H -0.029549971905095028 -0.210007242968335 0.06707162440214673
C -1.0647594728720424 -0.5369095295331885 -0.0024834203444128035
H -1.338570523447544 -1.5869196350265626 -0.0792256177937656
C -2.0316123668699744 0.3813559241650756 0.006489159955771872
H -1.858879990645771 1.4686007184731416 0.0803950847052741
H -3.109139791404061 0.15338581832959663 -0.05885654889792713                     
$end
--------------------------------------------------------------
 ----------------------------------------------------------------
             Standard Nuclear Orientation (Angstroms)
    I     Atom           X                Y                Z
 ----------------------------------------------------------------
    1      H      -0.0295499719    -0.2100072430     0.0670716244
    2      C      -1.0647594729    -0.5369095295    -0.0024834203
    3      H      -1.3385705234    -1.5869196350    -0.0792256178
    4      C      -2.0316123669     0.3813559242     0.0064891600
    5      H      -1.8588799906     1.4686007185     0.0803950847
    6      H      -3.1091397914     0.1533858183    -0.0588565489
 ----------------------------------------------------------------
 Nuclear Repulsion Energy =          33.19748606 hartrees
 There are        8 alpha and        8 beta electrons
 Requested basis set is cc-pVDZ
 There are 24 shells and 48 basis functions
 Total memory of 40000 MB is distributed as follows: 
   MEM_STATIC is set to 1024 MB
   QALLOC/CCMAN JOB total memory use is  38976 MB
 Warning: actual memory use might exceed 40000 MB

 Total QAlloc Memory Limit  40000 MB
 Mega-Array Size      1001 MB
 MEM_STATIC part      1024 MB

                       Distance Matrix (Angstroms)
             H (  1)   C (  2)   H (  3)   C (  4)   H (  5)
   C (  2)  1.087824
   H (  3)  1.905472  1.087834
   C (  4)  2.088453  1.333453  2.088483
   H (  5)  2.482811  2.158603  3.103612  1.103358
   H (  6)  3.103512  2.158513  2.482739  1.103316  1.819981

 A cutoff of  1.0D-11 yielded    300 shell pairs
 There are      1220 function pairs (      1329 Cartesian)
 Smallest overlap matrix eigenvalue = 4.79E-03

 Scale SEOQF with 1.000000e-01/1.000000e-01/1.000000e+00

 Standard Electronic Orientation quadrupole field applied
 Nucleus-field energy     =     0.0000000022 hartrees
 Guess from superposition of atomic densities
 Warning:  Energy on first SCF cycle will be non-variational
 SAD guess density has 16.000000 electrons
 A restricted Hartree-Fock SCF calculation will be
 performed using Pulay DIIS extrapolation
 SCF converges when DIIS error is below 1.0E-08
 using 10 threads for integral computing
 -------------------------------------------------------
 OpenMP Integral computing Module                
 Release: version 1.0, May 2013, Q-Chem Inc. Pittsburgh 
 -------------------------------------------------------
 ---------------------------------------
  Cycle       Energy         DIIS Error
 ---------------------------------------
    1     -78.3953306024      9.92E-02
    2     -78.0157880321      7.12E-03
    3     -78.0362404489      1.82E-03
    4     -78.0377181358      5.65E-04
    5     -78.0378363195      5.94E-05
    6     -78.0378382650      1.24E-05
    7     -78.0378383438      4.27E-06
    8     -78.0378383531      1.62E-06
    9     -78.0378383544      3.56E-07
   10     -78.0378383545      8.96E-08
   11     -78.0378383545      6.52E-09 Convergence criterion met
 ---------------------------------------
 SCF time:  CPU 2.09 s  wall 2.44 s
 SCF   energy in the final basis set = -78.03783835
 Total energy in the final basis set = -78.03783835
Exporting Density Matrix to file 'Densmat_SCF.txt'.
Export successful
================================================================================
|                                                                              |
|                                 A D C  M A N                                 |
|                                                                              |
 ------------------------------------------------------------------------------ 
|                                                                              |
| Components:                                                                  |
|                                                                              |
| - libvmm - 1.3-trunk                                                         |
|   Authors:                                                                   |
|   Evgeny Epifanovsky, Ilya Kaliman                                           |
|                                                                              |
| - libtensor - 2.5-trunk                                                      |
|   Authors:                                                                   |
|   Evgeny Epifanovsky, Michael Wormit, Dmitry Zuev, Sam Manzer,               |
|   Ilya Kaliman                                                               |
|                                                                              |
| - libwfa - 1.1-trunk                                                         |
|   Authors:                                                                   |
|   Felix Plasser, Stefanie Mewes (Baeppler), Benjamin Thomitzni,              |
|   Michael Wormit, Feng Chen, Anna I. Krylov, Pavel Pokhilko                  |
|                                                                              |
| - libadc - 1.1-trunk                                                         |
|   Authors:                                                                   |
|   Michael Wormit, Adrian L. Dempwolff, Philipp H. P. Harbach,                |
|   Caroline Krauter, Dirk Rehn, Matthias Schneider, Jan Wenzel                |
|                                                                              |
| - adcman - 2.6-trunk                                                         |
|   Authors:                                                                   |
|   Michael Wormit, Adrian L. Dempwolff, Philipp H. P. Harbach,                |
|   Caroline Krauter, Daniel Lefrancois, Jan-Michael Mewes, Dirk Rehn,         |
|   Matthias Schneider, Jan Wenzel, Andreas Dreuw                              |
|                                                                              |
| Authors of earlier versions of ADCMAN:                                       |
| Andreas Dreuw, Jan Hendrik Starcke, Dirk Rehn, Michael Wormit                |
|                                                                              |
================================================================================

 Created directory /scratch/fum/qchem79397/plots
  Import QC data ...  CPU 0.00 s  wall 0.00 s

 Alpha MOs, Restricted
 -- Occupied --                  
-11.240 -11.237  -1.030  -0.786  -0.636  -0.582  -0.498  -0.375
  1 A     2 A     3 A     4 A     5 A     6 A     7 A     8 A                  
 -- Virtual --                   
  0.168   0.202   0.231   0.236   0.303   0.459   0.582   0.609
  9 A    10 A    11 A    12 A    13 A    14 A    15 A    16 A                  
  0.689   0.706   0.777   0.807   0.858   0.928   0.969   1.005
 17 A    18 A    19 A    20 A    21 A    22 A    23 A    24 A                  
  1.129   1.236   1.241   1.262   1.292   1.592   1.685   1.783
 25 A    26 A    27 A    28 A    29 A    30 A    31 A    32 A                  
  1.809   1.828   1.875   1.905   1.962   1.965   2.229   2.246
 33 A    34 A    35 A    36 A    37 A    38 A    39 A    40 A                  
  2.357   2.422   2.465   2.640   2.677   2.792   3.107   3.370
 41 A    42 A    43 A    44 A    45 A    46 A    47 A    48 A                  

 Beta MOs, Restricted
 -- Occupied --                  
-11.240 -11.237  -1.030  -0.786  -0.636  -0.582  -0.498  -0.375
  1 A     2 A     3 A     4 A     5 A     6 A     7 A     8 A                  
 -- Virtual --                   
  0.168   0.202   0.231   0.236   0.303   0.459   0.582   0.609
  9 A    10 A    11 A    12 A    13 A    14 A    15 A    16 A                  
  0.689   0.706   0.777   0.807   0.858   0.928   0.969   1.005
 17 A    18 A    19 A    20 A    21 A    22 A    23 A    24 A                  
  1.129   1.236   1.241   1.262   1.292   1.592   1.685   1.783
 25 A    26 A    27 A    28 A    29 A    30 A    31 A    32 A                  
  1.809   1.828   1.875   1.905   1.962   1.965   2.229   2.246
 33 A    34 A    35 A    36 A    37 A    38 A    39 A    40 A                  
  2.357   2.422   2.465   2.640   2.677   2.792   3.107   3.370
 41 A    42 A    43 A    44 A    45 A    46 A    47 A    48 A                  
  Import AO data ...  CPU 0.00 s  wall 0.01 s
  Using point group: C1
  Irreducible representations in point group: A
  Molecular orbitals: 
  Occupied MOs:
  Block   0:   1 (  A) A   2 (  A) A   3 (  A) A   4 (  A) A   5 (  A) A
                  -11.24      -11.24       -1.03     -0.7855     -0.6358
               6 (  A) A   7 (  A) A   8 (  A) A
                 -0.5817     -0.4976     -0.3746
  Block   1:   1 (  A) B   2 (  A) B   3 (  A) B   4 (  A) B   5 (  A) B
                  -11.24      -11.24       -1.03     -0.7855     -0.6358
               6 (  A) B   7 (  A) B   8 (  A) B
                 -0.5817     -0.4976     -0.3746
  Virtual MOs:
  Block   0:   9 (  A) A  10 (  A) A  11 (  A) A  12 (  A) A  13 (  A) A
                  0.1679      0.2023      0.2308      0.2359      0.3028
              14 (  A) A  15 (  A) A  16 (  A) A  17 (  A) A  18 (  A) A
                  0.4594      0.5825      0.6089      0.6885      0.7057
              19 (  A) A  20 (  A) A  21 (  A) A  22 (  A) A
                  0.7765      0.8072      0.8584      0.9278
  Block   1:  23 (  A) A  24 (  A) A  25 (  A) A  26 (  A) A  27 (  A) A
                  0.9694       1.005       1.129       1.236       1.241
              28 (  A) A  29 (  A) A  30 (  A) A  31 (  A) A  32 (  A) A
                   1.262       1.292       1.592       1.685       1.783
              33 (  A) A  34 (  A) A  35 (  A) A  36 (  A) A
                   1.809       1.828       1.875       1.905
  Block   2:  37 (  A) A  38 (  A) A  39 (  A) A  40 (  A) A  41 (  A) A
                   1.962       1.965       2.229       2.246       2.357
              42 (  A) A  43 (  A) A  44 (  A) A  45 (  A) A  46 (  A) A
                   2.422       2.465        2.64       2.677       2.792
              47 (  A) A  48 (  A) A
                   3.107        3.37
  Block   3:   9 (  A) B  10 (  A) B  11 (  A) B  12 (  A) B  13 (  A) B
                  0.1679      0.2023      0.2308      0.2359      0.3028
              14 (  A) B  15 (  A) B  16 (  A) B  17 (  A) B  18 (  A) B
                  0.4594      0.5825      0.6089      0.6885      0.7057
              19 (  A) B  20 (  A) B  21 (  A) B  22 (  A) B
                  0.7765      0.8072      0.8584      0.9278
  Block   4:  23 (  A) B  24 (  A) B  25 (  A) B  26 (  A) B  27 (  A) B
                  0.9694       1.005       1.129       1.236       1.241
              28 (  A) B  29 (  A) B  30 (  A) B  31 (  A) B  32 (  A) B
                   1.262       1.292       1.592       1.685       1.783
              33 (  A) B  34 (  A) B  35 (  A) B  36 (  A) B
                   1.809       1.828       1.875       1.905
  Block   5:  37 (  A) B  38 (  A) B  39 (  A) B  40 (  A) B  41 (  A) B
                   1.962       1.965       2.229       2.246       2.357
              42 (  A) B  43 (  A) B  44 (  A) B  45 (  A) B  46 (  A) B
                   2.422       2.465        2.64       2.677       2.792
              47 (  A) B  48 (  A) B
                   3.107        3.37
  Import MO data ...  CPU 0.09 s  wall 0.02 s
  Import HF data ...  CPU 0.66 s  wall 0.21 s
  Import 2e integrals ...  CPU 1.54 s  wall 0.29 s

--------------------------------------------------------------------------------
                                   HF Summary                                   
--------------------------------------------------------------------------------
  Energy:                                                  -78.0378383545 a.u.
  Dip. moment [a.u.]:                  [  -0.011424,    0.010837,    0.000115]
  Total dipole [Debye]:                                               0.040023
  <r^2> [a.u.]:                        [ 175.033651,   35.354095,   11.685868]
  Total <r^2> [a.u.]:                                               222.073614
--------------------------------------------------------------------------------
  HF properties ...  CPU 0.03 s  wall 0.02 s
  MP(1) calculation ...  CPU 0.01 s  wall 0.01 s
  N^6 prerequesite intermediates ...  CPU 0.58 s  wall 0.10 s
  Difference density matrix of state mp2_gs printed to ASCII file 'State_mp2_gs_Difference.txt'
Exporting MP density matrix to file 'Densmat_MP.txt'.
Export successful
  Total density matrix of state mp2_gs printed to ASCII file 'State_mp2_gs_Total.txt'
Exporting MP density matrix to file 'Densmat_MP.txt'.
Export successful

--------------------------------------------------------------------------------
                                 MP(2) Summary                                  
--------------------------------------------------------------------------------
  MP energy contribution:                                   -0.2807025699 a.u.
  Total energy:                                            -78.3185409245 a.u.
  Dip. moment [a.u.]:                  [  -0.010217,    0.009690,    0.000104]
  Total dipole [Debye]:                                               0.035792
  <r^2> [a.u.]:                        [ 175.080304,   35.388888,   11.512836]
  Total <r^2> [a.u.]:                                               221.982028

  Density matrix analysis:
  ------------------------
  NOs
    Occupation of frontier NOs:
       0.0455   1.9380
    Number of electrons: 16.000000
    Number of unpaired electrons: n_u =  0.40795, n_u,nl =  0.04594
    NO participation ratio (PR_NO): 13.901038
  
  
  Mulliken Population Analysis
  Atom      Charge (e)              h+              e-           Del q
  --------------------------------------------------------------------
   1 H        0.056852        0.013515       -0.011348        0.002167
   2 C       -0.088989        0.095726       -0.098538       -0.002812
   3 H        0.056857        0.013515       -0.011348        0.002166
   4 C       -0.131188        0.094122       -0.101350       -0.007228
   5 H        0.053240        0.014197       -0.011344        0.002853
   6 H        0.053227        0.014198       -0.011344        0.002854
  --------------------------------------------------------------------
  Sum:        0.000000        0.245273       -0.245273       -0.000000
  
  Multipole moment analysis of the density matrix
    Molecular charge:                      0.000000
    Number of electrons:                   16.000000
      Center of electronic charge [Ang]: [ -1.556810,  -0.069587,   0.002085]
    Total nuclear charge:                  16.000000
      Center of nuclear charge [Ang]:    [ -1.557148,  -0.069266,   0.002089]
    Dipole moment [D]:                     0.035792
      Cartesian components [D]:          [ -0.025968,   0.024631,   0.000263]
    RMS size of the density [Ang]:         1.206887
      Cartesian components [Ang]:        [  0.800349,   0.783917,   0.448877]
  
  Exciton analysis of the difference density matrix
    <r_h> [Ang]:                  [ -1.557366,  -0.069056,   0.002089]
    <r_e> [Ang]:                  [ -1.559970,  -0.066583,   0.002113]
    |<r_e - r_h>| [Ang]:            0.003591
    Hole size [Ang]:                1.402500
      Cartesian components [Ang]: [  0.853689,   0.840940,   0.728726]
    Electron size [Ang]:            1.361859
      Cartesian components [Ang]: [  0.879733,   0.864430,   0.577488]
--------------------------------------------------------------------------------
  MP(2) calculation ...  CPU 0.42 s  wall 0.76 s
  Start ADC(2)-s ...  CPU 0.02 s  wall 0.01 s
  ADC(2) intermediates ...  CPU 0.08 s  wall 0.03 s
  Starting Davidson for singlet states of irrep A ... 
--------------------------------------------------------------------------------
   It NVec Conv  Avg. Norm  Max. Norm  Conv. states           Remark
--------------------------------------------------------------------------------
        10    0  1.329e-01  4.687e-01  0.4115 n n n n n n n n Guess.
    1   20    0  2.387e-02  1.229e-01  0.3261 n n n n n n n n 
    2   30    0  6.104e-03  2.921e-02  0.3213 n n n n n n n n 
    3   40    0  2.254e-03  1.480e-02  0.3209 n n n n n n n n 
    4   50    0  8.603e-04  7.390e-03  0.3209 n n n n n n n n 
    5   20    0  4.186e-04  3.458e-03  0.3209 n n n n n n n n Subspace collapsed.
    6   30    0  3.831e-04  3.655e-03  0.3209 n n n n n n n n 
    7   40    0  2.698e-04  2.621e-03  0.3209 n n n n n n n n 
    8   50    0  1.125e-04  1.076e-03  0.3209 n n n n n n n n 
    9   20    1  4.650e-05  4.102e-04  0.3209 n n n y n n n n Subspace collapsed.
   10   30    3  4.535e-05  4.172e-04  0.3209 n n y y n y n n 
   11   40    6  2.176e-05  1.755e-04  0.3209 y y y y y y n n 
   12   50    6  1.453e-05  1.235e-04  0.3209 y y y y y y n n 
   13   20    6  7.176e-06  5.694e-05  0.3209 y y y y y y n n Subspace collapsed.
   14   30    6  6.788e-06  5.822e-05  0.3209 y y y y y y n n 
   15   40    6  3.665e-06  2.541e-05  0.3209 y y y y y y n n 
   16   50    6  2.802e-06  1.859e-05  0.3209 y y y y y y n n 
   17   20    6  1.441e-06  9.147e-06  0.3209 y y y y y y n n Subspace collapsed.
   18   30    6  1.240e-06  8.049e-06  0.3209 y y y y y y n n 
   19   40    7  6.457e-07  4.935e-06  0.3209 y y y y y y n y 
   20   50    6  5.719e-07  4.688e-06  0.3209 y y y y y y n n 
   21   20    8  3.000e-07  2.590e-06  0.3209 y y y y y y y y Subspace collapsed.
   22   30    9  4.003e-07  3.742e-06  0.3209 y y y y y y y y 
   23   40    9  3.340e-07  3.236e-06  0.3209 y y y y y y y y 
   24   42    9  3.349e-07  3.250e-06  0.3209 y y y y y y y y 
   25   44    9  3.333e-07  3.236e-06  0.3209 y y y y y y y y 
   26   50    9  3.898e-07  3.801e-06  0.3209 y y y y y y y y 
   27   16    9  1.337e-07  1.300e-06  0.3209 y y y y y y y y Subspace collapsed.
   28   21    9  1.624e-07  1.580e-06  0.3209 y y y y y y y y 
   29   26    9  1.086e-07  1.054e-06  0.3209 y y y y y y y y 
   30   31   10  9.662e-08  9.444e-07  0.3209 y y y y y y y y Converged.
--------------------------------------------------------------------------------
  Davidson Summary: 
 ------------------------------------------------------------
  State  0: excitation energy =   0.3209 a.u.   (converged)
  State  1: excitation energy =   0.3274 a.u.   (converged)
  State  2: excitation energy =   0.3356 a.u.   (converged)
  State  3: excitation energy =   0.3576 a.u.   (converged)
  State  4: excitation energy =   0.3727 a.u.   (converged)
  State  5: excitation energy =   0.3862 a.u.   (converged)
  State  6: excitation energy =   0.4180 a.u.   (converged)
  State  7: excitation energy =   0.4438 a.u.   (converged)
  State  8: excitation energy =   0.4535 a.u.   (converged)
  State  9: excitation energy =   0.4569 a.u.   (converged)
 ------------------------------------------------------------

  Singlet states of irrep A ...  CPU 200.37 s  wall 63.10 s
  TDMs ...  CPU 2.30 s  wall 0.84 s
  SDMs ...  CPU 4.69 s  wall 1.47 s
  Starting TPA DIIS iterations ... 
------------------------------------ 
   It     Res. Norm  Remark
------------------------------------
                       Guess.
    1     4.395e+00  
    2     5.830e+00  
    3     1.086e+00  
    4     2.630e-01  
    5     6.539e-02  
    6     2.779e-02  
    7     8.477e-03  
    8     1.568e-03  
    9     5.909e-04  
   10     9.888e-05  
   11     3.174e-05  
   12     4.969e-06  
   13     1.681e-06  
   14     5.012e-07  Converged.
   ... Converged in 14 steps (norm: 5.01197e-07)
------------------------------------
  Starting TPA DIIS iterations ... 
------------------------------------ 
   It     Res. Norm  Remark
------------------------------------
                       Guess.
    1     4.186e+00  
    2     5.542e+00  
    3     1.037e+00  
    4     2.610e-01  
    5     6.512e-02  
    6     2.779e-02  
    7     8.332e-03  
    8     1.587e-03  
    9     5.996e-04  
   10     9.840e-05  
   11     3.205e-05  
   12     4.937e-06  
   13     1.709e-06  
   14     4.962e-07  Converged.
   ... Converged in 14 steps (norm: 4.96217e-07)
------------------------------------
  Starting TPA DIIS iterations ... 
------------------------------------ 
   It     Res. Norm  Remark
------------------------------------
                       Guess.
    1     6.862e-01  
    2     4.805e-01  
    3     1.688e-01  
    4     6.382e-02  
    5     1.896e-02  
    6     6.931e-03  
    7     1.180e-03  
    8     4.313e-04  
    9     1.505e-04  
   10     2.051e-05  
   11     8.553e-06  
   12     2.995e-06  
   13     1.664e-06  
   14     6.505e-07  Converged.
   ... Converged in 14 steps (norm: 6.50513e-07)
------------------------------------
  Starting TPA DIIS iterations ... 
------------------------------------ 
   It     Res. Norm  Remark
------------------------------------
                       Guess.
    1     4.551e+00  
    2     6.109e+00  
    3     1.131e+00  
    4     2.788e-01  
    5     6.987e-02  
    6     2.986e-02  
    7     9.097e-03  
    8     1.682e-03  
    9     6.364e-04  
   10     1.068e-04  
   11     3.448e-05  
   12     5.426e-06  
   13     1.842e-06  
   14     5.492e-07  Converged.
   ... Converged in 14 steps (norm: 5.49178e-07)
------------------------------------
  Starting TPA DIIS iterations ... 
------------------------------------ 
   It     Res. Norm  Remark
------------------------------------
                       Guess.
    1     4.333e+00  
    2     5.806e+00  
    3     1.079e+00  
    4     2.766e-01  
    5     6.958e-02  
    6     2.986e-02  
    7     8.943e-03  
    8     1.703e-03  
    9     6.460e-04  
   10     1.063e-04  
   11     3.480e-05  
   12     5.388e-06  
   13     1.874e-06  
   14     5.435e-07  Converged.
   ... Converged in 14 steps (norm: 5.43512e-07)
------------------------------------
  Starting TPA DIIS iterations ... 
------------------------------------ 
   It     Res. Norm  Remark
------------------------------------
                       Guess.
    1     6.929e-01  
    2     4.899e-01  
    3     1.741e-01  
    4     6.830e-02  
    5     1.978e-02  
    6     7.269e-03  
    7     1.259e-03  
    8     4.618e-04  
    9     1.609e-04  
   10     2.205e-05  
   11     9.172e-06  
   12     3.224e-06  
   13     1.838e-06  
   14     7.216e-07  Converged.
   ... Converged in 14 steps (norm: 7.21593e-07)
------------------------------------
  Starting TPA DIIS iterations ... 
------------------------------------ 
   It     Res. Norm  Remark
------------------------------------
                       Guess.
    1     4.760e+00  
    2     6.489e+00  
    3     1.190e+00  
    4     3.007e-01  
    5     7.609e-02  
    6     3.274e-02  
    7     9.961e-03  
    8     1.840e-03  
    9     7.000e-04  
   10     1.180e-04  
   11     3.833e-05  
   12     6.071e-06  
   13     2.073e-06  
   14     6.173e-07  Converged.
   ... Converged in 14 steps (norm: 6.17251e-07)
------------------------------------
  Starting TPA DIIS iterations ... 
------------------------------------ 
   It     Res. Norm  Remark
------------------------------------
                       Guess.
    1     4.532e+00  
    2     6.167e+00  
    3     1.136e+00  
    4     2.981e-01  
    5     7.578e-02  
    6     3.276e-02  
    7     9.793e-03  
    8     1.865e-03  
    9     7.109e-04  
   10     1.174e-04  
   11     3.868e-05  
   12     6.026e-06  
   13     2.110e-06  
   14     6.106e-07  Converged.
   ... Converged in 14 steps (norm: 6.10606e-07)
------------------------------------
  Starting TPA DIIS iterations ... 
------------------------------------ 
   It     Res. Norm  Remark
------------------------------------
                       Guess.
    1     7.015e-01  
    2     5.023e-01  
    3     1.811e-01  
    4     7.459e-02  
    5     2.086e-02  
    6     7.734e-03  
    7     1.367e-03  
    8     5.040e-04  
    9     1.751e-04  
   10     2.425e-05  
   11     1.003e-05  
   12     3.540e-06  
   13     2.088e-06  
   14     8.263e-07  Converged.
   ... Converged in 14 steps (norm: 8.2626e-07)
------------------------------------
  Starting TPA DIIS iterations ... 
------------------------------------ 
   It     Res. Norm  Remark
------------------------------------
                       Guess.
    1     5.411e+00  
    2     7.699e+00  
    3     1.375e+00  
    4     3.729e-01  
    5     9.654e-02  
    6     4.233e-02  
    7     1.281e-02  
    8     2.362e-03  
    9     9.116e-04  
   10     1.551e-04  
   11     5.141e-05  
   12     8.273e-06  
   13     2.875e-06  
   14     8.527e-07  Converged.
   ... Converged in 14 steps (norm: 8.52685e-07)
------------------------------------
  Starting TPA DIIS iterations ... 
------------------------------------ 
   It     Res. Norm  Remark
------------------------------------
                       Guess.
    1     5.149e+00  
    2     7.316e+00  
    3     1.311e+00  
    4     3.690e-01  
    5     9.618e-02  
    6     4.241e-02  
    7     1.260e-02  
    8     2.398e-03  
    9     9.267e-04  
   10     1.545e-04  
   11     5.182e-05  
   12     8.200e-06  
   13     2.929e-06  
   14     8.427e-07  Converged.
   ... Converged in 14 steps (norm: 8.42694e-07)
------------------------------------
  Starting TPA DIIS iterations ... 
------------------------------------ 
   It     Res. Norm  Remark
------------------------------------
                       Guess.
    1     7.258e-01  
    2     5.387e-01  
    3     2.024e-01  
    4     9.587e-02  
    5     2.418e-02  
    6     9.248e-03  
    7     1.731e-03  
    8     6.396e-04  
    9     2.207e-04  
   10     3.202e-05  
   11     1.287e-05  
   12     4.570e-06  
   13     2.960e-06  
   14     1.207e-06  
   15     3.234e-07  Converged.
   ... Converged in 15 steps (norm: 3.23365e-07)
------------------------------------
  Starting TPA DIIS iterations ... 
------------------------------------ 
   It     Res. Norm  Remark
------------------------------------
                       Guess.
    1     5.944e+00  
    2     8.723e+00  
    3     1.524e+00  
    4     4.364e-01  
    5     1.145e-01  
    6     5.089e-02  
    7     1.532e-02  
    8     2.820e-03  
    9     1.100e-03  
   10     1.883e-04  
   11     6.330e-05  
   12     1.028e-05  
   13     3.623e-06  
   14     1.074e-06  
   15     3.529e-07  Converged.
   ... Converged in 15 steps (norm: 3.52865e-07)
------------------------------------
  Starting TPA DIIS iterations ... 
------------------------------------ 
   It     Res. Norm  Remark
------------------------------------
                       Guess.
    1     5.655e+00  
    2     8.288e+00  
    3     1.453e+00  
    4     4.312e-01  
    5     1.141e-01  
    6     5.102e-02  
    7     1.507e-02  
    8     2.867e-03  
    9     1.119e-03  
   10     1.875e-04  
   11     6.373e-05  
   12     1.018e-05  
   13     3.693e-06  
   14     1.061e-06  
   15     3.527e-07  Converged.
   ... Converged in 15 steps (norm: 3.52686e-07)
------------------------------------
  Starting TPA DIIS iterations ... 
------------------------------------ 
   It     Res. Norm  Remark
------------------------------------
                       Guess.
    1     7.433e-01  
    2     5.666e-01  
    3     2.193e-01  
    4     1.151e-01  
    5     2.691e-02  
    6     1.057e-02  
    7     2.057e-03  
    8     7.524e-04  
    9     2.591e-04  
   10     3.937e-05  
   11     1.535e-05  
   12     5.469e-06  
   13     3.766e-06  
   14     1.568e-06  
   15     4.057e-07  Converged.
   ... Converged in 15 steps (norm: 4.05739e-07)
------------------------------------
  Starting TPA DIIS iterations ... 
------------------------------------ 
   It     Res. Norm  Remark
------------------------------------
                       Guess.
    1     6.496e+00  
    2     9.814e+00  
    3     1.679e+00  
    4     5.062e-01  
    5     1.343e-01  
    6     6.038e-02  
    7     1.808e-02  
    8     3.322e-03  
    9     1.309e-03  
   10     2.251e-04  
   11     7.660e-05  
   12     1.253e-05  
   13     4.474e-06  
   14     1.332e-06  
   15     4.425e-07  Converged.
   ... Converged in 15 steps (norm: 4.42503e-07)
------------------------------------
  Starting TPA DIIS iterations ... 
------------------------------------ 
   It     Res. Norm  Remark
------------------------------------
                       Guess.
    1     6.179e+00  
    2     9.325e+00  
    3     1.600e+00  
    4     4.995e-01  
    5     1.338e-01  
    6     6.058e-02  
    7     1.779e-02  
    8     3.382e-03  
    9     1.332e-03  
   10     2.241e-04  
   11     7.704e-05  
   12     1.239e-05  
   13     4.561e-06  
   14     1.316e-06  
   15     4.420e-07  Converged.
   ... Converged in 15 steps (norm: 4.42001e-07)
------------------------------------
  Starting TPA DIIS iterations ... 
------------------------------------ 
   It     Res. Norm  Remark
------------------------------------
                       Guess.
    1     7.598e-01  
    2     5.940e-01  
    3     2.363e-01  
    4     1.365e-01  
    5     2.980e-02  
    6     1.200e-02  
    7     2.421e-03  
    8     8.675e-04  
    9     2.996e-04  
   10     4.780e-05  
   11     1.805e-05  
   12     6.446e-06  
   13     4.668e-06  
   14     1.971e-06  
   15     5.096e-07  Converged.
   ... Converged in 15 steps (norm: 5.09616e-07)
------------------------------------
  Starting TPA DIIS iterations ... 
------------------------------------ 
   It     Res. Norm  Remark
------------------------------------
                       Guess.
    1     8.194e+00  
    2     1.334e+01  
    3     2.146e+00  
    4     7.417e-01  
    5     2.009e-01  
    6     9.307e-02  
    7     2.742e-02  
    8     5.014e-03  
    9     2.025e-03  
   10     3.512e-04  
   11     1.219e-04  
   12     2.036e-05  
   13     7.414e-06  
   14     2.327e-06  
   15     7.726e-07  Converged.
   ... Converged in 15 steps (norm: 7.72581e-07)
------------------------------------
  Starting TPA DIIS iterations ... 
------------------------------------ 
   It     Res. Norm  Remark
------------------------------------
                       Guess.
    1     7.790e+00  
    2     1.267e+01  
    3     2.044e+00  
    4     7.293e-01  
    5     2.003e-01  
    6     9.355e-02  
    7     2.700e-02  
    8     5.120e-03  
    9     2.063e-03  
   10     3.497e-04  
   11     1.223e-04  
   12     2.008e-05  
   13     7.552e-06  
   14     2.295e-06  
   15     7.708e-07  Converged.
   ... Converged in 15 steps (norm: 7.70766e-07)
------------------------------------
  Starting TPA DIIS iterations ... 
------------------------------------ 
   It     Res. Norm  Remark
------------------------------------
                       Guess.
    1     8.021e-01  
    2     6.703e-01  
    3     2.857e-01  
    4     2.088e-01  
    5     3.917e-02  
    6     1.675e-02  
    7     3.681e-03  
    8     1.189e-03  
    9     4.253e-04  
   10     7.705e-05  
   11     2.683e-05  
   12     9.636e-06  
   13     7.578e-06  
   14     3.285e-06  
   15     9.367e-07  Converged.
   ... Converged in 15 steps (norm: 9.36698e-07)
------------------------------------
  Starting TPA DIIS iterations ... 
------------------------------------ 
   It     Res. Norm  Remark
------------------------------------
                       Guess.
    1     1.015e+01  
    2     1.769e+01  
    3     2.672e+00  
    4     1.044e+00  
    5     2.873e-01  
    6     1.365e-01  
    7     3.954e-02  
    8     7.200e-03  
    9     2.972e-03  
   10     5.169e-04  
   11     1.788e-04  
   12     3.096e-05  
   13     1.115e-05  
   14     3.871e-06  
   15     1.310e-06  
   16     5.728e-07  Converged.
   ... Converged in 16 steps (norm: 5.7282e-07)
------------------------------------
  Starting TPA DIIS iterations ... 
------------------------------------ 
   It     Res. Norm  Remark
------------------------------------
                       Guess.
    1     9.649e+00  
    2     1.680e+01  
    3     2.544e+00  
    4     1.024e+00  
    5     2.865e-01  
    6     1.374e-01  
    7     3.895e-02  
    8     7.368e-03  
    9     3.028e-03  
   10     5.146e-04  
   11     1.791e-04  
   12     3.049e-05  
   13     1.136e-05  
   14     3.796e-06  
   15     1.311e-06  
   16     5.560e-07  Converged.
   ... Converged in 16 steps (norm: 5.55987e-07)
------------------------------------
  Starting TPA DIIS iterations ... 
------------------------------------ 
   It     Res. Norm  Remark
------------------------------------
                       Guess.
    1     8.404e-01  
    2     7.479e-01  
    3     3.385e-01  
    4     2.959e-01  
    5     5.079e-02  
    6     2.251e-02  
    7     5.337e-03  
    8     1.495e-03  
    9     5.692e-04  
   10     1.132e-04  
   11     3.726e-05  
   12     1.365e-05  
   13     1.062e-05  
   14     4.840e-06  
   15     1.417e-06  
   16     6.512e-07  Converged.
   ... Converged in 16 steps (norm: 6.51173e-07)
------------------------------------
  Starting TPA DIIS iterations ... 
------------------------------------ 
   It     Res. Norm  Remark
------------------------------------
                       Guess.
    1     1.109e+01  
    2     1.988e+01  
    3     2.921e+00  
    4     1.199e+00  
    5     3.320e-01  
    6     1.593e-01  
    7     4.581e-02  
    8     8.326e-03  
    9     3.466e-03  
   10     6.030e-04  
   11     2.071e-04  
   12     3.671e-05  
   13     1.311e-05  
   14     4.757e-06  
   15     1.680e-06  
   16     7.716e-07  Converged.
   ... Converged in 16 steps (norm: 7.71592e-07)
------------------------------------
  Starting TPA DIIS iterations ... 
------------------------------------ 
   It     Res. Norm  Remark
------------------------------------
                       Guess.
    1     1.054e+01  
    2     1.889e+01  
    3     2.780e+00  
    4     1.173e+00  
    5     3.310e-01  
    6     1.604e-01  
    7     4.513e-02  
    8     8.529e-03  
    9     3.533e-03  
   10     6.001e-04  
   11     2.076e-04  
   12     3.613e-05  
   13     1.335e-05  
   14     4.652e-06  
   15     1.682e-06  
   16     7.439e-07  Converged.
   ... Converged in 16 steps (norm: 7.43905e-07)
------------------------------------
  Starting TPA DIIS iterations ... 
------------------------------------ 
   It     Res. Norm  Remark
------------------------------------
                       Guess.
    1     8.561e-01  
    2     7.824e-01  
    3     3.627e-01  
    4     3.361e-01  
    5     5.660e-02  
    6     2.527e-02  
    7     6.185e-03  
    8     1.625e-03  
    9     6.375e-04  
   10     1.304e-04  
   11     4.226e-05  
   12     1.583e-05  
   13     1.201e-05  
   14     5.610e-06  
   15     1.601e-06  
   16     7.692e-07  Converged.
   ... Converged in 16 steps (norm: 7.69234e-07)
------------------------------------
  Starting TPA DIIS iterations ... 
------------------------------------ 
   It     Res. Norm  Remark
------------------------------------
                       Guess.
    1     1.145e+01  
    2     2.073e+01  
    3     3.014e+00  
    4     1.259e+00  
    5     3.493e-01  
    6     1.682e-01  
    7     4.825e-02  
    8     8.764e-03  
    9     3.660e-03  
   10     6.365e-04  
   11     2.180e-04  
   12     3.901e-05  
   13     1.390e-05  
   14     5.116e-06  
   15     1.843e-06  
   16     8.573e-07  Converged.
   ... Converged in 16 steps (norm: 8.57279e-07)
------------------------------------
  Starting TPA DIIS iterations ... 
------------------------------------ 
   It     Res. Norm  Remark
------------------------------------
                       Guess.
    1     1.088e+01  
    2     1.969e+01  
    3     2.868e+00  
    4     1.231e+00  
    5     3.483e-01  
    6     1.694e-01  
    7     4.754e-02  
    8     8.980e-03  
    9     3.730e-03  
   10     6.334e-04  
   11     2.185e-04  
   12     3.837e-05  
   13     1.415e-05  
   14     4.999e-06  
   15     1.846e-06  
   16     8.241e-07  Converged.
   ... Converged in 16 steps (norm: 8.24113e-07)
------------------------------------
  Starting TPA DIIS iterations ... 
------------------------------------ 
   It     Res. Norm  Remark
------------------------------------
                       Guess.
    1     8.616e-01  
    2     7.950e-01  
    3     3.716e-01  
    4     3.508e-01  
    5     5.884e-02  
    6     2.630e-02  
    7     6.512e-03  
    8     1.672e-03  
    9     6.632e-04  
   10     1.369e-04  
   11     4.414e-05  
   12     1.671e-05  
   13     1.256e-05  
   14     5.908e-06  
   15     1.663e-06  
   16     8.103e-07  Converged.
   ... Converged in 16 steps (norm: 8.10253e-07)
------------------------------------
  Two-photon absorbption ...  CPU 162.32 s  wall 43.57 s
  Transition density matrix of state singlet_A_1 printed to ASCII file 'State_singlet_A_1_Transition.txt'
  Transition density matrix of state singlet_A_2 printed to ASCII file 'State_singlet_A_2_Transition.txt'
  Transition density matrix of state singlet_A_3 printed to ASCII file 'State_singlet_A_3_Transition.txt'
  Transition density matrix of state singlet_A_4 printed to ASCII file 'State_singlet_A_4_Transition.txt'
  Transition density matrix of state singlet_A_5 printed to ASCII file 'State_singlet_A_5_Transition.txt'
  Transition density matrix of state singlet_A_6 printed to ASCII file 'State_singlet_A_6_Transition.txt'
  Transition density matrix of state singlet_A_7 printed to ASCII file 'State_singlet_A_7_Transition.txt'
  Transition density matrix of state singlet_A_8 printed to ASCII file 'State_singlet_A_8_Transition.txt'
  Transition density matrix of state singlet_A_9 printed to ASCII file 'State_singlet_A_9_Transition.txt'
  Transition density matrix of state singlet_A_10 printed to ASCII file 'State_singlet_A_10_Transition.txt'
  Transition properties ...  CPU 0.52 s  wall 0.94 s
  Difference density matrix of state singlet_A_1 printed to ASCII file 'State_singlet_A_1_Difference.txt'
  Total density matrix of state singlet_A_1 printed to ASCII file 'State_singlet_A_1_Total.txt'
  Difference density matrix of state singlet_A_2 printed to ASCII file 'State_singlet_A_2_Difference.txt'
  Total density matrix of state singlet_A_2 printed to ASCII file 'State_singlet_A_2_Total.txt'
  Difference density matrix of state singlet_A_3 printed to ASCII file 'State_singlet_A_3_Difference.txt'
  Total density matrix of state singlet_A_3 printed to ASCII file 'State_singlet_A_3_Total.txt'
  Difference density matrix of state singlet_A_4 printed to ASCII file 'State_singlet_A_4_Difference.txt'
  Total density matrix of state singlet_A_4 printed to ASCII file 'State_singlet_A_4_Total.txt'
  Difference density matrix of state singlet_A_5 printed to ASCII file 'State_singlet_A_5_Difference.txt'
  Total density matrix of state singlet_A_5 printed to ASCII file 'State_singlet_A_5_Total.txt'
  Difference density matrix of state singlet_A_6 printed to ASCII file 'State_singlet_A_6_Difference.txt'
  Total density matrix of state singlet_A_6 printed to ASCII file 'State_singlet_A_6_Total.txt'
  Difference density matrix of state singlet_A_7 printed to ASCII file 'State_singlet_A_7_Difference.txt'
  Total density matrix of state singlet_A_7 printed to ASCII file 'State_singlet_A_7_Total.txt'
  Difference density matrix of state singlet_A_8 printed to ASCII file 'State_singlet_A_8_Difference.txt'
  Total density matrix of state singlet_A_8 printed to ASCII file 'State_singlet_A_8_Total.txt'
  Difference density matrix of state singlet_A_9 printed to ASCII file 'State_singlet_A_9_Difference.txt'
  Total density matrix of state singlet_A_9 printed to ASCII file 'State_singlet_A_9_Total.txt'
  Difference density matrix of state singlet_A_10 printed to ASCII file 'State_singlet_A_10_Difference.txt'
  Total density matrix of state singlet_A_10 printed to ASCII file 'State_singlet_A_10_Total.txt'
  Properties ...  CPU 0.93 s  wall 0.94 s
  ISR TDMS ...  CPU 33.97 s  wall 10.49 s
  ISR transition properties ...  CPU 0.84 s  wall 0.33 s
  Sum-over-states TPA ...  CPU 0.00 s  wall 0.00 s

--------------------------------------------------------------------------------
                   State-averaged natural transition orbitals
--------------------------------------------------------------------------------
--------------------------------------------------------------------------------
  SA-NTO decomposition ...  CPU 0.01 s  wall 0.03 s

--------------------------------------------------------------------------------
                             Excited State Summary
--------------------------------------------------------------------------------
--------------------------------------------------------------------------------

  Excited state 1 (singlet, A)                                     [converged]
  ----------------------------------------------------------------------------
  Term symbol:  2 (1) A                                     R^2 =  3.10949e-13

  Total energy:                                            -77.9976415166 a.u.
  Excitation energy:                                               8.732117 eV

  Osc. strength:                                                      0.445458
  Trans. dip. moment [a.u.]:           [  -1.046282,    0.993695,    0.009702]
  <i|r^2|0> [a.u.]:                    [  -6.139100,    0.280824,   -0.005422]
  Two-photon absorption cross-section (SoS) [a.u.]:                   0.213028
  Two-photon absorption matrix (SoS) [a.u.]:
                                       |   -0.100135   -0.019282   -0.004407 |
                                       |   -0.019282   -0.102036   -0.005088 |
                                       |   -0.004407   -0.005088   -0.043244 |
  Two-photon absorption cross-section [a.u.]:                         0.080407
  Two-photon absorption matrix [a.u.]:
                                       |    0.070766    0.021362    0.006683 |
                                       |    0.021362    0.072888    0.007554 |
                                       |    0.006683    0.007554   -0.013375 |

  Dip. moment [a.u.]:                  [  -0.007338,    0.006956,    0.000074]
  Total dipole [Debye]:                                               0.025701
  <r^2> [a.u.]:                        [ 175.843429,   36.074083,   11.923313]
  Total <r^2> [a.u.]:                                               223.840824

  V1^2 = 0.9712, V2^2 = 0.0288

  Important amplitudes:
      occ i     occ j     vir a      vir b          v   
    -----------------------------------------------------
     8 (A) A              9 (A) A                -0.6808
     6 (A) A             14 (A) A                -0.0615
     4 (A) A             10 (A) A                -0.0615
     7 (A) A             16 (A) A                 0.0573
     5 (A) A             13 (A) A                 0.0529
     6 (A) A             23 (A) A                -0.0485
     8 (A) A             20 (A) A                -0.0349
     6 (A) A             19 (A) A                -0.0296
     3 (A) A             12 (A) A                 0.0285
     5 (A) A             22 (A) A                -0.0217
     7 (A) A             11 (A) A                -0.0189
     4 (A) A             24 (A) A                -0.0188
     3 (A) A             26 (A) A                -0.0187
     8 (A) A   8 (A) B   17 (A) A   20 (A) B      0.0184
     8 (A) A   8 (A) B    9 (A) A   28 (A) B      0.0168
     6 (A) A             26 (A) A                 0.0164
     7 (A) A             21 (A) A                 0.0155
     3 (A) A             14 (A) A                 0.0143
     6 (A) A             12 (A) A                 0.0140
     3 (A) A   4 (A) B    9 (A) A    9 (A) B      0.0129
     3 (A) A             19 (A) A                 0.0119
     8 (A) A   8 (A) B   18 (A) A   19 (A) B     -0.0109
     6 (A) A             15 (A) A                -0.0097
     3 (A) A             23 (A) A                 0.0083
     7 (A) A             36 (A) A                 0.0083
     7 (A) A             32 (A) A                 0.0079
     8 (A) A   8 (A) B   25 (A) A   29 (A) B      0.0075
     6 (A) A             10 (A) A                 0.0075
     6 (A) A             40 (A) A                -0.0067
     3 (A) A   6 (A) B    9 (A) A   28 (A) B     -0.0064
     5 (A) A   8 (A) B   11 (A) A    9 (A) B      0.0061
     7 (A) A   8 (A) B   13 (A) A   20 (A) B      0.0060
     5 (A) A             27 (A) A                 0.0060
     5 (A) A   8 (A) B   11 (A) A   20 (A) B     -0.0060
     7 (A) A             31 (A) A                 0.0059
     5 (A) A   7 (A) B    9 (A) A    9 (A) B     -0.0059
     6 (A) A   8 (A) A   19 (A) A   28 (A) A     -0.0059
     5 (A) A   8 (A) B   16 (A) A    9 (A) B      0.0059
     3 (A) A   5 (A) B    9 (A) A   25 (A) B      0.0058
     7 (A) A   8 (A) B   22 (A) A   20 (A) B     -0.0057
    -----------------------------------------------------

  Density matrix analysis:
  ------------------------
  NOs
    Occupation of frontier NOs:
       0.9487   1.0223
    Number of electrons: 16.000000
    Number of unpaired electrons: n_u =  2.31713, n_u,nl =  2.03346
    NO participation ratio (PR_NO):  2.877087
  
  
  Mulliken Population Analysis
  Atom      Charge (e)              h+              e-           Del q
  --------------------------------------------------------------------
   1 H        0.064098        0.020098       -0.012852        0.007246
   2 C       -0.100791        0.492290       -0.504092       -0.011803
   3 H        0.064104        0.020099       -0.012851        0.007247
   4 C       -0.151294        0.488946       -0.509052       -0.020106
   5 H        0.061949        0.020806       -0.012098        0.008709
   6 H        0.061934        0.020805       -0.012098        0.008707
  --------------------------------------------------------------------
  Sum:       -0.000000        1.063044       -1.063044       -0.000000
  
  Multipole moment analysis of the density matrix
    Molecular charge:                      0.000000
    Number of electrons:                   16.000000
      Center of electronic charge [Ang]: [ -1.556905,  -0.069496,   0.002086]
    Total nuclear charge:                  16.000000
      Center of nuclear charge [Ang]:    [ -1.557148,  -0.069266,   0.002089]
    Dipole moment [D]:                     0.025701
      Cartesian components [D]:          [ -0.018652,   0.017681,   0.000188]
    RMS size of the density [Ang]:         1.220174
      Cartesian components [Ang]:        [  0.808467,   0.791537,   0.456809]
  
  Exciton analysis of the difference density matrix
    <r_h> [Ang]:                  [ -1.550169,  -0.075894,   0.002019]
    <r_e> [Ang]:                  [ -1.551602,  -0.074532,   0.002033]
    |<r_e - r_h>| [Ang]:            0.001976
    Hole size [Ang]:                1.287459
      Cartesian components [Ang]: [  0.730377,   0.714975,   0.782887]
    Electron size [Ang]:            1.463885
      Cartesian components [Ang]: [  0.854418,   0.831799,   0.849141]

  Transition density matrix analysis:
  -----------------------------------
  
  CT numbers (Mulliken)
    omega =     0.9531
    <Phe> =    -0.1599
  
  Exciton analysis of the transition density matrix
    Trans. dipole moment [D]:             1.833861
      Cartesian components [D]:         [ -1.329692,   1.262860,   0.012330]
    <r_h> [Ang]:                        [ -1.546200,  -0.079664,   0.001983]
    <r_e> [Ang]:                        [ -1.552063,  -0.074094,   0.002037]
    |<r_e - r_h>| [Ang]:                  0.008087
    Hole size [Ang]:                      1.214354
      Cartesian components [Ang]:       [  0.649956,   0.637095,   0.803942]
    Electron size [Ang]:                  1.486734
      Cartesian components [Ang]:       [  0.864856,   0.840643,   0.869323]
    RMS electron-hole separation [Ang]:   1.936964
      Cartesian components [Ang]:       [  1.106695,   1.076214,   1.169966]
    Covariance(r_h, r_e) [Ang^2]:        -0.033366
    Correlation coefficient:             -0.018481
    Center-of-mass size [Ang]:            0.951092
      Cartesian components [Ang]:       [  0.528228,   0.516462,   0.599014]

  Decomposition into state-averaged NTOs
    H- 0 -> L+ 0:  0.6696 ( 89.7%)
    H- 2 -> L+ 5: -0.0831 (  1.4%)
                   omega =  95.3%
  ----------------------------------------------------------------------------


  Excited state 2 (singlet, A)                                     [converged]
  ----------------------------------------------------------------------------
  Term symbol:  3 (1) A                                     R^2 =  2.99597e-13

  Total energy:                                            -77.9911502106 a.u.
  Excitation energy:                                               8.908754 eV

  Osc. strength:                                                      0.000005
  Trans. dip. moment [a.u.]:           [  -0.003417,    0.003231,    0.000013]
  <i|r^2|0> [a.u.]:                    [  -0.085702,   -0.085524,    0.152011]
  Two-photon absorption cross-section (SoS) [a.u.]:                   4.155831
  Two-photon absorption matrix (SoS) [a.u.]:
                                       |   -0.048158   -0.054786    0.490736 |
                                       |   -0.054786   -0.062875    0.516208 |
                                       |    0.490736    0.516208    0.109983 |
  Two-photon absorption cross-section [a.u.]:                         0.240299
  Two-photon absorption matrix [a.u.]:
                                       |    0.010687    0.013350   -0.118050 |
                                       |    0.013350    0.015899   -0.124047 |
                                       |   -0.118050   -0.124047   -0.026539 |

  Dip. moment [a.u.]:                  [  -0.198725,    0.188713,    0.001877]
  Total dipole [Debye]:                                               0.696586
  <r^2> [a.u.]:                        [ 173.014689,   34.429936,   13.230557]
  Total <r^2> [a.u.]:                                               220.675182

  V1^2 = 0.9540, V2^2 = 0.0460

  Important amplitudes:
      occ i     occ j     vir a      vir b          v   
    -----------------------------------------------------
     7 (A) A              9 (A) A                -0.6701
     8 (A) A             11 (A) A                -0.1438
     7 (A) A             20 (A) A                -0.0757
     5 (A) A   8 (A) B    9 (A) A    9 (A) B     -0.0310
     8 (A) A             16 (A) A                -0.0272
     8 (A) A             21 (A) A                 0.0169
     5 (A) A             28 (A) A                -0.0148
     4 (A) A   7 (A) B    9 (A) A   19 (A) B     -0.0137
     5 (A) A   7 (A) B    9 (A) A   16 (A) B     -0.0131
     7 (A) A   8 (A) B   20 (A) A   17 (A) B      0.0106
     7 (A) A   8 (A) A    9 (A) A   28 (A) A     -0.0099
     5 (A) A   8 (A) B    9 (A) A   20 (A) B     -0.0093
     8 (A) A             13 (A) A                -0.0092
     4 (A) A   6 (A) B    9 (A) A   16 (A) B      0.0090
     5 (A) A   6 (A) A    9 (A) A   23 (A) A      0.0089
     5 (A) A   6 (A) A    9 (A) A   14 (A) A      0.0087
     8 (A) A   7 (A) B    9 (A) A   28 (A) B      0.0086
     6 (A) A   7 (A) B    9 (A) A   18 (A) B     -0.0085
     4 (A) A   5 (A) A    9 (A) A   10 (A) A     -0.0084
     5 (A) A   6 (A) B    9 (A) A   19 (A) B      0.0083
     3 (A) A   7 (A) B    9 (A) A   18 (A) B     -0.0080
     5 (A) A   6 (A) B    9 (A) A   23 (A) B      0.0079
     5 (A) A   7 (A) A    9 (A) A   16 (A) A     -0.0077
     4 (A) A   7 (A) B   19 (A) A    9 (A) B     -0.0075
     4 (A) A   8 (A) B    9 (A) A   25 (A) B     -0.0075
     7 (A) A   8 (A) B   17 (A) A   20 (A) B      0.0074
     5 (A) A   5 (A) B    9 (A) A   13 (A) B     -0.0072
     7 (A) A   8 (A) B   19 (A) A   18 (A) B     -0.0070
     4 (A) A   5 (A) B    9 (A) A   18 (A) B      0.0068
     5 (A) A   8 (A) A    9 (A) A   20 (A) A     -0.0067
     7 (A) A   7 (A) B   20 (A) A   22 (A) B     -0.0065
     7 (A) A   8 (A) B   17 (A) A    9 (A) B      0.0065
     7 (A) A   8 (A) B    9 (A) A    9 (A) B      0.0065
     5 (A) A   7 (A) B   11 (A) A   20 (A) B     -0.0061
     4 (A) A   7 (A) A    9 (A) A   19 (A) A     -0.0061
     5 (A) A   6 (A) B    9 (A) A   14 (A) B      0.0061
     4 (A) A   5 (A) B   10 (A) A    9 (A) B      0.0060
     5 (A) A             38 (A) A                -0.0059
     4 (A) A   8 (A) A    9 (A) A   25 (A) A     -0.0056
     6 (A) A   7 (A) A   19 (A) A   28 (A) A     -0.0055
    -----------------------------------------------------

  Density matrix analysis:
  ------------------------
  NOs
    Occupation of frontier NOs:
       0.9603   1.0502
    Number of electrons: 16.000000
    Number of unpaired electrons: n_u =  2.35797, n_u,nl =  2.06153
    NO participation ratio (PR_NO):  3.017128
  
  
  Mulliken Population Analysis
  Atom      Charge (e)              h+              e-           Del q
  --------------------------------------------------------------------
   1 H        0.135063        0.104659       -0.026448        0.078211
   2 C       -0.295033        0.241343       -0.447388       -0.206044
   3 H        0.135052        0.104641       -0.026446        0.078195
   4 C       -0.328915        0.310359       -0.508086       -0.197728
   5 H        0.176912        0.146752       -0.023080        0.123672
   6 H        0.176922        0.146764       -0.023070        0.123694
  --------------------------------------------------------------------
  Sum:        0.000000        1.054518       -1.054518       -0.000000
  
  Multipole moment analysis of the density matrix
    Molecular charge:                      0.000000
    Number of electrons:                   16.000000
      Center of electronic charge [Ang]: [ -1.550576,  -0.075508,   0.002027]
    Total nuclear charge:                  16.000000
      Center of nuclear charge [Ang]:    [ -1.557148,  -0.069266,   0.002089]
    Dipole moment [D]:                     0.696585
      Cartesian components [D]:          [ -0.505108,   0.479661,   0.004770]
    RMS size of the density [Ang]:         1.205080
      Cartesian components [Ang]:        [  0.789798,   0.772583,   0.481201]
  
  Exciton analysis of the difference density matrix
    <r_h> [Ang]:                  [ -1.668075,   0.036096,   0.003126]
    <r_e> [Ang]:                  [ -1.573478,  -0.053741,   0.002236]
    |<r_e - r_h>| [Ang]:            0.130461
    Hole size [Ang]:                1.490269
      Cartesian components [Ang]: [  1.009441,   0.997236,   0.455468]
    Electron size [Ang]:            1.476119
      Cartesian components [Ang]: [  0.881524,   0.859211,   0.814616]

  Transition density matrix analysis:
  -----------------------------------
  
  CT numbers (Mulliken)
    omega =     0.9213
    <Phe> =    -0.0118
  
  Exciton analysis of the transition density matrix
    Trans. dipole moment [D]:             0.005977
      Cartesian components [D]:         [ -0.004343,   0.004107,   0.000016]
    <r_h> [Ang]:                        [ -1.688583,   0.055575,   0.003319]
    <r_e> [Ang]:                        [ -1.558970,  -0.067518,   0.002100]
    |<r_e - r_h>| [Ang]:                  0.178753
    Hole size [Ang]:                      1.519083
      Cartesian components [Ang]:       [  1.032849,   1.020793,   0.445889]
    Electron size [Ang]:                  1.470464
      Cartesian components [Ang]:       [  0.868805,   0.845538,   0.832169]
    RMS electron-hole separation [Ang]:   2.102513
      Cartesian components [Ang]:       [  1.340453,   1.316757,   0.943344]
    Covariance(r_h, r_e) [Ang^2]:         0.040634
    Correlation coefficient:              0.018191
    Center-of-mass size [Ang]:            1.066670
      Cartesian components [Ang]:       [  0.682492,   0.669927,   0.472427]

  Decomposition into state-averaged NTOs
    H- 1 -> L+ 0:  0.6623 ( 87.7%)
    H- 0 -> L+ 2:  0.1440 (  4.1%)
                   omega =  92.1%
  ----------------------------------------------------------------------------


  Excited state 3 (singlet, A)                                     [converged]
  ----------------------------------------------------------------------------
  Term symbol:  4 (1) A                                     R^2 =  2.22217e-13

  Total energy:                                            -77.9829478773 a.u.
  Excitation energy:                                               9.131951 eV

  Osc. strength:                                                      0.023190
  Trans. dip. moment [a.u.]:           [   0.015258,    0.019512,   -0.320994]
  <i|r^2|0> [a.u.]:                    [   0.090045,    0.004593,    0.002793]
  Two-photon absorption cross-section (SoS) [a.u.]:                   0.095096
  Two-photon absorption matrix (SoS) [a.u.]:
                                       |    0.000392    0.000749   -0.079162 |
                                       |    0.000749   -0.001884    0.074945 |
                                       |   -0.079162    0.074945    0.001503 |
  Two-photon absorption cross-section [a.u.]:                         0.232024
  Two-photon absorption matrix [a.u.]:
                                       |    0.006642    0.001453   -0.123462 |
                                       |    0.001453   -0.008861    0.117022 |
                                       |   -0.123462    0.117022    0.002311 |

  Dip. moment [a.u.]:                  [   0.019087,   -0.018128,   -0.000187]
  Total dipole [Debye]:                                               0.066910
  <r^2> [a.u.]:                        [ 180.763892,   41.042778,   11.055590]
  Total <r^2> [a.u.]:                                               232.862260

  V1^2 = 0.9579, V2^2 = 0.0421

  Important amplitudes:
      occ i     occ j     vir a      vir b          v   
    -----------------------------------------------------
     8 (A) A             10 (A) A                 0.6880
     8 (A) A             24 (A) A                 0.0506
     8 (A) A             18 (A) A                -0.0333
     8 (A) A             12 (A) A                 0.0283
     4 (A) A              9 (A) A                 0.0248
     8 (A) A   8 (A) B    9 (A) A   12 (A) B     -0.0223
     8 (A) A   8 (A) B   10 (A) A   17 (A) B      0.0171
     5 (A) A   8 (A) B   11 (A) A   10 (A) B     -0.0168
     7 (A) A   8 (A) B   13 (A) A   10 (A) B      0.0144
     8 (A) A             14 (A) A                -0.0133
     8 (A) A             15 (A) A                 0.0129
     6 (A) A   8 (A) A   10 (A) A   15 (A) A      0.0113
     4 (A) A   8 (A) B   12 (A) A   10 (A) B     -0.0112
     6 (A) A   8 (A) B   15 (A) A   10 (A) B     -0.0109
     4 (A) A   8 (A) A   10 (A) A   12 (A) A      0.0108
     7 (A) A   8 (A) B   22 (A) A   10 (A) B     -0.0108
     7 (A) A   8 (A) A   10 (A) A   13 (A) A     -0.0099
     7 (A) A   8 (A) A   10 (A) A   22 (A) A      0.0098
     5 (A) A   8 (A) A   10 (A) A   11 (A) A      0.0096
     5 (A) A   8 (A) B   21 (A) A   10 (A) B      0.0092
     6 (A) A   8 (A) B   10 (A) A   10 (A) B      0.0090
     6 (A) A              9 (A) A                -0.0086
     6 (A) A   8 (A) A   10 (A) A   18 (A) A      0.0084
     7 (A) A   8 (A) A   12 (A) A   16 (A) A      0.0083
     3 (A) A   4 (A) B   10 (A) A    9 (A) B     -0.0079
     5 (A) A   8 (A) A   10 (A) A   21 (A) A     -0.0078
     4 (A) A   8 (A) B   19 (A) A   10 (A) B     -0.0075
     8 (A) A   8 (A) B    9 (A) A   23 (A) B      0.0075
     8 (A) A   8 (A) B   10 (A) A   28 (A) B     -0.0074
     7 (A) A   8 (A) B   16 (A) A   12 (A) B     -0.0072
     5 (A) A   8 (A) B   10 (A) A   11 (A) B     -0.0072
     3 (A) A   8 (A) A   10 (A) A   24 (A) A     -0.0071
     3 (A) A   8 (A) B   10 (A) A   10 (A) B      0.0071
     8 (A) A   8 (A) B    9 (A) A   19 (A) B     -0.0070
     3 (A) A   8 (A) B   10 (A) A   18 (A) B     -0.0067
     6 (A) A   8 (A) B   18 (A) A   10 (A) B     -0.0063
     3 (A) A   6 (A) B   10 (A) A   28 (A) B      0.0062
     7 (A) A   8 (A) B   12 (A) A   11 (A) B     -0.0059
     6 (A) A             28 (A) A                -0.0059
     5 (A) A   8 (A) A   10 (A) A   16 (A) A      0.0057
    -----------------------------------------------------

  Density matrix analysis:
  ------------------------
  NOs
    Occupation of frontier NOs:
       0.9813   0.9844
    Number of electrons: 16.000000
    Number of unpaired electrons: n_u =  2.28957, n_u,nl =  2.02524
    NO participation ratio (PR_NO):  2.703643
  
  
  Mulliken Population Analysis
  Atom      Charge (e)              h+              e-           Del q
  --------------------------------------------------------------------
   1 H       -0.154186        0.053247       -0.264286       -0.211038
   2 C        0.324463        0.541322       -0.127871        0.413451
   3 H       -0.154178        0.053249       -0.264284       -0.211034
   4 C        0.291692        0.534624       -0.111744        0.422880
   5 H       -0.153886        0.055323       -0.262449       -0.207126
   6 H       -0.153905        0.055322       -0.262455       -0.207133
  --------------------------------------------------------------------
  Sum:        0.000000        1.293087       -1.293087       -0.000000
  
  Multipole moment analysis of the density matrix
    Molecular charge:                      0.000000
    Number of electrons:                   16.000000
      Center of electronic charge [Ang]: [ -1.557779,  -0.068667,   0.002095]
    Total nuclear charge:                  16.000000
      Center of nuclear charge [Ang]:    [ -1.557148,  -0.069266,   0.002089]
    Dipole moment [D]:                     0.066910
      Cartesian components [D]:          [  0.048514,  -0.046077,  -0.000476]
    RMS size of the density [Ang]:         1.282228
      Cartesian components [Ang]:        [  0.858495,   0.844752,   0.439873]
  
  Exciton analysis of the difference density matrix
    <r_h> [Ang]:                  [ -1.554592,  -0.071695,   0.002062]
    <r_e> [Ang]:                  [ -1.566584,  -0.060311,   0.002181]
    |<r_e - r_h>| [Ang]:            0.016536
    Hole size [Ang]:                1.412943
      Cartesian components [Ang]: [  0.836659,   0.822764,   0.787063]
    Electron size [Ang]:            2.077663
      Cartesian components [Ang]: [  1.376007,   1.379434,   0.721421]

  Transition density matrix analysis:
  -----------------------------------
  
  CT numbers (Mulliken)
    omega =     0.9249
    <Phe> =    -0.0110
  
  Exciton analysis of the transition density matrix
    Trans. dipole moment [D]:             0.409155
      Cartesian components [D]:         [  0.019392,   0.024798,  -0.407943]
    <r_h> [Ang]:                        [ -1.545680,  -0.080159,   0.001977]
    <r_e> [Ang]:                        [ -1.567740,  -0.059215,   0.002194]
    |<r_e - r_h>| [Ang]:                  0.030420
    Hole size [Ang]:                      1.212654
      Cartesian components [Ang]:       [  0.636271,   0.623732,   0.822585]
    Electron size [Ang]:                  2.299665
      Cartesian components [Ang]:       [  1.522141,   1.528236,   0.797522]
    RMS electron-hole separation [Ang]:   2.589840
      Cartesian components [Ang]:       [  1.642239,   1.643567,   1.144119]
    Covariance(r_h, r_e) [Ang^2]:         0.026322
    Correlation coefficient:              0.009439
    Center-of-mass size [Ang]:            1.304955
      Cartesian components [Ang]:       [  0.828711,   0.828888,   0.573666]

  Decomposition into state-averaged NTOs
    H- 0 -> L+ 1: -0.6779 ( 91.9%)
                   omega =  92.5%
  ----------------------------------------------------------------------------


  Excited state 4 (singlet, A)                                     [converged]
  ----------------------------------------------------------------------------
  Term symbol:  5 (1) A                                     R^2 =  3.44815e-13

  Total energy:                                            -77.9609008631 a.u.
  Excitation energy:                                               9.731881 eV

  Osc. strength:                                                      0.000000
  Trans. dip. moment [a.u.]:           [  -0.000833,    0.000788,   -0.000015]
  <i|r^2|0> [a.u.]:                    [   0.009562,    0.019345,   -0.033676]
  Two-photon absorption cross-section (SoS) [a.u.]:                 132.641207
  Two-photon absorption matrix (SoS) [a.u.]:
                                       |    0.268472    0.309275   -2.773145 |
                                       |    0.309275    0.353338   -2.915816 |
                                       |   -2.773145   -2.915816   -0.622450 |
  Two-photon absorption cross-section [a.u.]:                        78.700438
  Two-photon absorption matrix [a.u.]:
                                       |    0.207418    0.238226   -2.135978 |
                                       |    0.238226    0.271718   -2.246118 |
                                       |   -2.135978   -2.246118   -0.479441 |

  Dip. moment [a.u.]:                  [   0.003747,   -0.003486,   -0.000041]
  Total dipole [Debye]:                                               0.013009
  <r^2> [a.u.]:                        [ 180.820268,   41.089847,   10.777176]
  Total <r^2> [a.u.]:                                               232.687291

  V1^2 = 0.9633, V2^2 = 0.0367

  Important amplitudes:
      occ i     occ j     vir a      vir b          v   
    -----------------------------------------------------
     8 (A) A             11 (A) A                 0.6699
     7 (A) A              9 (A) A                -0.1462
     8 (A) A             21 (A) A                -0.0779
     8 (A) A             16 (A) A                 0.0677
     8 (A) A             13 (A) A                 0.0237
     8 (A) A   8 (A) B    9 (A) A   13 (A) B      0.0167
     5 (A) A   8 (A) B   11 (A) A   11 (A) B     -0.0156
     8 (A) A   8 (A) B   11 (A) A   17 (A) B      0.0137
     7 (A) A             20 (A) A                -0.0132
     7 (A) A   8 (A) B   13 (A) A   11 (A) B      0.0128
     4 (A) A   8 (A) B   12 (A) A   11 (A) B     -0.0111
     8 (A) A   8 (A) B    9 (A) A   22 (A) B     -0.0110
     5 (A) A   8 (A) A   11 (A) A   21 (A) A     -0.0109
     7 (A) A   8 (A) A   11 (A) A   22 (A) A      0.0094
     6 (A) A   8 (A) B   10 (A) A   11 (A) B      0.0091
     6 (A) A   8 (A) B   15 (A) A   11 (A) B     -0.0090
     7 (A) A   8 (A) B   22 (A) A   11 (A) B     -0.0088
     3 (A) A   4 (A) B   11 (A) A    9 (A) B     -0.0083
     6 (A) A   8 (A) A   11 (A) A   15 (A) A      0.0080
     3 (A) A   8 (A) B   11 (A) A   18 (A) B     -0.0080
     7 (A) A   8 (A) A   13 (A) A   16 (A) A     -0.0079
     7 (A) A   8 (A) A   11 (A) A   13 (A) A     -0.0076
     4 (A) A   8 (A) B   19 (A) A   11 (A) B     -0.0070
     5 (A) A   8 (A) B   21 (A) A   11 (A) B      0.0069
     5 (A) A   8 (A) B    9 (A) A    9 (A) B     -0.0064
     4 (A) A   8 (A) A   11 (A) A   12 (A) A      0.0062
     3 (A) A   6 (A) B   11 (A) A   28 (A) B      0.0060
     6 (A) A   8 (A) A   11 (A) A   18 (A) A      0.0058
     6 (A) A   8 (A) B   18 (A) A   11 (A) B     -0.0057
     7 (A) A   8 (A) B   16 (A) A   13 (A) B      0.0057
     3 (A) A   8 (A) B   11 (A) A   30 (A) B     -0.0056
     5 (A) A   8 (A) B   10 (A) A   10 (A) B     -0.0055
     7 (A) A   8 (A) B   12 (A) A   10 (A) B     -0.0055
     6 (A) A   8 (A) B   11 (A) A   10 (A) B      0.0055
     8 (A) A   8 (A) B   20 (A) A   22 (A) B     -0.0055
     3 (A) A   5 (A) B   11 (A) A   25 (A) B     -0.0054
     3 (A) A   8 (A) A   11 (A) A   18 (A) A     -0.0054
     3 (A) A   8 (A) A   11 (A) A   24 (A) A     -0.0052
     5 (A) A   8 (A) A   11 (A) A   16 (A) A      0.0049
     6 (A) A   8 (A) A   10 (A) A   16 (A) A     -0.0047
    -----------------------------------------------------

  Density matrix analysis:
  ------------------------
  NOs
    Occupation of frontier NOs:
       0.9431   1.0250
    Number of electrons: 16.000000
    Number of unpaired electrons: n_u =  2.32265, n_u,nl =  2.04809
    NO participation ratio (PR_NO):  2.908249
  
  
  Mulliken Population Analysis
  Atom      Charge (e)              h+              e-           Del q
  --------------------------------------------------------------------
   1 H       -0.133177        0.044537       -0.234567       -0.190030
   2 C        0.284175        0.495700       -0.122536        0.373164
   3 H       -0.133472        0.044526       -0.234856       -0.190329
   4 C        0.223234        0.499832       -0.145411        0.354422
   5 H       -0.120509        0.046451       -0.220200       -0.173749
   6 H       -0.120250        0.046463       -0.219940       -0.173478
  --------------------------------------------------------------------
  Sum:        0.000000        1.177509       -1.177509        0.000000
  
  Multipole moment analysis of the density matrix
    Molecular charge:                      0.000000
    Number of electrons:                   16.000000
      Center of electronic charge [Ang]: [ -1.557272,  -0.069151,   0.002090]
    Total nuclear charge:                  16.000000
      Center of nuclear charge [Ang]:    [ -1.557148,  -0.069266,   0.002089]
    Dipole moment [D]:                     0.013009
      Cartesian components [D]:          [  0.009525,  -0.008860,  -0.000105]
    RMS size of the density [Ang]:         1.281624
      Cartesian components [Ang]:        [  0.859989,   0.845200,   0.434299]
  
  Exciton analysis of the difference density matrix
    <r_h> [Ang]:                  [ -1.557617,  -0.068824,   0.002090]
    <r_e> [Ang]:                  [ -1.563892,  -0.062902,   0.002155]
    |<r_e - r_h>| [Ang]:            0.008628
    Hole size [Ang]:                1.393545
      Cartesian components [Ang]: [  0.818169,   0.804906,   0.790375]
    Electron size [Ang]:            2.114006
      Cartesian components [Ang]: [  1.419456,   1.415776,   0.670628]

  Transition density matrix analysis:
  -----------------------------------
  
  CT numbers (Mulliken)
    omega =     0.9292
    <Phe> =    -0.0143
  
  Exciton analysis of the transition density matrix
    Trans. dipole moment [D]:             0.001457
      Cartesian components [D]:         [ -0.001059,   0.001001,  -0.000019]
    <r_h> [Ang]:                        [ -1.554890,  -0.071412,   0.002063]
    <r_e> [Ang]:                        [ -1.569685,  -0.057408,   0.002209]
    |<r_e - r_h>| [Ang]:                  0.020372
    Hole size [Ang]:                      1.227522
      Cartesian components [Ang]:       [  0.659593,   0.647127,   0.808068]
    Electron size [Ang]:                  2.250116
      Cartesian components [Ang]:       [  1.510695,   1.508096,   0.711666]
    RMS electron-hole separation [Ang]:   2.552272
      Cartesian components [Ang]:       [  1.639769,   1.633066,   1.076265]
    Covariance(r_h, r_e) [Ang^2]:         0.028075
    Correlation coefficient:              0.010165
    Center-of-mass size [Ang]:            1.287049
      Cartesian components [Ang]:       [  0.828538,   0.824552,   0.538641]

  Decomposition into state-averaged NTOs
    H- 0 -> L+ 2: -0.6657 ( 88.6%)
    H- 1 -> L+ 0:  0.1441 (  4.2%)
                   omega =  92.9%
  ----------------------------------------------------------------------------


  Excited state 5 (singlet, A)                                     [converged]
  ----------------------------------------------------------------------------
  Term symbol:  6 (1) A                                     R^2 =  3.68717e-13

  Total energy:                                            -77.9458462231 a.u.
  Excitation energy:                                              10.141539 eV

  Osc. strength:                                                      0.000115
  Trans. dip. moment [a.u.]:           [   0.001177,    0.001436,   -0.021444]
  <i|r^2|0> [a.u.]:                    [  -0.073527,    0.096408,   -0.015480]
  Two-photon absorption cross-section (SoS) [a.u.]:                 219.404703
  Two-photon absorption matrix (SoS) [a.u.]:
                                       |   -0.363956   -0.055596    3.788859 |
                                       |   -0.055596    0.432632   -3.592318 |
                                       |    3.788859   -3.592318   -0.070399 |
  Two-photon absorption cross-section [a.u.]:                       113.774930
  Two-photon absorption matrix [a.u.]:
                                       |   -0.262609   -0.040328    2.728393 |
                                       |   -0.040328    0.311024   -2.586886 |
                                       |    2.728393   -2.586886   -0.050572 |

  Dip. moment [a.u.]:                  [   0.128775,   -0.122437,   -0.001212]
  Total dipole [Debye]:                                               0.451655
  <r^2> [a.u.]:                        [ 180.463769,   39.828592,   11.582786]
  Total <r^2> [a.u.]:                                               231.875147

  V1^2 = 0.9552, V2^2 = 0.0448

  Important amplitudes:
      occ i     occ j     vir a      vir b          v   
    -----------------------------------------------------
     8 (A) A             12 (A) A                 0.5726
     6 (A) A              9 (A) A                -0.3765
     8 (A) A             19 (A) A                 0.0524
[...]
    16   -1.435966761720e-03
    17   -1.718380179170e-03
    18    2.017436134266e-04
    19   -4.166870208751e-03
    20    1.680975967701e-02
    21    8.863968346076e-01
    22   -1.465468451115e-03
    23    1.381226918684e-02
    24    7.672296595297e-04
    25    7.251861070066e-02
    26   -5.596963927952e-02
    27   -1.363672007231e+00
    28    1.006160161516e-01
    29   -9.555772697476e-02
    30   -9.719309085192e-04
    31    4.405785918107e-01
    32   -4.184119606636e-01
    33   -4.235488849106e-03
    34    1.579146896827e-02
    35   -1.398032713147e-03
    36   -1.733390420924e-03
    37    5.939950185877e-05
    38   -1.433243640838e-03
    39    8.138407686490e-03
    40    9.654642778281e-01
    41   -5.128354113925e-04
    42   -1.375086008846e-02
    43   -8.547403313645e-04
    44    8.139976851435e-03
    45    9.654586290734e-01
    46    1.371361107717e-02
    47    1.215093468691e-03
    48    7.282653120187e-04
Sym=X
Ene= 0.230752
Spin=Alpha
Occup=0
     1   -3.023612720876e-02
     2   -1.239328665047e+00
     3    1.317362697638e-02
     4    4.102063770536e-03
     5    8.840245143868e-04
     6    6.615357675873e-05
     7   -7.218363126055e-05
     8   -1.055065259376e-03
     9    1.523933576951e-01
    10    1.603660030288e-01
    11    1.707887341117e-02
    12    5.802199763383e-01
    13    6.106742331075e-01
    14    6.504780121330e-02
    15    1.683413477035e-05
    16   -2.078105165084e-04
    17    2.267208525119e-04
    18   -4.046713109691e-03
    19   -2.153633717751e-04
    20    3.027013495811e-02
    21    1.240869285232e+00
    22    3.437014536728e-03
    23    1.338043096170e-02
    24    9.778329162900e-04
    25   -6.144558902890e-05
    26    6.222815686968e-05
    27    9.749214761664e-04
    28    1.563181634115e-01
    29    1.645165487196e-01
    30    1.737535303788e-02
    31    4.827693045366e-01
    32    5.082414847497e-01
    33    5.361468824534e-02
    34   -1.002182314347e-05
    35   -4.685851570327e-05
    36    6.148194715273e-05
    37   -1.053149186883e-03
    38   -4.718656399263e-05
    39   -3.009830528807e-02
    40   -1.097943749353e+00
    41    2.438857471041e-03
    42    1.274555037661e-02
    43    8.837419244409e-04
    44    3.005997599590e-02
    45    1.096509342843e+00
    46    1.259421945713e-02
    47    3.070580016507e-03
    48    7.858131969923e-04
Sym=X
Ene= 0.235892
Spin=Alpha
Occup=0
     1    2.138738561961e-02
     2    1.097843575301e+00
     3   -1.668098960196e-02
     4   -8.069120210206e-03
     5   -1.289115766756e-03
     6    9.019875816972e-02
     7   -8.952093563230e-02
     8   -1.574487849636e+00
     9   -5.652006830356e-02
    10    5.344809156633e-02
    11    5.209046337270e-04
    12   -2.306938453454e-01
    13    2.181666177829e-01
    14    2.115305687901e-03
    15    2.168936761670e-02
    16   -2.606385084568e-03
    17   -2.979474918123e-03
    18    6.706571039430e-04
    19   -1.351342944789e-02
    20    2.135480016726e-02
    21    1.095937534543e+00
    22    7.207385079090e-03
    23    1.703998325224e-02
    24    1.377365298418e-03
    25   -8.388046700844e-02
    26    7.581999316691e-02
    27    1.495596282711e+00
    28   -6.155856124048e-02
    29    5.824788369923e-02
    30    5.794533057359e-04
    31   -2.585404625306e-01
    32    2.448740610813e-01
    33    2.431747949395e-03
    34   -2.047011550603e-02
    35    2.382556507900e-03
    36    2.745261882861e-03
    37   -5.690782766024e-04
    38    1.152839675213e-02
    39   -1.961889070327e-02
    40   -1.041573068190e+00
    41    9.614043122221e-03
    42    1.560665858528e-02
    43    1.404572049674e-03
    44   -1.965023053610e-02
    45   -1.043119142160e+00
    46   -1.512271873803e-02
    47   -1.039772882668e-02
    48   -1.352037556237e-03
Sym=X
Ene= 0.302820
Spin=Alpha
Occup=0
     1   -2.965662841498e-02
     2    1.644395913048e+00
     3   -2.323650175097e-02
     4   -9.042912362176e-04
     5   -1.173760982800e-03
     6   -2.512105486856e-06
     7   -4.219919906085e-06
     8    1.251214310188e-04
     9   -1.296262060309e-01
    10   -1.363612541026e-01
    11   -1.449410292476e-02
    12   -1.136745969234e+00
    13   -1.195640683786e+00
    14   -1.269303846658e-01
    15    3.208539998787e-05
    16   -1.869910296349e-03
    17    2.120529203313e-03
    18   -3.656397062809e-02
    19   -1.867152027465e-03
    20    2.965849381210e-02
    21   -1.644486396837e+00
    22    2.809033643027e-04
    23   -2.324326980125e-02
    24   -1.392437750376e-03
    25    3.947757167710e-06
    26   -8.914073550896e-07
    27   -1.686059662399e-04
    28    1.425357217133e-01
    29    1.499342672603e-01
    30    1.585884110667e-02
    31    1.103216374188e+00
    32    1.160486964199e+00
    33    1.229491032527e-01
    34    3.249219441539e-05
    35   -1.553048206090e-03
    36    1.762718083579e-03
    37   -3.044459620924e-02
    38   -1.558066702526e-03
    39    1.205658568118e-02
    40   -1.658881406645e+00
    41   -2.735924053568e-03
    42    2.291102073193e-02
    43    1.249590887649e-03
    44   -1.206066736036e-02
    45    1.659010463481e+00
    46    2.303593527427e-02
    47   -1.561031181620e-03
    48    1.009353819353e-03
Sym=X
Ene= 0.459432
Spin=Alpha
Occup=0
     1   -1.710348602973e-01
     2   -6.283986759290e-01
     3   -1.720229379860e-02
     4   -1.262257428459e-02
     5   -1.593926488610e-03
     6    5.965542048458e-02
     7    2.749471674387e-02
     8   -3.570141386530e+00
     9    8.233005043249e-02
    10   -7.818954116426e-02
    11   -7.908038795662e-04
    12    2.435765271771e+00
    13   -2.313357323050e+00
    14   -2.262433441810e-02
    15    6.241287331028e-02
    16   -4.781633152024e-03
    17   -6.174674478697e-03
    18   -4.613614359436e-04
    19    7.854454671953e-03
    20   -1.710062436765e-01
    21   -6.284551024761e-01
    22    1.173865029228e-02
    23    1.781194703687e-02
    24    1.643660129811e-03
    25   -6.377010308184e-02
    26   -2.206013960824e-03
    27    3.599154002196e+00
    28    1.229317287589e-01
    29   -1.167350004549e-01
    30   -1.169271849723e-03
    31    2.339622542902e+00
    32   -2.221986931451e+00
    33   -2.173248435973e-02
    34   -4.273850437717e-02
    35    1.748241953397e-03
    36    2.876511327590e-03
    37    1.636749997785e-03
    38   -3.126394019935e-02
    39    5.912484382723e-02
    40    7.226438416521e-01
    41    6.437511720110e-03
    42    1.339774284579e-02
    43    1.114945603598e-03
    44    5.916416518987e-02
    45    7.226308829766e-01
    46   -1.306155127795e-02
    47   -7.102712769250e-03
    48   -1.053015724908e-03
Sym=X
Ene= 0.582484
Spin=Alpha
Occup=0
     1    2.434816855351e-01
     2   -1.328014979224e-01
     3   -1.831687686070e-02
     4    1.999828514886e-02
     5    3.281848767976e-04
     6    6.569849815799e-03
     7   -1.650510575500e-01
     8   -1.037279137075e+00
     9    3.326373002515e-01
    10   -3.159092402873e-01
    11   -3.104953556308e-03
    12   -3.115853444066e-01
    13    2.959064454242e-01
    14    2.955641552789e-03
    15    2.224641685508e-04
    16    3.385323414171e-03
    17    2.984006991921e-03
    18   -3.003581526473e-03
    19    5.844452135552e-02
    20    2.436413166239e-01
    21   -1.328565491814e-01
    22   -2.089789221655e-02
    23    1.724434324011e-02
    24    3.876397330643e-05
    25   -2.142873320117e-02
    26   -1.800096044176e-01
    27    2.254286863041e-01
    28   -2.845537732625e-01
    29    2.702062626072e-01
    30    2.624434270327e-03
    31    1.183632440386e+00
    32   -1.123892546050e+00
    33   -1.102849674911e-02
    34    2.828889499376e-03
    35    3.200201703272e-03
    36    2.739098071278e-03
    37   -2.980210974799e-03
    38    5.902447944617e-02
    39    2.028980099452e-01
    40    2.431171951681e-01
    41    3.453022019936e-02
    42   -2.654962614455e-02
    43    5.289441192288e-05
    44    2.031798449955e-01
    45    2.429218906865e-01
    46    2.825999534029e-02
    47   -3.309373183420e-02
    48   -6.415329979420e-04
Sym=X
Ene= 0.608947
Spin=Alpha
Occup=0
     1   -4.766554900382e-01
     2    1.694279695946e-01
     3   -5.800329035216e-02
     4    4.110383681714e-02
     5   -2.973647168761e-04
     6    4.587299304548e-07
     7    1.838607034940e-05
     8    4.567781143211e-04
     9   -3.342222653099e-02
    10   -3.503577706828e-02
    11   -3.692306756941e-03
    12    2.435521253099e-01
    13    2.562805171894e-01
    14    2.732715039489e-02
    15    1.096312606502e-04
    16   -6.799412896733e-03
    17    7.708581428383e-03
    18   -1.329714344025e-01
    19   -6.813148736678e-03
    20    4.766081633753e-01
    21   -1.693889989891e-01
    22    4.403909618059e-02
    23   -5.581516467843e-02
    24   -1.251662868666e-03
    25    6.570981211757e-07
    26    5.146769325463e-05
    27   -2.558341256355e-04
    28   -3.602985340948e-02
    29   -3.802517689392e-02
    30   -4.040266508494e-03
    31    2.690716893062e-01
    32    2.838034770847e-01
    33    2.991237345052e-02
    34   -1.320156856076e-04
    35    8.408477755748e-03
    36   -9.544829857791e-03
    37    1.646901888209e-01
    38    8.410752858324e-03
    39   -5.594495222158e-01
    40    3.316799023472e-01
    41    3.605636360751e-02
    42   -6.012626504649e-02
    43   -1.906360144137e-03
    44    5.592136293643e-01
    45   -3.317253426585e-01
    46   -6.192409535505e-02
    47    3.294822595061e-02
    48   -9.851181203608e-04
Sym=X
Ene= 0.688501
Spin=Alpha
Occup=0
     1    1.051933026287e-04
     2   -4.534156290465e-05
     3    9.501882492126e-04
     4    1.200494865983e-03
     5   -1.952200367143e-02
     6    8.617609467715e-06
     7    3.170933844942e-05
     8   -4.622822105237e-05
     9    3.229497815894e-02
    10    4.067752638091e-02
    11   -6.716929403648e-01
    12   -2.975521024763e-02
    13   -3.730774107799e-02
    14    6.167442716430e-01
    15   -1.342334157426e-03
    16    8.198292851836e-02
    17   -7.777501057973e-02
    18   -8.617331020773e-03
    19   -1.187033092423e-03
    20    7.949037822603e-05
    21    7.521356024475e-05
    22    9.399340493417e-04
    23    1.176176419485e-03
    24   -1.952190874480e-02
    25    4.195239615335e-06
    26    6.500419699788e-05
    27   -5.706133146215e-05
    28    3.212510629779e-02
    29    4.034813501771e-02
    30   -6.695502733701e-01
    31   -2.923774351283e-02
    32   -3.657909004993e-02
    33    6.084885199371e-01
    34    1.309056531786e-03
    35   -8.319246271150e-02
    36    7.893324109432e-02
    37    8.791554371220e-03
    38    1.225276884897e-03
    39    1.983053605870e-05
    40   -2.030999812533e-06
    41    8.422505041079e-04
    42    1.079594615227e-03
    43   -1.774124296567e-02
    44    5.255114977168e-05
    45   -1.471258606266e-04
    46    8.270533025305e-04
    47    1.061679638133e-03
    48   -1.775045652042e-02
Sym=X
Ene= 0.705663
Spin=Alpha
Occup=0
     1   -4.994843030723e-01
     2    2.653854496902e-01
     3   -7.828235189506e-02
     4   -4.736524273449e-02
     5   -6.637618347564e-03
     6   -5.461895951095e-02
     7   -3.010676502235e-01
     8    9.913383576743e-01
     9    1.906903065367e-01
    10   -1.811228884356e-01
    11   -1.880222580459e-03
    12   -3.770865817051e-01
    13    3.582480990862e-01
    14    3.531898642541e-03
    15    1.865756543500e-01
    16   -2.132579482068e-02
    17   -2.468723656307e-02
    18    4.828929463660e-03
    19   -9.761292871977e-02
    20   -4.995366466735e-01
    21    2.655276094306e-01
    22    4.332687571723e-02
    23    8.057404480839e-02
    24    6.949875990646e-03
    25   -3.663824665813e-02
    26   -2.914521011919e-01
    27   -5.885778132042e-02
    28   -1.894838477718e-01
    29    1.800046803489e-01
    30    1.677343663826e-03
    31   -2.892354180511e-01
    32    2.744744898646e-01
    33    2.836581614926e-03
    34    1.959184840718e-01
    35   -1.980009756317e-02
    36   -2.358184188940e-02
    37    2.815402580986e-03
    38   -5.849101161627e-02
    39   -4.813751324052e-01
    40    5.929883895797e-02
    41   -3.937825545863e-02
    42   -7.883807416193e-02
    43   -6.641447771085e-03
    44   -4.813891367744e-01
    45    5.910660424292e-02
    46    7.675839845419e-02
    47    4.333324383466e-02
    48    6.295744410474e-03
Sym=X
Ene= 0.776520
Spin=Alpha
Occup=0
     1    4.977671955436e-01
     2   -4.884738107285e-01
     3    1.114640421019e-01
     4    2.363013425333e-02
     5    6.796135344811e-03
     6    8.685259798509e-02
     7   -2.125671553451e-01
     8   -4.360507515056e-01
     9    8.586891746475e-02
    10   -8.154801249510e-02
    11   -7.842959701913e-04
    12    3.376234996206e-01
    13   -3.206824638208e-01
    14   -3.162526361286e-03
    15   -2.019769862215e-01
    16    1.783276816144e-02
    17    2.207512072113e-02
    18   -5.764658495600e-04
    19    1.507622974070e-02
    20    4.976703060702e-01
    21   -4.884824596056e-01
    22   -1.794287858243e-02
    23   -1.124508865562e-01
    24   -7.669627014769e-03
    25   -8.863709518885e-02
    26    2.475097337810e-01
    27    5.872600081617e-01
    28    1.143331239659e-01
    29   -1.084825298629e-01
    30   -1.045501864871e-03
    31    1.945711765923e-01
    32   -1.851247050281e-01
    33   -1.810217300793e-03
    34    2.053989258327e-01
    35   -1.726385810545e-02
    36   -2.167181225340e-02
    37   -7.930159088323e-05
    38   -2.033557183013e-03
    39   -5.783400030125e-01
    40    4.585094536340e-01
    41   -2.649268563543e-02
    42   -1.062389138661e-01
    43   -7.674350302091e-03
    44   -5.784047209695e-01
    45    4.582566838819e-01
    46    1.047918975261e-01
    47    3.186035805751e-02
    48    6.944691263727e-03
Sym=X
Ene= 0.807249
Spin=Alpha
Occup=0
     1   -5.782936520552e-06
     2    1.798364506350e-04
     3    1.661287574455e-03
     4    2.101679200201e-03
     5   -3.503356575708e-02
     6    2.183642771986e-06
     7   -2.634457582724e-05
     8    7.216863888464e-06
     9    3.670370670696e-02
    10    4.610582687614e-02
    11   -7.615089969663e-01
    12   -5.420173915281e-02
    13   -6.808814671196e-02
    14    1.124435217206e+00
    15    1.055335616966e-03
    16   -6.572370096258e-02
    17    6.235518297060e-02
    18    6.877081437030e-03
    19    9.614416365673e-04
    20    1.522455322308e-05
    21   -1.734944184937e-04
    22    1.667032058249e-03
    23    2.105301386295e-03
    24   -3.502830486367e-02
    25    1.109558744769e-06
    26   -3.048420663995e-05
    27    1.955530876378e-05
    28   -3.670967980872e-02
    29   -4.618613046227e-02
    30    7.669338127359e-01
    31    5.377524772473e-02
    32    6.762757919763e-02
    33   -1.123893936478e+00
    34    1.049812132431e-03
    35   -6.518227603328e-02
    36    6.184065463067e-02
    37    6.917594879763e-03
    38    9.635791708732e-04
    39    9.600992002277e-07
    40    2.064381444586e-04
    41   -1.324972970681e-03
    42   -1.688916318123e-03
    43    2.747792795151e-02
    44    4.743875668353e-07
    45   -1.814272251281e-04
    46   -1.334811115251e-03
    47   -1.675621575192e-03
    48    2.749293008224e-02
Sym=X
Ene= 0.858415
Spin=Alpha
Occup=0
     1    1.880006891360e-02
     2   -1.049932378885e+00
     3    1.342378202090e-01
     4    6.751721366158e-02
     5    1.053263709840e-02
     6    4.783328965596e-06
     7   -1.313239482606e-05
     8    5.148837308681e-05
     9   -3.827888905587e-01
    10   -4.026454136847e-01
    11   -4.291319535364e-02
    12    8.759160073143e-01
    13    9.212823437770e-01
    14    9.817048688559e-02
    15   -2.083439917654e-04
    16    1.090356532986e-02
    17   -1.235971136803e-02
    18    2.133276782444e-01
    19    1.090063778933e-02
    20   -1.875476192785e-02
    21    1.049829010752e+00
    22    6.061494877654e-02
    23    1.374196099183e-01
    24    1.123153445253e-02
    25   -5.931767842655e-06
    26   -1.848774711072e-05
    27   -1.409351584506e-06
    28   -4.419026496371e-01
    29   -4.648606030378e-01
    30   -4.909783277269e-02
    31    9.946163290055e-01
    32    1.046260682887e+00
    33    1.105210504614e-01
    34    2.409982300708e-04
    35   -1.239733428282e-02
    36    1.404836657399e-02
    37   -2.424942275209e-01
    38   -1.240354035183e-02
    39    1.077787365216e-02
    40   -1.096712912991e+00
    41    3.504375870346e-02
    42    1.579256694566e-01
    43    1.121585757955e-02
    44   -1.083874460884e-02
    45    1.096794986500e+00
    46    1.560329622836e-01
    47    4.305046952396e-02
    48    1.007085636358e-02
Sym=X
Ene= 0.927767
Spin=Alpha
Occup=0
     1   -1.380897041793e-01
     2    1.295077579242e+00
     3   -1.915038447672e-01
     4   -6.514124272038e-03
     5   -9.618750794398e-03
     6    2.548864421509e-06
     7   -7.621285698449e-05
     8    2.010697991921e-04
     9    4.922387380004e-01
    10    5.177116032842e-01
    11    5.497530782441e-02
    12   -1.459350254086e+00
    13   -1.534956305714e+00
    14   -1.629922736096e-01
    15    1.211795883526e-04
    16   -7.022246965973e-03
    17    7.939825438374e-03
    18   -1.366642359385e-01
    19   -7.000488714673e-03
    20    1.380993209020e-01
    21   -1.295139163146e+00
    22    3.272202972524e-03
    23   -1.914988739664e-01
    24   -1.142756822427e-02
    25   -7.329929478530e-06
    26   -7.547025715447e-05
    27    7.049266126668e-05
    28   -4.556717372018e-01
    29   -4.793770509502e-01
    30   -5.078017932355e-02
    31    1.311396778289e+00
    32    1.379651668642e+00
    33    1.461598586739e-01
    34    1.310748992478e-04
    35   -5.443901242117e-03
    36    6.162685408063e-03
    37   -1.069756839002e-01
    38   -5.476034042721e-03
    39    1.440976170158e-01
    40   -1.168082861012e+00
    41   -2.560178745262e-02
    42    1.690674712181e-01
    43    8.962655687872e-03
    44   -1.441628010983e-01
    45    1.167990035868e+00
    46    1.702482475339e-01
    47   -1.692288102305e-02
    48    7.139111493189e-03
Sym=X
Ene= 0.969375
Spin=Alpha
Occup=0
     1   -4.831090562386e-02
     2    9.286971887161e-01
     3   -9.028281059569e-02
     4   -1.032466579554e-01
     5   -1.056965602316e-02
     6    2.830666583398e-02
     7    3.449880149308e-01
     8    3.581525855231e-01
     9    4.844498178065e-01
    10   -4.601276470222e-01
    11   -4.520428360337e-03
    12   -1.448091057574e+00
    13    1.375378926147e+00
    14    1.349949624465e-02
    15   -6.692262141626e-02
    16   -1.281096319600e-02
    17   -9.271663458254e-03
    18    1.623199565482e-02
    19   -3.165482659246e-01
    20   -4.834316359966e-02
    21    9.287846106647e-01
    22    9.855230364531e-02
    23    9.540053360682e-02
    24    1.051265431981e-02
    25   -2.646652773889e-02
    26   -1.555459662108e-01
    27   -6.583352294962e-01
    28    4.786509164828e-01
    29   -4.545365494092e-01
    30   -4.474715552795e-03
    31   -1.477953296188e+00
    32    1.403504560522e+00
    33    1.379684887282e-02
    34    5.097539333203e-02
    35    1.180086597712e-02
    36    8.874755129682e-03
    37   -1.414276960928e-02
    38    2.761550736825e-01
    39    6.438924111528e-02
    40   -8.487150181347e-01
    41    8.554607204471e-02
    42    8.747271265496e-02
    43    9.398163695285e-03
    44    6.438619813469e-02
    45   -8.488481973924e-01
    46   -8.305356718923e-02
    47   -8.986838229353e-02
    48   -9.405317841828e-03
[5D]

======= END OF MOLDEN-FORMATTED INPUT FILE =======


        *************************************************************
        *                                                           *
        *  Thank you very much for using Q-Chem.  Have a nice day.  *
        *                                                           *
        *************************************************************


