                  Welcome to Q-Chem
     A Quantum Leap Into The Future Of Chemistry


 Q-Chem 5.4 (devel), Q-Chem, Inc., Pleasanton, CA (2021)

 E. Epifanovsky,  A. T. B. Gilbert,  Xintian Feng,  Joonho Lee,  Yuezhi Mao,  
 N. Mardirossian,  P. Pokhilko,  A. White,  M. Wormit,  M. P. Coons,  
 A. L. Dempwolff,  Zhengting Gan,  D. Hait,  P. R. Horn,  L. D. Jacobson,  
 I. Kaliman,  J. Kussmann,  A. W. Lange,  Ka Un Lao,  D. S. Levine,  Jie Liu,  
 S. C. McKenzie,  A. F. Morrison,  K. Nanda,  F. Plasser,  D. R. Rehn,  
 M. L. Vidal,  Zhi-Qiang You,  Ying Zhu,  B. Alam,  B. Albrecht,  
 A. Aldossary,  E. Alguire,  J. H. Andersen,  D. Barton,  K. Begam,  A. Behn,  
 Y. A. Bernard,  E. J. Berquist,  H. Burton,  A. Carreras,  K. Carter-Fenk,  
 R. Chakraborty,  A. D. Chien,  K. D. Closser,  V. Cofer-Shabica,  
 S. Dasgupta,  Jia Deng,  M. de Wergifosse,  M. Diedenhofen,  Hainam Do,  
 S. Ehlert,  Po-Tung Fang,  S. Fatehi,  Qingguo Feng,  T. Friedhoff,  
 J. Gayvert,  Qinghui Ge,  G. Gidofalvi,  M. Goldey,  J. Gomes,  
 C. Gonzalez-Espinoza,  S. Gulania,  A. Gunina,  M. W. D. Hanson-Heine,  
 P. H. P. Harbach,  A. W. Hauser,  M. F. Herbst,  M. Hernandez Vera,  
 M. Hodecker,  Z. C. Holden,  S. Houck,  Xunkun Huang,  Kerwin Hui,  
 B. C. Huynh,  M. Ivanov,  Hyunjun Ji,  Hanjie Jiang,  B. Kaduk,  S. Kaehler,  
 K. Khistyaev,  Jaehoon Kim,  P. Klunzinger,  Z. Koczor-Benda,  
 Joong Hoon Koh,  D. Kosenkov,  L. Koulias,  T. Kowalczyk,  C. M. Krauter,  
 K. Kue,  A. Kunitsa,  T. Kus,  A. Landau,  K. V. Lawler,  D. Lefrancois,  
 S. Lehtola,  Rain Li,  Yi-Pei Li,  Jiashu Liang,  M. Liebenthal,  
 Hung-Hsuan Lin,  You-Sheng Lin,  Fenglai Liu,  Kuan-Yu Liu,  
 M. Loipersberger,  A. Luenser,  A. Manjanath,  P. Manohar,  E. Mansoor,  
 S. F. Manzer,  Shan-Ping Mao,  A. V. Marenich,  T. Markovich,  S. Mason,  
 S. A. Maurer,  P. F. McLaughlin,  M. F. S. J. Menger,  J.-M. Mewes,  
 S. A. Mewes,  P. Morgante,  J. W. Mullinax,  K. J. Oosterbaan,  G. Paran,  
 Alexander C. Paul,  Suranjan K. Paul,  F. Pavosevic,  Zheng Pei,  S. Prager,  
 E. I. Proynov,  E. Ramos,  B. Rana,  A. E. Rask,  A. Rettig,  R. M. Richard,  
 F. Rob,  E. Rossomme,  T. Scheele,  M. Scheurer,  M. Schneider,  
 N. Sergueev,  S. M. Sharada,  W. Skomorowski,  D. W. Small,  C. J. Stein,  
 Yu-Chuan Su,  E. J. Sundstrom,  Zhen Tao,  J. Thirman,  T. Tsuchimochi,  
 N. M. Tubman,  S. P. Veccham,  O. Vydrov,  J. Wenzel,  J. Witte,  A. Yamada,  
 Kun Yao,  S. Yeganeh,  S. R. Yost,  A. Zech,  Igor Ying Zhang,  Xing Zhang,  
 Yu Zhang,  D. Zuev,  A. Aspuru-Guzik,  A. T. Bell,  N. A. Besley,  
 K. B. Bravaya,  B. R. Brooks,  D. Casanova,  Jeng-Da Chai,  S. Coriani,  
 C. J. Cramer,  A. E. DePrince, III,  R. A. DiStasio Jr.,  A. Dreuw,  
 B. D. Dunietz,  T. R. Furlani,  W. A. Goddard III,  S. Grimme,  
 S. Hammes-Schiffer,  T. Head-Gordon,  W. J. Hehre,  Chao-Ping Hsu,  
 T.-C. Jagau,  Yousung Jung,  A. Klamt,  Jing Kong,  D. S. Lambrecht,  
 WanZhen Liang,  N. J. Mayhall,  C. W. McCurdy,  J. B. Neaton,  
 C. Ochsenfeld,  J. A. Parkhill,  R. Peverati,  V. A. Rassolov,  Yihan Shao,  
 L. V. Slipchenko,  T. Stauch,  R. P. Steele,  J. E. Subotnik,  
 A. J. W. Thom,  A. Tkatchenko,  D. G. Truhlar,  T. Van Voorhis,  
 T. A. Wesolowski,  K. B. Whaley,  H. L. Woodcock III,  P. M. Zimmerman,  
 S. Faraji,  P. M. W. Gill,  M. Head-Gordon,  J. M. Herbert,  A. I. Krylov

 Additional authors for Version 5.4.1: 
 S. Kotaru,  Shaozhi Li,  Xiangyuan Li,  F. Matz,  A. Molle,  Haisheng Ren,  
 Yingli Su,  Hung-Yi Tsai,  C. Utku,  Fang Wang

 Contributors to earlier versions of Q-Chem not listed above: 
 R. D. Adamson,  B. Austin,  R. Baer,  J. Baker,  G. J. O. Beran,  
 K. Brandhorst,  S. T. Brown,  E. F. C. Byrd,  A. K. Chakraborty,  
 G. K. L. Chan,  Chun-Min Chang,  Yunqing Chen,  C.-L. Cheng,  
 Siu Hung Chien,  D. M. Chipman,  D. L. Crittenden,  H. Dachsel,  
 R. J. Doerksen,  A. D. Dutoi,  R. G. Edgar,  J. Fosso-Tande,  
 L. Fusti-Molnar,  D. Ghosh,  A. Ghysels,  A. Golubeva-Zadorozhnaya,  
 J. Gonthier,  M. S. Gordon,  S. R. Gwaltney,  G. Hawkins,  J. E. Herr,  
 A. Heyden,  S. Hirata,  E. G. Hohenstein,  G. Kedziora,  F. J. Keil,  
 C. Kelley,  Jihan Kim,  R. A. King,  R. Z. Khaliullin,  P. P. Korambath,  
 W. Kurlancheek,  A. Laurent,  A. M. Lee,  M. S. Lee,  S. V. Levchenko,  
 Ching Yeh Lin,  D. Liotard,  E. Livshits,  R. C. Lochan,  I. Lotan,  
 L. A. Martinez-Martinez,  P. E. Maslen,  N. Nair,  D. P. O'Neill,  
 D. Neuhauser,  E. Neuscamman,  C. M. Oana,  R. Olivares-Amaya,  R. Olson,  
 T. M. Perrine,  B. Peters,  P. A. Pieniazek,  A. Prociuk,  Y. M. Rhee,  
 J. Ritchie,  M. A. Rohrdanz,  E. Rosta,  N. J. Russ,  H. F. Schaefer III,  
 M. W. Schmidt,  N. E. Schultz,  S. Sharma,  N. Shenvi,  C. D. Sherrill,  
 A. C. Simmonett,  A. Sodt,  T. Stein,  D. Stuck,  K. S. Thanthiriwatte,  
 V. Vanovschi,  L. Vogt,  Tao Wang,  A. Warshel,  M. A. Watson,  
 C. F. Williams,  Q. Wu,  X. Xu,  Jun Yang,  W. Zhang,  Yan Zhao

 Please cite Q-Chem as follows:
 Y. Shao et al., Mol. Phys. 113, 184-215 (2015)
 DOI: 10.1080/00268976.2014.952696

 Q-Chem 5.4.1 for Intel X86 EM64T Linux

 Parts of Q-Chem use Armadillo 9.800.1 (Horizon Scraper).
 http://arma.sourceforge.net/

 Q-Chem begins on Thu Nov 17 00:23:29 2022  

 Host: cpu311.baobab
0

     Scratch files written to /scratch/fum/qchem243210//
 Processing $rem in /home/share/wesolowski/qc5.aug2021.FDE/config/preferences:
 Processing $rem in /home/fum/.qchemrc:

 Checking the input file for inconsistencies... 	...done.

--------------------------------------------------------------
User input:
--------------------------------------------------------------
$comment
generated from CCJob.Templates
$end

$rem
sym_ignore = true
method = adc(2)
ee_states = 10
basis = cc-pVDZ
mem_static = 1024
mem_total = 30000
adc_davidson_maxiter = 900
adc_davidson_conv = 6
adc_print = 3
adc_prop_es = true
adc_prop_es2es = true
adc_prop_tpa = true
molden_format = True
state_analysis = true
print_orbitals = 15
gen_scfman = false
fde_export_density = true
fde_details = 3
$end

$molecule
0 1
H -0.0398278765 -0.2442097827 0.0636489606
C -1.0765972949 -0.5242748755 -0.0023551776
H -1.313264467 -1.5767591607 -0.0757276926
C -2.043634118 0.3926884087 0.0061254933
H -1.8137616575 1.4459188338 0.0804456828
H -3.085977293 0.114931858 -0.0593381042                     
$end
--------------------------------------------------------------
 ----------------------------------------------------------------
             Standard Nuclear Orientation (Angstroms)
    I     Atom           X                Y                Z
 ----------------------------------------------------------------
    1      H      -0.0398278765    -0.2442097827     0.0636489606
    2      C      -1.0765972949    -0.5242748755    -0.0023551776
    3      H      -1.3132644670    -1.5767591607    -0.0757276926
    4      C      -2.0436341180     0.3926884087     0.0061254933
    5      H      -1.8137616575     1.4459188338     0.0804456828
    6      H      -3.0859772930     0.1149318580    -0.0593381042
 ----------------------------------------------------------------
 Nuclear Repulsion Energy =          33.44134916 hartrees
 There are        8 alpha and        8 beta electrons
 Requested basis set is cc-pVDZ
 There are 24 shells and 48 basis functions
 Total memory of 30000 MB is distributed as follows: 
   MEM_STATIC is set to 1024 MB
   QALLOC/CCMAN JOB total memory use is  28976 MB
 Warning: actual memory use might exceed 30000 MB

 Total QAlloc Memory Limit  30000 MB
 Mega-Array Size      1001 MB
 MEM_STATIC part      1024 MB

                       Distance Matrix (Angstroms)
             H (  1)   C (  2)   H (  3)   C (  4)   H (  5)
   C (  2)  1.075957
   H (  3)  1.848446  1.081258
   C (  4)  2.103375  1.332687  2.102109
   H (  5)  2.450236  2.105215  3.067812  1.080583
   H (  6)  3.069712  2.109370  2.450428  1.080700  1.846510

 A cutoff of  1.0D-11 yielded    300 shell pairs
 There are      1220 function pairs (      1329 Cartesian)
 Smallest overlap matrix eigenvalue = 4.80E-03

 Scale SEOQF with 1.000000e-01/1.000000e-01/1.000000e+00

 Standard Electronic Orientation quadrupole field applied
 Nucleus-field energy     =     0.0000000022 hartrees
 Guess from superposition of atomic densities
 Warning:  Energy on first SCF cycle will be non-variational
 SAD guess density has 16.000000 electrons
 A restricted Hartree-Fock SCF calculation will be
 performed using Pulay DIIS extrapolation
 SCF converges when DIIS error is below 1.0E-08
 using 8 threads for integral computing
 -------------------------------------------------------
 OpenMP Integral computing Module                
 Release: version 1.0, May 2013, Q-Chem Inc. Pittsburgh 
 -------------------------------------------------------
 ---------------------------------------
  Cycle       Energy         DIIS Error
 ---------------------------------------
    1     -78.4423111404      1.01E-01
    2     -78.0176362073      7.22E-03
    3     -78.0382827825      1.85E-03
    4     -78.0397663139      5.73E-04
    5     -78.0398881742      5.79E-05
    6     -78.0398900524      9.28E-06
    7     -78.0398901130      2.18E-06
    8     -78.0398901158      7.86E-07
    9     -78.0398901160      1.16E-07
   10     -78.0398901160      2.31E-08
   11     -78.0398901160      6.76E-09 Convergence criterion met
 ---------------------------------------
 SCF time:  CPU 1.47 s  wall 1.89 s
 SCF   energy in the final basis set = -78.03989012
 Total energy in the final basis set = -78.03989012
Exporting Density Matrix to file 'Densmat_SCF.txt'.
Export successful
================================================================================
|                                                                              |
|                                 A D C  M A N                                 |
|                                                                              |
 ------------------------------------------------------------------------------ 
|                                                                              |
| Components:                                                                  |
|                                                                              |
| - libvmm - 1.3-trunk                                                         |
|   Authors:                                                                   |
|   Evgeny Epifanovsky, Ilya Kaliman                                           |
|                                                                              |
| - libtensor - 2.5-trunk                                                      |
|   Authors:                                                                   |
|   Evgeny Epifanovsky, Michael Wormit, Dmitry Zuev, Sam Manzer,               |
|   Ilya Kaliman                                                               |
|                                                                              |
| - libwfa - 1.1-trunk                                                         |
|   Authors:                                                                   |
|   Felix Plasser, Stefanie Mewes (Baeppler), Benjamin Thomitzni,              |
|   Michael Wormit, Feng Chen, Anna I. Krylov, Pavel Pokhilko                  |
|                                                                              |
| - libadc - 1.1-trunk                                                         |
|   Authors:                                                                   |
|   Michael Wormit, Adrian L. Dempwolff, Philipp H. P. Harbach,                |
|   Caroline Krauter, Dirk Rehn, Matthias Schneider, Jan Wenzel                |
|                                                                              |
| - adcman - 2.6-trunk                                                         |
|   Authors:                                                                   |
|   Michael Wormit, Adrian L. Dempwolff, Philipp H. P. Harbach,                |
|   Caroline Krauter, Daniel Lefrancois, Jan-Michael Mewes, Dirk Rehn,         |
|   Matthias Schneider, Jan Wenzel, Andreas Dreuw                              |
|                                                                              |
| Authors of earlier versions of ADCMAN:                                       |
| Andreas Dreuw, Jan Hendrik Starcke, Dirk Rehn, Michael Wormit                |
|                                                                              |
================================================================================

 Created directory /scratch/fum/qchem243210/plots
  Import QC data ...  CPU 0.00 s  wall 0.00 s

 Alpha MOs, Restricted
 -- Occupied --                  
-11.235 -11.233  -1.032  -0.790  -0.642  -0.582  -0.505  -0.374
  1 A     2 A     3 A     4 A     5 A     6 A     7 A     8 A                  
 -- Virtual --                   
  0.168   0.204   0.233   0.240   0.303   0.462   0.577   0.615
  9 A    10 A    11 A    12 A    13 A    14 A    15 A    16 A                  
  0.689   0.709   0.785   0.808   0.863   0.937   0.973   1.010
 17 A    18 A    19 A    20 A    21 A    22 A    23 A    24 A                  
  1.130   1.235   1.255   1.266   1.294   1.602   1.727   1.751
 25 A    26 A    27 A    28 A    29 A    30 A    31 A    32 A                  
  1.820   1.860   1.868   1.923   1.977   1.980   2.222   2.258
 33 A    34 A    35 A    36 A    37 A    38 A    39 A    40 A                  
  2.377   2.456   2.508   2.635   2.724   2.825   3.143   3.402
 41 A    42 A    43 A    44 A    45 A    46 A    47 A    48 A                  

 Beta MOs, Restricted
 -- Occupied --                  
-11.235 -11.233  -1.032  -0.790  -0.642  -0.582  -0.505  -0.374
  1 A     2 A     3 A     4 A     5 A     6 A     7 A     8 A                  
 -- Virtual --                   
  0.168   0.204   0.233   0.240   0.303   0.462   0.577   0.615
  9 A    10 A    11 A    12 A    13 A    14 A    15 A    16 A                  
  0.689   0.709   0.785   0.808   0.863   0.937   0.973   1.010
 17 A    18 A    19 A    20 A    21 A    22 A    23 A    24 A                  
  1.130   1.235   1.255   1.266   1.294   1.602   1.727   1.751
 25 A    26 A    27 A    28 A    29 A    30 A    31 A    32 A                  
  1.820   1.860   1.868   1.923   1.977   1.980   2.222   2.258
 33 A    34 A    35 A    36 A    37 A    38 A    39 A    40 A                  
  2.377   2.456   2.508   2.635   2.724   2.825   3.143   3.402
 41 A    42 A    43 A    44 A    45 A    46 A    47 A    48 A                  
  Import AO data ...  CPU 0.00 s  wall 0.01 s
  Using point group: C1
  Irreducible representations in point group: A
  Molecular orbitals: 
  Occupied MOs:
  Block   0:   1 (  A) A   2 (  A) A   3 (  A) A   4 (  A) A   5 (  A) A
                  -11.23      -11.23      -1.032     -0.7902     -0.6416
               6 (  A) A   7 (  A) A   8 (  A) A
                  -0.582      -0.505      -0.374
  Block   1:   1 (  A) B   2 (  A) B   3 (  A) B   4 (  A) B   5 (  A) B
                  -11.23      -11.23      -1.032     -0.7902     -0.6416
               6 (  A) B   7 (  A) B   8 (  A) B
                  -0.582      -0.505      -0.374
  Virtual MOs:
  Block   0:   9 (  A) A  10 (  A) A  11 (  A) A  12 (  A) A  13 (  A) A
                  0.1684      0.2038      0.2332      0.2396      0.3033
              14 (  A) A  15 (  A) A  16 (  A) A  17 (  A) A  18 (  A) A
                  0.4621      0.5774      0.6155      0.6892      0.7094
              19 (  A) A  20 (  A) A  21 (  A) A  22 (  A) A
                  0.7853       0.808      0.8626      0.9366
  Block   1:  23 (  A) A  24 (  A) A  25 (  A) A  26 (  A) A  27 (  A) A
                  0.9727        1.01        1.13       1.235       1.255
              28 (  A) A  29 (  A) A  30 (  A) A  31 (  A) A  32 (  A) A
                   1.266       1.294       1.602       1.727       1.751
              33 (  A) A  34 (  A) A  35 (  A) A  36 (  A) A
                    1.82        1.86       1.868       1.923
  Block   2:  37 (  A) A  38 (  A) A  39 (  A) A  40 (  A) A  41 (  A) A
                   1.977        1.98       2.222       2.258       2.377
              42 (  A) A  43 (  A) A  44 (  A) A  45 (  A) A  46 (  A) A
                   2.456       2.508       2.635       2.724       2.825
              47 (  A) A  48 (  A) A
                   3.143       3.402
  Block   3:   9 (  A) B  10 (  A) B  11 (  A) B  12 (  A) B  13 (  A) B
                  0.1684      0.2038      0.2332      0.2396      0.3033
              14 (  A) B  15 (  A) B  16 (  A) B  17 (  A) B  18 (  A) B
                  0.4621      0.5774      0.6155      0.6892      0.7094
              19 (  A) B  20 (  A) B  21 (  A) B  22 (  A) B
                  0.7853       0.808      0.8626      0.9366
  Block   4:  23 (  A) B  24 (  A) B  25 (  A) B  26 (  A) B  27 (  A) B
                  0.9727        1.01        1.13       1.235       1.255
              28 (  A) B  29 (  A) B  30 (  A) B  31 (  A) B  32 (  A) B
                   1.266       1.294       1.602       1.727       1.751
              33 (  A) B  34 (  A) B  35 (  A) B  36 (  A) B
                    1.82        1.86       1.868       1.923
  Block   5:  37 (  A) B  38 (  A) B  39 (  A) B  40 (  A) B  41 (  A) B
                   1.977        1.98       2.222       2.258       2.377
              42 (  A) B  43 (  A) B  44 (  A) B  45 (  A) B  46 (  A) B
                   2.456       2.508       2.635       2.724       2.825
              47 (  A) B  48 (  A) B
                   3.143       3.402
  Import MO data ...  CPU 0.01 s  wall 0.01 s
  Import HF data ...  CPU 0.07 s  wall 0.04 s
  Import 2e integrals ...  CPU 0.61 s  wall 0.11 s

--------------------------------------------------------------------------------
                                   HF Summary                                   
--------------------------------------------------------------------------------
  Energy:                                                  -78.0398901160 a.u.
  Dip. moment [a.u.]:                  [   0.000096,    0.000841,    0.000575]
  Total dipole [Debye]:                                               0.002601
  <r^2> [a.u.]:                        [ 175.326200,   34.916685,   11.621457]
  Total <r^2> [a.u.]:                                               221.864342
--------------------------------------------------------------------------------
  HF properties ...  CPU 0.01 s  wall 0.01 s
  MP(1) calculation ...  CPU 0.01 s  wall 0.01 s
  N^6 prerequesite intermediates ...  CPU 0.45 s  wall 0.08 s
  Difference density matrix of state mp2_gs printed to ASCII file 'State_mp2_gs_Difference.txt'
Exporting MP density matrix to file 'Densmat_MP.txt'.
Export successful
  Total density matrix of state mp2_gs printed to ASCII file 'State_mp2_gs_Total.txt'
Exporting MP density matrix to file 'Densmat_MP.txt'.
Export successful

--------------------------------------------------------------------------------
                                 MP(2) Summary                                  
--------------------------------------------------------------------------------
  MP energy contribution:                                   -0.2796371527 a.u.
  Total energy:                                            -78.3195272687 a.u.
  Dip. moment [a.u.]:                  [   0.000037,    0.000672,    0.000556]
  Total dipole [Debye]:                                               0.002218
  <r^2> [a.u.]:                        [ 175.373190,   34.957454,   11.453633]
  Total <r^2> [a.u.]:                                               221.784276

  Density matrix analysis:
  ------------------------
  NOs
    Occupation of frontier NOs:
       0.0453   1.9383
    Number of electrons: 16.000000
    Number of unpaired electrons: n_u =  0.40310, n_u,nl =  0.04502
    NO participation ratio (PR_NO): 13.853335
  
  
  Mulliken Population Analysis
  Atom      Charge (e)              h+              e-           Del q
  --------------------------------------------------------------------
   1 H        0.049629        0.014104       -0.011178        0.002926
   2 C       -0.098359        0.092919       -0.098696       -0.005777
   3 H        0.050410        0.014080       -0.011177        0.002903
   4 C       -0.102197        0.093026       -0.098908       -0.005881
   5 H        0.050056        0.014119       -0.011181        0.002938
   6 H        0.050461        0.014081       -0.011190        0.002891
  --------------------------------------------------------------------
  Sum:       -0.000000        0.242330       -0.242330        0.000000
  
  Multipole moment analysis of the density matrix
    Molecular charge:                      -0.000000
    Number of electrons:                   16.000000
      Center of electronic charge [Ang]: [ -1.560890,  -0.065625,   0.001960]
    Total nuclear charge:                  16.000000
      Center of nuclear charge [Ang]:    [ -1.560889,  -0.065602,   0.001978]
    Dipole moment [D]:                     0.002218
      Cartesian components [D]:          [  0.000095,   0.001707,   0.001413]
    RMS size of the density [Ang]:         1.200388
      Cartesian components [Ang]:        [  0.795592,   0.779430,   0.447722]
  
  Exciton analysis of the difference density matrix
    <r_h> [Ang]:                  [ -1.561456,  -0.065691,   0.001845]
    <r_e> [Ang]:                  [ -1.561328,  -0.065322,   0.001888]
    |<r_e - r_h>| [Ang]:            0.000393
    Hole size [Ang]:                1.393077
      Cartesian components [Ang]: [  0.845655,   0.834169,   0.727799]
    Electron size [Ang]:            1.359628
      Cartesian components [Ang]: [  0.877400,   0.861973,   0.579448]
--------------------------------------------------------------------------------
  MP(2) calculation ...  CPU 0.21 s  wall 0.11 s
  Start ADC(2)-s ...  CPU 0.01 s  wall 0.00 s
  ADC(2) intermediates ...  CPU 0.02 s  wall 0.01 s
  Starting Davidson for singlet states of irrep A ... 
--------------------------------------------------------------------------------
   It NVec Conv  Avg. Norm  Max. Norm  Conv. states           Remark
--------------------------------------------------------------------------------
        10    0  1.330e-01  4.688e-01  0.4119 n n n n n n n n Guess.
    1   20    0  2.304e-02  1.109e-01  0.3262 n n n n n n n n 
    2   30    0  5.875e-03  2.621e-02  0.3215 n n n n n n n n 
    3   40    0  2.066e-03  1.465e-02  0.3211 n n n n n n n n 
    4   50    0  6.315e-04  4.781e-03  0.3211 n n n n n n n n 
    5   20    0  2.675e-04  1.935e-03  0.3211 n n n n n n n n Subspace collapsed.
    6   30    0  1.821e-04  1.632e-03  0.3211 n n n n n n n n 
    7   40    0  1.064e-04  8.382e-04  0.3211 n n n n n n n n 
    8   50    0  9.965e-05  9.411e-04  0.3211 n n n n n n n n 
    9   20    2  8.528e-05  8.296e-04  0.3211 n y n y n n n n Subspace collapsed.
   10   30    5  1.073e-04  1.058e-03  0.3211 n y y y y y n n 
   11   40    5  1.096e-04  1.093e-03  0.3211 n y y y y y n n 
   12   50    6  8.864e-05  8.858e-04  0.3211 y y y y y y n n 
   13   20    6  4.727e-05  4.724e-04  0.3211 y y y y y y n n Subspace collapsed.
   14   30    6  3.336e-05  3.333e-04  0.3211 y y y y y y n n 
   15   40    7  1.972e-05  1.969e-04  0.3211 y y y y y y n y 
   16   50    7  1.951e-05  1.951e-04  0.3211 y y y y y y n y 
   17   20    8  1.220e-05  1.219e-04  0.3211 y y y y y y n y Subspace collapsed.
   18   30    7  1.992e-05  1.992e-04  0.3211 y y y y y y n y 
   19   40    9  1.793e-05  1.793e-04  0.3211 y y y y y y y y 
   20   50    9  1.812e-05  1.812e-04  0.3211 y y y y y y y y 
   21   20    9  8.613e-06  8.613e-05  0.3211 y y y y y y y y Subspace collapsed.
   22   30    9  6.889e-06  6.889e-05  0.3211 y y y y y y y y 
   23   32    9  6.889e-06  6.889e-05  0.3211 y y y y y y y y 
   24   34    9  4.449e-06  4.449e-05  0.3211 y y y y y y y y 
   25   42    9  3.618e-06  3.618e-05  0.3211 y y y y y y y y 
   26   50    9  4.293e-06  4.293e-05  0.3211 y y y y y y y y 
   27   16    9  2.681e-06  2.681e-05  0.3211 y y y y y y y y Subspace collapsed.
   28   21    9  2.962e-06  2.962e-05  0.3211 y y y y y y y y 
   29   26    9  3.356e-06  3.356e-05  0.3211 y y y y y y y y 
   30   30    9  3.491e-06  3.491e-05  0.3211 y y y y y y y y 
   31   34    9  2.557e-06  2.557e-05  0.3211 y y y y y y y y 
   32   38    9  1.423e-06  1.423e-05  0.3211 y y y y y y y y 
   33   42    9  7.720e-07  7.720e-06  0.3211 y y y y y y y y 
   34   46    9  3.069e-07  3.069e-06  0.3211 y y y y y y y y 
   35   50    9  2.390e-07  2.390e-06  0.3211 y y y y y y y y 
   36   14   10  9.856e-08  9.856e-07  0.3211 y y y y y y y y Converged.
--------------------------------------------------------------------------------
  Davidson Summary: 
 ------------------------------------------------------------
  State  0: excitation energy =   0.3211 a.u.   (converged)
  State  1: excitation energy =   0.3330 a.u.   (converged)
  State  2: excitation energy =   0.3372 a.u.   (converged)
  State  3: excitation energy =   0.3617 a.u.   (converged)
  State  4: excitation energy =   0.3754 a.u.   (converged)
  State  5: excitation energy =   0.3873 a.u.   (converged)
  State  6: excitation energy =   0.4251 a.u.   (converged)
  State  7: excitation energy =   0.4473 a.u.   (converged)
  State  8: excitation energy =   0.4565 a.u.   (converged)
  State  9: excitation energy =   0.4652 a.u.   (converged)
 ------------------------------------------------------------

  Singlet states of irrep A ...  CPU 97.11 s  wall 28.39 s
  TDMs ...  CPU 0.59 s  wall 0.25 s
  SDMs ...  CPU 3.32 s  wall 0.73 s
  Starting TPA DIIS iterations ... 
------------------------------------ 
   It     Res. Norm  Remark
------------------------------------
                       Guess.
    1     4.408e+00  
    2     5.844e+00  
    3     1.076e+00  
    4     2.554e-01  
    5     6.565e-02  
    6     2.654e-02  
    7     8.211e-03  
    8     1.419e-03  
    9     5.255e-04  
   10     8.895e-05  
   11     2.763e-05  
   12     4.305e-06  
   13     1.385e-06  
   14     4.231e-07  Converged.
   ... Converged in 14 steps (norm: 4.23063e-07)
------------------------------------
  Starting TPA DIIS iterations ... 
------------------------------------ 
   It     Res. Norm  Remark
------------------------------------
                       Guess.
    1     4.184e+00  
    2     5.541e+00  
    3     1.030e+00  
    4     2.558e-01  
    5     6.544e-02  
    6     2.678e-02  
    7     8.111e-03  
    8     1.456e-03  
    9     5.375e-04  
   10     8.968e-05  
   11     2.836e-05  
   12     4.324e-06  
   13     1.413e-06  
   14     4.200e-07  Converged.
   ... Converged in 14 steps (norm: 4.20023e-07)
------------------------------------
  Starting TPA DIIS iterations ... 
------------------------------------ 
   It     Res. Norm  Remark
------------------------------------
                       Guess.
    1     6.879e-01  
    2     4.833e-01  
    3     1.707e-01  
    4     6.018e-02  
    5     1.829e-02  
    6     6.619e-03  
    7     1.034e-03  
    8     4.460e-04  
    9     1.244e-04  
   10     2.872e-05  
   11     5.958e-06  
   12     1.723e-06  
   13     1.149e-06  
   14     4.576e-07  Converged.
   ... Converged in 14 steps (norm: 4.57625e-07)
------------------------------------
  Starting TPA DIIS iterations ... 
------------------------------------ 
   It     Res. Norm  Remark
------------------------------------
                       Guess.
    1     4.703e+00  
    2     6.373e+00  
    3     1.159e+00  
    4     2.845e-01  
    5     7.418e-02  
    6     3.025e-02  
    7     9.339e-03  
    8     1.611e-03  
    9     6.012e-04  
   10     1.024e-04  
   11     3.213e-05  
   12     5.048e-06  
   13     1.637e-06  
   14     4.997e-07  Converged.
   ... Converged in 14 steps (norm: 4.99692e-07)
------------------------------------
  Starting TPA DIIS iterations ... 
------------------------------------ 
   It     Res. Norm  Remark
------------------------------------
                       Guess.
    1     4.463e+00  
    2     6.043e+00  
    3     1.109e+00  
    4     2.848e-01  
    5     7.395e-02  
    6     3.054e-02  
    7     9.229e-03  
    8     1.655e-03  
    9     6.151e-04  
   10     1.032e-04  
   11     3.296e-05  
   12     5.067e-06  
   13     1.668e-06  
   14     4.957e-07  Converged.
   ... Converged in 14 steps (norm: 4.95712e-07)
------------------------------------
  Starting TPA DIIS iterations ... 
------------------------------------ 
   It     Res. Norm  Remark
------------------------------------
                       Guess.
    1     7.002e-01  
    2     5.012e-01  
    3     1.808e-01  
    4     6.830e-02  
    5     1.973e-02  
    6     7.252e-03  
    7     1.171e-03  
    8     5.275e-04  
    9     1.509e-04  
   10     3.277e-05  
   11     6.840e-06  
   12     2.046e-06  
   13     1.453e-06  
   14     5.785e-07  Converged.
   ... Converged in 14 steps (norm: 5.78531e-07)
------------------------------------
  Starting TPA DIIS iterations ... 
------------------------------------ 
   It     Res. Norm  Remark
------------------------------------
                       Guess.
    1     4.813e+00  
    2     6.573e+00  
    3     1.190e+00  
    4     2.957e-01  
    5     7.745e-02  
    6     3.168e-02  
    7     9.773e-03  
    8     1.685e-03  
    9     6.304e-04  
   10     1.075e-04  
   11     3.388e-05  
   12     5.339e-06  
   13     1.737e-06  
   14     5.298e-07  Converged.
   ... Converged in 14 steps (norm: 5.298e-07)
------------------------------------
  Starting TPA DIIS iterations ... 
------------------------------------ 
   It     Res. Norm  Remark
------------------------------------
                       Guess.
    1     4.567e+00  
    2     6.233e+00  
    3     1.138e+00  
    4     2.959e-01  
    5     7.722e-02  
    6     3.199e-02  
    7     9.659e-03  
    8     1.731e-03  
    9     6.451e-04  
   10     1.085e-04  
   11     3.475e-05  
   12     5.358e-06  
   13     1.769e-06  
   14     5.255e-07  Converged.
   ... Converged in 14 steps (norm: 5.25475e-07)
------------------------------------
  Starting TPA DIIS iterations ... 
------------------------------------ 
   It     Res. Norm  Remark
------------------------------------
                       Guess.
    1     7.046e-01  
    2     5.077e-01  
    3     1.845e-01  
    4     7.147e-02  
    5     2.026e-02  
    6     7.494e-03  
    7     1.225e-03  
    8     5.598e-04  
    9     1.614e-04  
   10     3.402e-05  
   11     7.180e-06  
   12     2.174e-06  
   13     1.578e-06  
   14     6.291e-07  Converged.
   ... Converged in 14 steps (norm: 6.29104e-07)
------------------------------------
  Starting TPA DIIS iterations ... 
------------------------------------ 
   It     Res. Norm  Remark
------------------------------------
                       Guess.
    1     5.561e+00  
    2     7.968e+00  
    3     1.399e+00  
    4     3.762e-01  
    5     1.010e-01  
    6     4.205e-02  
    7     1.290e-02  
    8     2.212e-03  
    9     8.424e-04  
   10     1.452e-04  
   11     4.689e-05  
   12     7.495e-06  
   13     2.492e-06  
   14     7.563e-07  Converged.
   ... Converged in 14 steps (norm: 7.5632e-07)
------------------------------------
  Starting TPA DIIS iterations ... 
------------------------------------ 
   It     Res. Norm  Remark
------------------------------------
                       Guess.
    1     5.275e+00  
    2     7.554e+00  
    3     1.338e+00  
    4     3.758e-01  
    5     1.007e-01  
    6     4.256e-02  
    7     1.275e-02  
    8     2.279e-03  
    9     8.626e-04  
   10     1.465e-04  
   11     4.801e-05  
   12     7.513e-06  
   13     2.531e-06  
   14     7.502e-07  Converged.
   ... Converged in 14 steps (norm: 7.50182e-07)
------------------------------------
  Starting TPA DIIS iterations ... 
------------------------------------ 
   It     Res. Norm  Remark
------------------------------------
                       Guess.
    1     7.317e-01  
    2     5.495e-01  
    3     2.092e-01  
    4     9.500e-02  
    5     2.384e-02  
    6     9.248e-03  
    7     1.627e-03  
    8     7.976e-04  
    9     2.372e-04  
   10     3.890e-05  
   11     9.669e-06  
   12     3.161e-06  
   13     2.613e-06  
   14     1.055e-06  
   15     4.059e-07  Converged.
   ... Converged in 15 steps (norm: 4.05864e-07)
------------------------------------
  Starting TPA DIIS iterations ... 
------------------------------------ 
   It     Res. Norm  Remark
------------------------------------
                       Guess.
    1     6.067e+00  
    2     8.946e+00  
    3     1.540e+00  
    4     4.348e-01  
    5     1.181e-01  
    6     4.970e-02  
    7     1.517e-02  
    8     2.595e-03  
    9     9.985e-04  
   10     1.730e-04  
   11     5.670e-05  
   12     9.118e-06  
   13     3.077e-06  
   14     9.322e-07  Converged.
   ... Converged in 14 steps (norm: 9.32188e-07)
------------------------------------
  Starting TPA DIIS iterations ... 
------------------------------------ 
   It     Res. Norm  Remark
------------------------------------
                       Guess.
    1     5.754e+00  
    2     8.481e+00  
    3     1.472e+00  
    4     4.339e-01  
    5     1.179e-01  
    6     5.036e-02  
    7     1.501e-02  
    8     2.677e-03  
    9     1.023e-03  
   10     1.746e-04  
   11     5.797e-05  
   12     9.134e-06  
   13     3.117e-06  
   14     9.259e-07  Converged.
   ... Converged in 14 steps (norm: 9.25901e-07)
------------------------------------
  Starting TPA DIIS iterations ... 
------------------------------------ 
   It     Res. Norm  Remark
------------------------------------
                       Guess.
    1     7.479e-01  
    2     5.759e-01  
    3     2.254e-01  
    4     1.128e-01  
    5     2.630e-02  
    6     1.054e-02  
    7     1.936e-03  
    8     9.657e-04  
    9     2.900e-04  
   10     3.989e-05  
   11     1.157e-05  
   12     3.940e-06  
   13     3.497e-06  
   14     1.429e-06  
   15     5.392e-07  Converged.
   ... Converged in 15 steps (norm: 5.39179e-07)
------------------------------------
  Starting TPA DIIS iterations ... 
------------------------------------ 
   It     Res. Norm  Remark
------------------------------------
                       Guess.
    1     6.567e+00  
    2     9.934e+00  
    3     1.678e+00  
    4     4.954e-01  
    5     1.359e-01  
    6     5.769e-02  
    7     1.752e-02  
    8     2.989e-03  
    9     1.161e-03  
   10     2.020e-04  
   11     6.703e-05  
   12     1.083e-05  
   13     3.707e-06  
   14     1.124e-06  
   15     4.211e-07  Converged.
   ... Converged in 15 steps (norm: 4.21147e-07)
------------------------------------
  Starting TPA DIIS iterations ... 
------------------------------------ 
   It     Res. Norm  Remark
------------------------------------
                       Guess.
    1     6.226e+00  
    2     9.417e+00  
    3     1.603e+00  
    4     4.940e-01  
    5     1.356e-01  
    6     5.852e-02  
    7     1.735e-02  
    8     3.087e-03  
    9     1.190e-03  
   10     2.038e-04  
   11     6.844e-05  
   12     1.084e-05  
   13     3.742e-06  
   14     1.119e-06  
   15     3.492e-07  Converged.
   ... Converged in 15 steps (norm: 3.49247e-07)
------------------------------------
  Starting TPA DIIS iterations ... 
------------------------------------ 
   It     Res. Norm  Remark
------------------------------------
                       Guess.
    1     7.624e-01  
    2     6.007e-01  
    3     2.409e-01  
    4     1.315e-01  
    5     2.878e-02  
    6     1.187e-02  
    7     2.268e-03  
    8     1.126e-03  
    9     3.411e-04  
   10     4.050e-05  
   11     1.364e-05  
   12     4.792e-06  
   13     4.509e-06  
   14     1.866e-06  
   15     7.073e-07  Converged.
   ... Converged in 15 steps (norm: 7.07332e-07)
------------------------------------
  Starting TPA DIIS iterations ... 
------------------------------------ 
   It     Res. Norm  Remark
------------------------------------
                       Guess.
    1     8.699e+00  
    2     1.440e+01  
    3     2.257e+00  
    4     7.823e-01  
    5     2.199e-01  
    6     9.627e-02  
    7     2.867e-02  
    8     4.846e-03  
    9     1.945e-03  
   10     3.410e-04  
   11     1.167e-04  
   12     1.911e-05  
   13     6.841e-06  
   14     2.178e-06  
   15     8.951e-07  Converged.
   ... Converged in 15 steps (norm: 8.95092e-07)
------------------------------------
  Starting TPA DIIS iterations ... 
------------------------------------ 
   It     Res. Norm  Remark
------------------------------------
                       Guess.
    1     8.245e+00  
    2     1.365e+01  
    3     2.155e+00  
    4     7.773e-01  
    5     2.197e-01  
    6     9.797e-02  
    7     2.841e-02  
    8     5.021e-03  
    9     1.992e-03  
   10     3.440e-04  
   11     1.185e-04  
   12     1.916e-05  
   13     6.777e-06  
   14     2.202e-06  
   15     6.514e-07  Converged.
   ... Converged in 15 steps (norm: 6.51405e-07)
------------------------------------
  Starting TPA DIIS iterations ... 
------------------------------------ 
   It     Res. Norm  Remark
------------------------------------
                       Guess.
    1     8.129e-01  
    2     6.955e-01  
    3     3.033e-01  
    4     2.216e-01  
    5     4.024e-02  
    6     1.816e-02  
    7     3.953e-03  
    8     1.639e-03  
    9     5.413e-04  
   10     5.291e-05  
   11     2.472e-05  
   12     9.321e-06  
   13     1.029e-05  
   14     4.503e-06  
   15     2.045e-06  
   16     9.745e-07  Converged.
   ... Converged in 16 steps (norm: 9.74507e-07)
------------------------------------
  Starting TPA DIIS iterations ... 
------------------------------------ 
   It     Res. Norm  Remark
------------------------------------
                       Guess.
    1     1.052e+01  
    2     1.849e+01  
    3     2.738e+00  
    4     1.054e+00  
    5     3.004e-01  
    6     1.341e-01  
    7     3.934e-02  
    8     6.609e-03  
    9     2.709e-03  
   10     4.753e-04  
   11     1.631e-04  
   12     2.717e-05  
   13     9.908e-06  
   14     3.411e-06  
   15     1.494e-06  
   16     5.424e-07  Converged.
   ... Converged in 16 steps (norm: 5.42439e-07)
------------------------------------
  Starting TPA DIIS iterations ... 
------------------------------------ 
   It     Res. Norm  Remark
------------------------------------
                       Guess.
    1     9.968e+00  
    2     1.753e+01  
    3     2.612e+00  
    4     1.045e+00  
    5     3.002e-01  
    6     1.367e-01  
    7     3.901e-02  
    8     6.861e-03  
    9     2.774e-03  
   10     4.793e-04  
   11     1.651e-04  
   12     2.741e-05  
   13     9.643e-06  
   14     3.486e-06  
   15     1.005e-06  
   16     5.625e-07  Converged.
   ... Converged in 16 steps (norm: 5.62544e-07)
------------------------------------
  Starting TPA DIIS iterations ... 
------------------------------------ 
   It     Res. Norm  Remark
------------------------------------
                       Guess.
    1     8.463e-01  
    2     7.663e-01  
    3     3.525e-01  
    4     3.034e-01  
    5     5.091e-02  
    6     2.382e-02  
    7     5.626e-03  
    8     1.845e-03  
    9     6.937e-04  
   10     7.483e-05  
   11     3.683e-05  
   12     1.434e-05  
   13     1.690e-05  
   14     7.698e-06  
   15     4.000e-06  
   16     1.773e-06  
   17     6.321e-07  Converged.
   ... Converged in 17 steps (norm: 6.32099e-07)
------------------------------------
  Starting TPA DIIS iterations ... 
------------------------------------ 
   It     Res. Norm  Remark
------------------------------------
                       Guess.
    1     1.146e+01  
    2     2.070e+01  
    3     2.982e+00  
    4     1.202e+00  
    5     3.446e-01  
    6     1.551e-01  
    7     4.520e-02  
    8     7.575e-03  
    9     3.133e-03  
   10     5.493e-04  
   11     1.879e-04  
   12     3.169e-05  
   13     1.165e-05  
   14     4.174e-06  
   15     1.905e-06  
   16     7.130e-07  Converged.
   ... Converged in 16 steps (norm: 7.13038e-07)
------------------------------------
  Starting TPA DIIS iterations ... 
------------------------------------ 
   It     Res. Norm  Remark
------------------------------------
                       Guess.
    1     1.086e+01  
    2     1.962e+01  
    3     2.845e+00  
    4     1.191e+00  
    5     3.445e-01  
    6     1.583e-01  
    7     4.483e-02  
    8     7.869e-03  
    9     3.208e-03  
   10     5.538e-04  
   11     1.900e-04  
   12     3.212e-05  
   13     1.124e-05  
   14     4.276e-06  
   15     1.264e-06  
   16     7.522e-07  Converged.
   ... Converged in 16 steps (norm: 7.52184e-07)
------------------------------------
  Starting TPA DIIS iterations ... 
------------------------------------ 
   It     Res. Norm  Remark
------------------------------------
                       Guess.
    1     8.611e-01  
    2     8.003e-01  
    3     3.766e-01  
    4     3.445e-01  
    5     5.664e-02  
    6     2.670e-02  
    7     6.541e-03  
    8     1.902e-03  
    9     7.685e-04  
   10     8.770e-05  
   11     4.397e-05  
   12     1.744e-05  
   13     2.098e-05  
   14     9.677e-06  
   15     5.263e-06  
   16     2.277e-06  
   17     8.738e-07  Converged.
   ... Converged in 17 steps (norm: 8.73835e-07)
------------------------------------
  Starting TPA DIIS iterations ... 
------------------------------------ 
   It     Res. Norm  Remark
------------------------------------
                       Guess.
    1     1.247e+01  
    2     2.315e+01  
    3     3.243e+00  
    4     1.367e+00  
    5     3.942e-01  
    6     1.790e-01  
    7     5.178e-02  
    8     8.656e-03  
    9     3.613e-03  
   10     6.324e-04  
   11     2.153e-04  
   12     3.685e-05  
   13     1.370e-05  
   14     5.099e-06  
   15     2.446e-06  
   16     9.400e-07  Converged.
   ... Converged in 16 steps (norm: 9.40035e-07)
------------------------------------
  Starting TPA DIIS iterations ... 
------------------------------------ 
   It     Res. Norm  Remark
------------------------------------
                       Guess.
    1     1.182e+01  
    2     2.194e+01  
    3     3.093e+00  
    4     1.352e+00  
    5     3.941e-01  
    6     1.828e-01  
    7     5.136e-02  
    8     8.999e-03  
    9     3.698e-03  
   10     6.375e-04  
   11     2.175e-04  
   12     3.759e-05  
   13     1.310e-05  
   14     5.226e-06  
   15     1.625e-06  
   16     1.001e-06  
   17     5.725e-07  Converged.
   ... Converged in 17 steps (norm: 5.72469e-07)
------------------------------------
  Starting TPA DIIS iterations ... 
------------------------------------ 
   It     Res. Norm  Remark
------------------------------------
                       Guess.
    1     8.758e-01  
    2     8.354e-01  
    3     4.020e-01  
    4     3.869e-01  
    5     6.296e-02  
    6     2.970e-02  
    7     7.553e-03  
    8     1.948e-03  
    9     8.472e-04  
   10     1.021e-04  
   11     5.234e-05  
   12     2.126e-05  
   13     2.607e-05  
   14     1.207e-05  
   15     6.811e-06  
   16     2.879e-06  
   17     1.177e-06  
   18     4.423e-07  Converged.
   ... Converged in 18 steps (norm: 4.42303e-07)
------------------------------------
  Two-photon absorbption ...  CPU 89.00 s  wall 19.77 s
  Transition density matrix of state singlet_A_1 printed to ASCII file 'State_singlet_A_1_Transition.txt'
  Transition density matrix of state singlet_A_2 printed to ASCII file 'State_singlet_A_2_Transition.txt'
  Transition density matrix of state singlet_A_3 printed to ASCII file 'State_singlet_A_3_Transition.txt'
  Transition density matrix of state singlet_A_4 printed to ASCII file 'State_singlet_A_4_Transition.txt'
  Transition density matrix of state singlet_A_5 printed to ASCII file 'State_singlet_A_5_Transition.txt'
  Transition density matrix of state singlet_A_6 printed to ASCII file 'State_singlet_A_6_Transition.txt'
  Transition density matrix of state singlet_A_7 printed to ASCII file 'State_singlet_A_7_Transition.txt'
  Transition density matrix of state singlet_A_8 printed to ASCII file 'State_singlet_A_8_Transition.txt'
  Transition density matrix of state singlet_A_9 printed to ASCII file 'State_singlet_A_9_Transition.txt'
  Transition density matrix of state singlet_A_10 printed to ASCII file 'State_singlet_A_10_Transition.txt'
  Transition properties ...  CPU 0.13 s  wall 0.25 s
  Difference density matrix of state singlet_A_1 printed to ASCII file 'State_singlet_A_1_Difference.txt'
  Total density matrix of state singlet_A_1 printed to ASCII file 'State_singlet_A_1_Total.txt'
  Difference density matrix of state singlet_A_2 printed to ASCII file 'State_singlet_A_2_Difference.txt'
  Total density matrix of state singlet_A_2 printed to ASCII file 'State_singlet_A_2_Total.txt'
  Difference density matrix of state singlet_A_3 printed to ASCII file 'State_singlet_A_3_Difference.txt'
  Total density matrix of state singlet_A_3 printed to ASCII file 'State_singlet_A_3_Total.txt'
  Difference density matrix of state singlet_A_4 printed to ASCII file 'State_singlet_A_4_Difference.txt'
  Total density matrix of state singlet_A_4 printed to ASCII file 'State_singlet_A_4_Total.txt'
  Difference density matrix of state singlet_A_5 printed to ASCII file 'State_singlet_A_5_Difference.txt'
  Total density matrix of state singlet_A_5 printed to ASCII file 'State_singlet_A_5_Total.txt'
  Difference density matrix of state singlet_A_6 printed to ASCII file 'State_singlet_A_6_Difference.txt'
  Total density matrix of state singlet_A_6 printed to ASCII file 'State_singlet_A_6_Total.txt'
  Difference density matrix of state singlet_A_7 printed to ASCII file 'State_singlet_A_7_Difference.txt'
  Total density matrix of state singlet_A_7 printed to ASCII file 'State_singlet_A_7_Total.txt'
  Difference density matrix of state singlet_A_8 printed to ASCII file 'State_singlet_A_8_Difference.txt'
  Total density matrix of state singlet_A_8 printed to ASCII file 'State_singlet_A_8_Total.txt'
  Difference density matrix of state singlet_A_9 printed to ASCII file 'State_singlet_A_9_Difference.txt'
  Total density matrix of state singlet_A_9 printed to ASCII file 'State_singlet_A_9_Total.txt'
  Difference density matrix of state singlet_A_10 printed to ASCII file 'State_singlet_A_10_Difference.txt'
  Total density matrix of state singlet_A_10 printed to ASCII file 'State_singlet_A_10_Total.txt'
  Properties ...  CPU 0.25 s  wall 0.56 s
  ISR TDMS ...  CPU 14.99 s  wall 3.87 s
  ISR transition properties ...  CPU 0.15 s  wall 0.07 s
  Sum-over-states TPA ...  CPU 0.00 s  wall 0.00 s

--------------------------------------------------------------------------------
                   State-averaged natural transition orbitals
--------------------------------------------------------------------------------
--------------------------------------------------------------------------------
  SA-NTO decomposition ...  CPU 0.01 s  wall 0.02 s

--------------------------------------------------------------------------------
                             Excited State Summary
--------------------------------------------------------------------------------
--------------------------------------------------------------------------------

  Excited state 1 (singlet, A)                                     [converged]
  ----------------------------------------------------------------------------
  Term symbol:  2 (1) A                                     R^2 =  4.96747e-13

  Total energy:                                            -77.9984516900 a.u.
  Excitation energy:                                               8.736911 eV

  Osc. strength:                                                      0.445546
  Trans. dip. moment [a.u.]:           [   1.045017,   -0.994662,   -0.009339]
  <i|r^2|0> [a.u.]:                    [   6.167062,   -0.249062,    0.000037]
  Two-photon absorption cross-section (SoS) [a.u.]:                   0.000864
  Two-photon absorption matrix (SoS) [a.u.]:
                                       |    0.009844    0.004664    0.000436 |
                                       |    0.004664    0.002572    0.000708 |
                                       |    0.000436    0.000708   -0.000853 |
  Two-photon absorption cross-section [a.u.]:                         0.000447
  Two-photon absorption matrix [a.u.]:
                                       |    0.001299    0.000886    0.000443 |
                                       |    0.000886   -0.007631    0.001658 |
                                       |    0.000443    0.001658   -0.002428 |

  Dip. moment [a.u.]:                  [   0.000070,    0.000448,    0.000665]
  Total dipole [Debye]:                                               0.002045
  <r^2> [a.u.]:                        [ 176.128016,   35.647446,   11.863393]
  Total <r^2> [a.u.]:                                               223.638855

  V1^2 = 0.9715, V2^2 = 0.0285

  Important amplitudes:
      occ i     occ j     vir a      vir b          v   
    -----------------------------------------------------
     8 (A) A              9 (A) A                 0.6811
     6 (A) A             14 (A) A                -0.0623
     4 (A) A             10 (A) A                 0.0605
     7 (A) A             16 (A) A                 0.0569
     5 (A) A             13 (A) A                -0.0512
     6 (A) A             23 (A) A                -0.0486
     8 (A) A             20 (A) A                 0.0350
     6 (A) A             19 (A) A                 0.0309
     3 (A) A             12 (A) A                -0.0281
     5 (A) A             22 (A) A                 0.0214
     7 (A) A             11 (A) A                 0.0211
     4 (A) A             24 (A) A                 0.0187
     3 (A) A             26 (A) A                -0.0185
     8 (A) A   8 (A) B   17 (A) A   20 (A) B     -0.0184
     8 (A) A   8 (A) B    9 (A) A   28 (A) B     -0.0168
     6 (A) A             26 (A) A                -0.0163
     7 (A) A             21 (A) A                 0.0148
     3 (A) A             14 (A) A                -0.0139
     6 (A) A             12 (A) A                 0.0131
     3 (A) A   4 (A) B    9 (A) A    9 (A) B     -0.0129
     3 (A) A             19 (A) A                 0.0119
     8 (A) A   8 (A) B   18 (A) A   19 (A) B     -0.0113
     7 (A) A             32 (A) A                 0.0096
     7 (A) A             36 (A) A                 0.0086
     3 (A) A             23 (A) A                -0.0080
     8 (A) A   8 (A) B   25 (A) A   29 (A) B      0.0076
     6 (A) A             35 (A) A                -0.0072
     6 (A) A             40 (A) A                -0.0068
     3 (A) A   6 (A) B    9 (A) A   28 (A) B     -0.0065
     6 (A) A   8 (A) A   19 (A) A   28 (A) A      0.0061
     5 (A) A   7 (A) B    9 (A) A    9 (A) B     -0.0060
     5 (A) A   8 (A) B   11 (A) A   20 (A) B     -0.0059
     7 (A) A   8 (A) B   13 (A) A   20 (A) B      0.0059
     5 (A) A   8 (A) B   16 (A) A    9 (A) B     -0.0059
     5 (A) A   8 (A) B   11 (A) A    9 (A) B      0.0058
     3 (A) A   5 (A) B    9 (A) A   25 (A) B     -0.0058
     3 (A) A             40 (A) A                -0.0057
     7 (A) A   8 (A) B   22 (A) A   20 (A) B     -0.0057
     6 (A) A   8 (A) A    9 (A) A   18 (A) A     -0.0057
     8 (A) A   8 (A) B   19 (A) A   30 (A) B     -0.0056
    -----------------------------------------------------

  Density matrix analysis:
  ------------------------
  NOs
    Occupation of frontier NOs:
       0.9496   1.0217
    Number of electrons: 16.000000
    Number of unpaired electrons: n_u =  2.31310, n_u,nl =  2.03258
    NO participation ratio (PR_NO):  2.863026
  
  
  Mulliken Population Analysis
  Atom      Charge (e)              h+              e-           Del q
  --------------------------------------------------------------------
   1 H        0.057301        0.020235       -0.012562        0.007672
   2 C       -0.113476        0.490893       -0.506010       -0.015117
   3 H        0.058006        0.020196       -0.012600        0.007596
   4 C       -0.117777        0.490741       -0.506321       -0.015581
   5 H        0.057699        0.020204       -0.012562        0.007643
   6 H        0.058247        0.020296       -0.012511        0.007786
  --------------------------------------------------------------------
  Sum:       -0.000000        1.062566       -1.062566        0.000000
  
  Multipole moment analysis of the density matrix
    Molecular charge:                      -0.000000
    Number of electrons:                   16.000000
      Center of electronic charge [Ang]: [ -1.560891,  -0.065617,   0.001956]
    Total nuclear charge:                  16.000000
      Center of nuclear charge [Ang]:    [ -1.560889,  -0.065602,   0.001978]
    Dipole moment [D]:                     0.002045
      Cartesian components [D]:          [  0.000178,   0.001138,   0.001690]
    RMS size of the density [Ang]:         1.213832
      Cartesian components [Ang]:        [  0.803849,   0.787139,   0.455661]
  
  Exciton analysis of the difference density matrix
    <r_h> [Ang]:                  [ -1.560343,  -0.065776,   0.001715]
    <r_e> [Ang]:                  [ -1.560360,  -0.065665,   0.001661]
    |<r_e - r_h>| [Ang]:            0.000125
    Hole size [Ang]:                1.285296
      Cartesian components [Ang]: [  0.728160,   0.712661,   0.783506]
    Electron size [Ang]:            1.463114
      Cartesian components [Ang]: [  0.853869,   0.830507,   0.849629]

  Transition density matrix analysis:
  -----------------------------------
  
  CT numbers (Mulliken)
    omega =     0.9536
    <Phe> =    -0.1607
  
  Exciton analysis of the transition density matrix
    Trans. dipole moment [D]:             1.833540
      Cartesian components [D]:         [  1.328084,  -1.264090,  -0.011868]
    <r_h> [Ang]:                        [ -1.560054,  -0.065935,   0.001769]
    <r_e> [Ang]:                        [ -1.560407,  -0.065653,   0.001619]
    |<r_e - r_h>| [Ang]:                  0.000476
    Hole size [Ang]:                      1.214144
      Cartesian components [Ang]:       [  0.649523,   0.636455,   0.804482]
    Electron size [Ang]:                  1.485958
      Cartesian components [Ang]:       [  0.864316,   0.839398,   0.869736]
    RMS electron-hole separation [Ang]:   1.936705
      Cartesian components [Ang]:       [  1.106725,   1.075143,   1.170493]
    Covariance(r_h, r_e) [Ang^2]:        -0.034304
    Correlation coefficient:             -0.019014
    Center-of-mass size [Ang]:            0.950475
      Cartesian components [Ang]:       [  0.527495,   0.515605,   0.599419]

  Decomposition into state-averaged NTOs
    H- 0 -> L+ 0: -0.6699 ( 89.8%)
    H- 2 -> L+ 5: -0.0837 (  1.4%)
                   omega =  95.4%
  ----------------------------------------------------------------------------


  Excited state 2 (singlet, A)                                     [converged]
  ----------------------------------------------------------------------------
  Term symbol:  3 (1) A                                     R^2 =  2.90133e-13

  Total energy:                                            -77.9865182886 a.u.
  Excitation energy:                                               9.061635 eV

  Osc. strength:                                                      0.000020
  Trans. dip. moment [a.u.]:           [   0.001608,   -0.002954,    0.008817]
  <i|r^2|0> [a.u.]:                    [  -0.054348,   -0.087474,    0.150520]
  Two-photon absorption cross-section (SoS) [a.u.]:                   4.904408
  Two-photon absorption matrix (SoS) [a.u.]:
                                       |   -0.051496   -0.058619    0.529512 |
                                       |   -0.058619   -0.066458    0.564569 |
                                       |    0.529512    0.564569    0.117982 |
  Two-photon absorption cross-section [a.u.]:                         0.073476
  Two-photon absorption matrix [a.u.]:
                                       |    0.002126    0.006699   -0.048926 |
                                       |    0.006699    0.012171   -0.081028 |
                                       |   -0.048926   -0.081028   -0.014422 |

  Dip. moment [a.u.]:                  [  -0.002493,    0.021402,    0.002332]
  Total dipole [Debye]:                                               0.055087
  <r^2> [a.u.]:                        [ 174.546393,   33.967055,   13.168381]
  Total <r^2> [a.u.]:                                               221.681829

  V1^2 = 0.9542, V2^2 = 0.0458

  Important amplitudes:
      occ i     occ j     vir a      vir b          v   
    -----------------------------------------------------
     7 (A) A              9 (A) A                 0.6692
     8 (A) A             11 (A) A                 0.1478
     7 (A) A             20 (A) A                 0.0759
     5 (A) A   8 (A) B    9 (A) A    9 (A) B     -0.0316
     8 (A) A             16 (A) A                -0.0272
     8 (A) A             21 (A) A                 0.0175
     8 (A) A             10 (A) A                -0.0168
     5 (A) A             28 (A) A                -0.0151
     4 (A) A   7 (A) B    9 (A) A   19 (A) B     -0.0135
     5 (A) A   7 (A) B    9 (A) A   16 (A) B      0.0134
     7 (A) A   8 (A) B   20 (A) A   17 (A) B     -0.0105
     7 (A) A   8 (A) A    9 (A) A   28 (A) A      0.0098
     5 (A) A   8 (A) B    9 (A) A   20 (A) B     -0.0096
     4 (A) A   6 (A) B    9 (A) A   16 (A) B     -0.0091
     5 (A) A   6 (A) A    9 (A) A   23 (A) A     -0.0091
     5 (A) A   6 (A) A    9 (A) A   14 (A) A     -0.0089
     5 (A) A   6 (A) B    9 (A) A   19 (A) B      0.0087
     8 (A) A   7 (A) B    9 (A) A   28 (A) B     -0.0085
     4 (A) A   5 (A) A    9 (A) A   10 (A) A     -0.0084
     6 (A) A   7 (A) B    9 (A) A   18 (A) B     -0.0083
     5 (A) A   6 (A) B    9 (A) A   23 (A) B     -0.0080
     3 (A) A   7 (A) B    9 (A) A   18 (A) B      0.0080
     5 (A) A   7 (A) A    9 (A) A   16 (A) A      0.0079
     4 (A) A   8 (A) B    9 (A) A   25 (A) B     -0.0077
     7 (A) A   8 (A) B   17 (A) A   20 (A) B     -0.0074
     4 (A) A   7 (A) B   19 (A) A    9 (A) B     -0.0074
     5 (A) A   5 (A) B    9 (A) A   13 (A) B     -0.0072
     7 (A) A   8 (A) B   19 (A) A   18 (A) B     -0.0072
     5 (A) A   8 (A) A    9 (A) A   20 (A) A     -0.0069
     4 (A) A   5 (A) B    9 (A) A   18 (A) B      0.0068
     7 (A) A   7 (A) B   20 (A) A   22 (A) B     -0.0065
     7 (A) A   8 (A) B   17 (A) A    9 (A) B     -0.0065
     5 (A) A   6 (A) B    9 (A) A   14 (A) B     -0.0063
     4 (A) A   7 (A) A    9 (A) A   19 (A) A     -0.0061
     4 (A) A   5 (A) B   10 (A) A    9 (A) B      0.0061
     5 (A) A   7 (A) B   11 (A) A   20 (A) B     -0.0060
     4 (A) A   7 (A) B    9 (A) A   14 (A) B     -0.0060
     4 (A) A   8 (A) A    9 (A) A   25 (A) A     -0.0057
     6 (A) A   7 (A) A   19 (A) A   28 (A) A      0.0057
     5 (A) A             38 (A) A                -0.0055
    -----------------------------------------------------

  Density matrix analysis:
  ------------------------
  NOs
    Occupation of frontier NOs:
       0.9578   1.0540
    Number of electrons: 16.000000
    Number of unpaired electrons: n_u =  2.35505, n_u,nl =  2.06284
    NO participation ratio (PR_NO):  3.028004
  
  
  Mulliken Population Analysis
  Atom      Charge (e)              h+              e-           Del q
  --------------------------------------------------------------------
   1 H        0.147829        0.119584       -0.021383        0.098200
   2 C       -0.299593        0.269811       -0.471045       -0.201234
   3 H        0.150266        0.127654       -0.027798        0.099856
   4 C       -0.302864        0.274117       -0.474784       -0.200667
   5 H        0.156750        0.128524       -0.021829        0.106694
   6 H        0.147612        0.124098       -0.026947        0.097150
  --------------------------------------------------------------------
  Sum:       -0.000000        1.043787       -1.043787       -0.000000
  
  Multipole moment analysis of the density matrix
    Molecular charge:                      -0.000000
    Number of electrons:                   16.000000
      Center of electronic charge [Ang]: [ -1.560806,  -0.066310,   0.001901]
    Total nuclear charge:                  16.000000
      Center of nuclear charge [Ang]:    [ -1.560889,  -0.065602,   0.001978]
    Dipole moment [D]:                     0.055087
      Cartesian components [D]:          [ -0.006337,   0.054400,   0.005927]
    RMS size of the density [Ang]:         1.199713
      Cartesian components [Ang]:        [  0.786611,   0.768171,   0.480069]
  
  Exciton analysis of the difference density matrix
    <r_h> [Ang]:                  [ -1.570618,  -0.061911,   0.001801]
    <r_e> [Ang]:                  [ -1.569335,  -0.072422,   0.000900]
    |<r_e - r_h>| [Ang]:            0.010626
    Hole size [Ang]:                1.485543
      Cartesian components [Ang]: [  0.996426,   1.003685,   0.454523]
    Electron size [Ang]:            1.477150
      Cartesian components [Ang]: [  0.880385,   0.860387,   0.816473]

  Transition density matrix analysis:
  -----------------------------------
  
  CT numbers (Mulliken)
    omega =     0.9218
    <Phe> =    -0.0122
  
  Exciton analysis of the transition density matrix
    Trans. dipole moment [D]:             0.011993
      Cartesian components [D]:         [  0.002043,  -0.003755,   0.011206]
    <r_h> [Ang]:                        [ -1.571746,  -0.060827,   0.001884]
    <r_e> [Ang]:                        [ -1.568804,  -0.073758,   0.000768]
    |<r_e - r_h>| [Ang]:                  0.013308
    Hole size [Ang]:                      1.513902
      Cartesian components [Ang]:       [  1.018686,   1.028146,   0.443953]
    Electron size [Ang]:                  1.474373
      Cartesian components [Ang]:       [  0.871180,   0.849822,   0.832240]
    RMS electron-hole separation [Ang]:   2.093467
      Cartesian components [Ang]:       [  1.324620,   1.318966,   0.942505]
    Covariance(r_h, r_e) [Ang^2]:         0.041624
    Correlation coefficient:              0.018648
    Center-of-mass size [Ang]:            1.066410
      Cartesian components [Ang]:       [  0.678001,   0.674363,   0.471996]

  Decomposition into state-averaged NTOs
    H- 1 -> L+ 0: -0.6615 ( 87.5%)
    H- 0 -> L+ 2:  0.1479 (  4.4%)
                   omega =  92.2%
  ----------------------------------------------------------------------------


  Excited state 3 (singlet, A)                                     [converged]
  ----------------------------------------------------------------------------
  Term symbol:  4 (1) A                                     R^2 =  5.75909e-13

  Total energy:                                            -77.9823767001 a.u.
  Excitation energy:                                               9.174334 eV

  Osc. strength:                                                      0.025344
  Trans. dip. moment [a.u.]:           [   0.015545,    0.020224,   -0.334820]
  <i|r^2|0> [a.u.]:                    [   0.091217,    0.001339,    0.006077]
  Two-photon absorption cross-section (SoS) [a.u.]:                   0.002835
  Two-photon absorption matrix (SoS) [a.u.]:
                                       |    0.009838    0.001544   -0.015748 |
                                       |    0.001544   -0.006777   -0.004479 |
                                       |   -0.015748   -0.004479    0.002802 |
  Two-photon absorption cross-section [a.u.]:                         0.004888
  Two-photon absorption matrix [a.u.]:
                                       |    0.009920    0.001321   -0.021421 |
                                       |    0.001321   -0.002413   -0.009207 |
                                       |   -0.021421   -0.009207   -0.000151 |

  Dip. moment [a.u.]:                  [   0.027842,    0.011926,    0.001331]
  Total dipole [Debye]:                                               0.077060
  <r^2> [a.u.]:                        [ 181.016715,   40.611392,   11.027657]
  Total <r^2> [a.u.]:                                               232.655763

  V1^2 = 0.9588, V2^2 = 0.0412

  Important amplitudes:
      occ i     occ j     vir a      vir b          v   
    -----------------------------------------------------
     8 (A) A             10 (A) A                 0.6889
     8 (A) A             24 (A) A                 0.0507
     8 (A) A             18 (A) A                -0.0311
     4 (A) A              9 (A) A                 0.0237
     8 (A) A   8 (A) B    9 (A) A   12 (A) B     -0.0219
     8 (A) A   8 (A) B   10 (A) A   17 (A) B      0.0173
     7 (A) A              9 (A) A                 0.0172
     8 (A) A             15 (A) A                 0.0170
     5 (A) A   8 (A) B   11 (A) A   10 (A) B      0.0165
     7 (A) A   8 (A) B   13 (A) A   10 (A) B     -0.0141
     4 (A) A   8 (A) B   12 (A) A   10 (A) B     -0.0111
     6 (A) A   8 (A) A   10 (A) A   15 (A) A     -0.0110
     7 (A) A   8 (A) B   22 (A) A   10 (A) B      0.0108
     6 (A) A   8 (A) B   15 (A) A   10 (A) B      0.0108
     4 (A) A   8 (A) A   10 (A) A   12 (A) A      0.0106
     7 (A) A   8 (A) A   10 (A) A   22 (A) A     -0.0099
     7 (A) A   8 (A) A   10 (A) A   13 (A) A      0.0097
     5 (A) A   8 (A) B   21 (A) A   10 (A) B      0.0094
     5 (A) A   8 (A) A   10 (A) A   11 (A) A     -0.0094
     6 (A) A   8 (A) A   10 (A) A   18 (A) A     -0.0088
     6 (A) A   8 (A) B   10 (A) A   10 (A) B     -0.0087
     7 (A) A   8 (A) A   12 (A) A   16 (A) A     -0.0081
     5 (A) A   8 (A) A   10 (A) A   21 (A) A     -0.0080
     3 (A) A   4 (A) B   10 (A) A    9 (A) B     -0.0079
     4 (A) A   8 (A) B   19 (A) A   10 (A) B      0.0075
     8 (A) A   8 (A) B    9 (A) A   23 (A) B      0.0075
     8 (A) A   8 (A) B   10 (A) A   28 (A) B     -0.0073
     3 (A) A   8 (A) B   10 (A) A   10 (A) B      0.0072
     5 (A) A   8 (A) B   10 (A) A   11 (A) B      0.0071
     3 (A) A   8 (A) A   10 (A) A   24 (A) A     -0.0071
     7 (A) A   8 (A) B   16 (A) A   12 (A) B      0.0070
     3 (A) A   8 (A) B   10 (A) A   18 (A) B     -0.0069
     8 (A) A   8 (A) B    9 (A) A   19 (A) B      0.0068
     6 (A) A   8 (A) B   18 (A) A   10 (A) B      0.0067
     3 (A) A   6 (A) B   10 (A) A   28 (A) B     -0.0062
     7 (A) A   8 (A) B   12 (A) A   11 (A) B     -0.0057
     6 (A) A             28 (A) A                 0.0057
     3 (A) A   5 (A) B   10 (A) A   25 (A) B     -0.0056
     5 (A) A   8 (A) A   10 (A) A   16 (A) A      0.0056
     3 (A) A   8 (A) A   10 (A) A   18 (A) A     -0.0056
    -----------------------------------------------------

  Density matrix analysis:
  ------------------------
  NOs
    Occupation of frontier NOs:
       0.9820   0.9845
    Number of electrons: 16.000000
    Number of unpaired electrons: n_u =  2.28616, n_u,nl =  2.02461
    NO participation ratio (PR_NO):  2.693858
  
  
  Mulliken Population Analysis
  Atom      Charge (e)              h+              e-           Del q
  --------------------------------------------------------------------
   1 H       -0.160422        0.053995       -0.264046       -0.210051
   2 C        0.329797        0.537167       -0.109011        0.428156
   3 H       -0.166409        0.053672       -0.270490       -0.216819
   4 C        0.327453        0.538136       -0.108486        0.429649
   5 H       -0.162912        0.054188       -0.267157       -0.212968
   6 H       -0.167506        0.053644       -0.271611       -0.217967
  --------------------------------------------------------------------
  Sum:       -0.000000        1.290801       -1.290801        0.000000
  
  Multipole moment analysis of the density matrix
    Molecular charge:                      0.000000
    Number of electrons:                   16.000000
      Center of electronic charge [Ang]: [ -1.561810,  -0.065997,   0.001934]
    Total nuclear charge:                  16.000000
      Center of nuclear charge [Ang]:    [ -1.560889,  -0.065602,   0.001978]
    Dipole moment [D]:                     0.077060
      Cartesian components [D]:          [  0.070767,   0.030312,   0.003384]
    RMS size of the density [Ang]:         1.276042
      Cartesian components [Ang]:        [  0.853737,   0.840486,   0.439318]
  
  Exciton analysis of the difference density matrix
    <r_h> [Ang]:                  [ -1.561138,  -0.065142,   0.001834]
    <r_e> [Ang]:                  [ -1.572537,  -0.069755,   0.001516]
    |<r_e - r_h>| [Ang]:            0.012301
    Hole size [Ang]:                1.410220
      Cartesian components [Ang]: [  0.833626,   0.820122,   0.788155]
    Electron size [Ang]:            2.076261
      Cartesian components [Ang]: [  1.372417,   1.377880,   0.727171]

  Transition density matrix analysis:
  -----------------------------------
  
  CT numbers (Mulliken)
    omega =     0.9260
    <Phe> =    -0.0109
  
  Exciton analysis of the transition density matrix
    Trans. dipole moment [D]:             0.426747
      Cartesian components [D]:         [  0.019756,   0.025702,  -0.425514]
    <r_h> [Ang]:                        [ -1.559272,  -0.064959,   0.001793]
    <r_e> [Ang]:                        [ -1.576213,  -0.071134,   0.001391]
    |<r_e - r_h>| [Ang]:                  0.018036
    Hole size [Ang]:                      1.213183
      Cartesian components [Ang]:       [  0.636786,   0.623870,   0.822863]
    Electron size [Ang]:                  2.295953
      Cartesian components [Ang]:       [  1.516317,   1.525098,   0.803904]
    RMS electron-hole separation [Ang]:   2.586930
      Cartesian components [Ang]:       [  1.637198,   1.640798,   1.148726]
    Covariance(r_h, r_e) [Ang^2]:         0.025666
    Correlation coefficient:              0.009215
    Center-of-mass size [Ang]:            1.303318
      Cartesian components [Ang]:       [  0.826029,   0.827359,   0.576012]

  Decomposition into state-averaged NTOs
    H- 0 -> L+ 1:  0.6796 ( 92.4%)
                   omega =  92.6%
  ----------------------------------------------------------------------------


  Excited state 4 (singlet, A)                                     [converged]
  ----------------------------------------------------------------------------
  Term symbol:  5 (1) A                                     R^2 =  4.10727e-13

  Total energy:                                            -77.9578569909 a.u.
  Excitation energy:                                               9.841549 eV

  Osc. strength:                                                      0.000009
  Trans. dip. moment [a.u.]:           [  -0.000541,    0.001213,   -0.005915]
  <i|r^2|0> [a.u.]:                    [  -0.020131,   -0.019668,    0.036938]
  Two-photon absorption cross-section (SoS) [a.u.]:                 150.966868
  Two-photon absorption matrix (SoS) [a.u.]:
                                       |   -0.287317   -0.325922    2.980457 |
                                       |   -0.325922   -0.367047    3.091728 |
                                       |    2.980457    3.091728    0.654358 |
  Two-photon absorption cross-section [a.u.]:                        92.940640
  Two-photon absorption matrix [a.u.]:
                                       |   -0.225983   -0.255636    2.326013 |
                                       |   -0.255636   -0.287645    2.437840 |
                                       |    2.326013    2.437840    0.513657 |

  Dip. moment [a.u.]:                  [  -0.031076,   -0.038334,   -0.004513]
  Total dipole [Debye]:                                               0.125953
  <r^2> [a.u.]:                        [ 180.923597,   40.735582,   10.762799]
  Total <r^2> [a.u.]:                                               232.421978

  V1^2 = 0.9635, V2^2 = 0.0365

  Important amplitudes:
      occ i     occ j     vir a      vir b          v   
    -----------------------------------------------------
     8 (A) A             11 (A) A                 0.6699
     7 (A) A              9 (A) A                -0.1497
     8 (A) A             21 (A) A                 0.0781
     8 (A) A             16 (A) A                -0.0643
     8 (A) A   8 (A) B    9 (A) A   13 (A) B     -0.0167
     5 (A) A   8 (A) B   11 (A) A   11 (A) B      0.0155
     8 (A) A   8 (A) B   11 (A) A   17 (A) B      0.0140
     7 (A) A             20 (A) A                -0.0137
     7 (A) A   8 (A) B   13 (A) A   11 (A) B     -0.0128
     5 (A) A   8 (A) A   11 (A) A   21 (A) A     -0.0110
     4 (A) A   8 (A) B   12 (A) A   11 (A) B     -0.0110
     8 (A) A   8 (A) B    9 (A) A   22 (A) B      0.0107
     7 (A) A   8 (A) A   11 (A) A   22 (A) A     -0.0097
     6 (A) A   8 (A) B   15 (A) A   11 (A) B      0.0090
     6 (A) A   8 (A) B   10 (A) A   11 (A) B     -0.0090
     7 (A) A   8 (A) B   22 (A) A   11 (A) B      0.0089
     3 (A) A   4 (A) B   11 (A) A    9 (A) B     -0.0083
     3 (A) A   8 (A) B   11 (A) A   18 (A) B     -0.0081
     6 (A) A   8 (A) A   11 (A) A   15 (A) A     -0.0080
     7 (A) A   8 (A) A   13 (A) A   16 (A) A     -0.0078
     7 (A) A   8 (A) A   11 (A) A   13 (A) A      0.0077
     5 (A) A   8 (A) B   21 (A) A   11 (A) B      0.0071
     4 (A) A   8 (A) B   19 (A) A   11 (A) B      0.0070
     5 (A) A   8 (A) B    9 (A) A    9 (A) B      0.0067
     4 (A) A   8 (A) A   11 (A) A   12 (A) A      0.0063
     6 (A) A   8 (A) A   11 (A) A   18 (A) A     -0.0062
     3 (A) A   6 (A) B   11 (A) A   28 (A) B     -0.0061
     6 (A) A   8 (A) B   18 (A) A   11 (A) B      0.0060
     7 (A) A   8 (A) B   16 (A) A   13 (A) B      0.0057
     3 (A) A   8 (A) A   11 (A) A   18 (A) A     -0.0056
     5 (A) A   8 (A) B   10 (A) A   10 (A) B      0.0056
     3 (A) A   8 (A) B   11 (A) A   30 (A) B     -0.0055
     3 (A) A   5 (A) B   11 (A) A   25 (A) B     -0.0055
     6 (A) A   8 (A) B   11 (A) A   10 (A) B     -0.0054
     7 (A) A   8 (A) B   12 (A) A   10 (A) B     -0.0054
     8 (A) A   8 (A) B   20 (A) A   22 (A) B      0.0053
     3 (A) A   8 (A) A   11 (A) A   24 (A) A     -0.0053
     5 (A) A   8 (A) A   11 (A) A   16 (A) A      0.0048
     6 (A) A   8 (A) A   10 (A) A   16 (A) A     -0.0047
     8 (A) A   8 (A) B   11 (A) A   28 (A) B     -0.0044
    -----------------------------------------------------

  Density matrix analysis:
  ------------------------
  NOs
    Occupation of frontier NOs:
       0.9411   1.0274
    Number of electrons: 16.000000
    Number of unpaired electrons: n_u =  2.31884, n_u,nl =  2.04876
    NO participation ratio (PR_NO):  2.911416
  
  
  Mulliken Population Analysis
  Atom      Charge (e)              h+              e-           Del q
  --------------------------------------------------------------------
   1 H       -0.145496        0.046001       -0.241126       -0.195124
   2 C        0.278587        0.496926       -0.119980        0.376946
   3 H       -0.131240        0.046692       -0.228341       -0.181650
   4 C        0.273753        0.497556       -0.121607        0.375949
   5 H       -0.144718        0.046899       -0.241673       -0.194774
   6 H       -0.130886        0.046019       -0.227367       -0.181347
  --------------------------------------------------------------------
  Sum:       -0.000000        1.180093       -1.180093        0.000000
  
  Multipole moment analysis of the density matrix
    Molecular charge:                      0.000000
    Number of electrons:                   16.000000
      Center of electronic charge [Ang]: [ -1.559861,  -0.064334,   0.002127]
    Total nuclear charge:                  16.000000
      Center of nuclear charge [Ang]:    [ -1.560889,  -0.065602,   0.001978]
    Dipole moment [D]:                     0.125953
      Cartesian components [D]:          [ -0.078987,  -0.097436,  -0.011472]
    RMS size of the density [Ang]:         1.276906
      Cartesian components [Ang]:        [  0.856341,   0.841906,   0.434009]
  
  Exciton analysis of the difference density matrix
    <r_h> [Ang]:                  [ -1.560032,  -0.064296,   0.001913]
    <r_e> [Ang]:                  [ -1.546080,  -0.046805,   0.004187]
    |<r_e - r_h>| [Ang]:            0.022489
    Hole size [Ang]:                1.394748
      Cartesian components [Ang]: [  0.817788,   0.807123,   0.790631]
    Electron size [Ang]:            2.124817
      Cartesian components [Ang]: [  1.424496,   1.422851,   0.679083]

  Transition density matrix analysis:
  -----------------------------------
  
  CT numbers (Mulliken)
    omega =     0.9298
    <Phe> =    -0.0134
  
  Exciton analysis of the transition density matrix
    Trans. dipole moment [D]:             0.007704
      Cartesian components [D]:         [ -0.000687,   0.001541,  -0.007517]
    <r_h> [Ang]:                        [ -1.560649,  -0.065544,   0.001713]
    <r_e> [Ang]:                        [ -1.543584,  -0.042989,   0.004613]
    |<r_e - r_h>| [Ang]:                  0.028432
    Hole size [Ang]:                      1.227814
      Cartesian components [Ang]:       [  0.658402,   0.649279,   0.807756]
    Electron size [Ang]:                  2.263326
      Cartesian components [Ang]:       [  1.517049,   1.516759,   0.721562]
    RMS electron-hole separation [Ang]:   2.564417
      Cartesian components [Ang]:       [  1.645417,   1.642171,   1.082641]
    Covariance(r_h, r_e) [Ang^2]:         0.027374
    Correlation coefficient:              0.009851
    Center-of-mass size [Ang]:            1.292761
      Cartesian components [Ang]:       [  0.831077,   0.828859,   0.541789]

  Decomposition into state-averaged NTOs
    H- 0 -> L+ 2:  0.6650 ( 88.5%)
    H- 1 -> L+ 0:  0.1477 (  4.4%)
                   omega =  93.0%
  ----------------------------------------------------------------------------


  Excited state 5 (singlet, A)                                     [converged]
  ----------------------------------------------------------------------------
  Term symbol:  6 (1) A                                     R^2 =  3.15375e-13

  Total energy:                                            -77.9440923574 a.u.
  Excitation energy:                                              10.216104 eV

  Osc. strength:                                                      0.000001
  Trans. dip. moment [a.u.]:           [   0.000028,   -0.000017,    0.002139]
  <i|r^2|0> [a.u.]:                    [   0.088872,   -0.103487,    0.014939]
  Two-photon absorption cross-section (SoS) [a.u.]:                 175.628051
  Two-photon absorption matrix (SoS) [a.u.]:
                                       |    0.323574    0.047139   -3.385111 |
                                       |    0.047139   -0.380760    3.219556 |
                                       |   -3.385111    3.219556    0.062031 |
  Two-photon absorption cross-section [a.u.]:                        77.916918
  Two-photon absorption matrix [a.u.]:
                                       |    0.216291    0.031399   -2.245935 |
                                       |    0.031399   -0.253119    2.153614 |
                                       |   -2.245935    2.153614    0.042862 |

  Dip. moment [a.u.]:                  [   0.001347,    0.001484,    0.000429]
  Total dipole [Debye]:                                               0.005209
  <r^2> [a.u.]:                        [ 178.450630,   38.095708,   11.950070]
[...]
    16   -1.492106921077e-03
    17   -1.757735075139e-03
    18   -1.899663768545e-04
    19   -3.293280579579e-03
    20    1.062353125551e-02
    21    9.357041877586e-01
    22   -2.417376183223e-04
    23    1.400365734212e-02
    24    8.179290481611e-04
    25    7.061003448312e-02
    26   -5.270277022904e-02
    27   -1.403736667336e+00
    28    9.844377797547e-02
    29   -9.230676874039e-02
    30   -9.914983463198e-04
    31    3.875062841659e-01
    32   -3.622171338672e-01
    33   -3.843652990830e-03
    34    1.569584108327e-02
    35   -1.470640525336e-03
    36   -1.806909438484e-03
    37    7.790663198982e-05
    38   -3.198693639158e-03
    39    9.534597667395e-03
    40    9.319598410677e-01
    41    2.343475532453e-04
    42   -1.394888491364e-02
    43   -8.308985146719e-04
    44    1.053901839959e-02
    45    9.474193052902e-01
    46    1.419023696477e-02
    47    4.360413366180e-04
    48    6.911715567025e-04
Sym=X
Ene= 0.233158
Spin=Alpha
Occup=0
     1    2.498461535542e-02
     2    1.213517272827e+00
     3   -1.413241571186e-02
     4   -3.625357543134e-03
     5   -8.808281901172e-04
     6    7.997653150592e-04
     7   -1.103261210684e-03
     8   -1.517339183831e-02
     9   -1.528344827811e-01
    10   -1.596129562046e-01
    11   -1.666892459972e-02
    12   -5.517788914834e-01
    13   -5.640376683164e-01
    14   -5.941489079662e-02
    15    1.472652977381e-04
    16   -2.773110992479e-05
    17   -8.289335887441e-06
    18   -2.565691374899e-04
    19   -1.393407700364e-04
    20   -2.574727749867e-02
    21   -1.187989429520e+00
    22   -2.665203538200e-03
    23   -1.394736163520e-02
    24   -9.528349329220e-04
    25    3.344173460698e-05
    26    5.515437918449e-04
    27   -9.512222493421e-03
    28   -1.523439795555e-01
    29   -1.611921969381e-01
    30   -1.688679919783e-02
    31   -5.409441563217e-01
    32   -5.650795051812e-01
    33   -5.957399821837e-02
    34    2.190102246032e-04
    35   -2.763018202958e-06
    36   -8.105807080788e-05
    37    6.207636154400e-04
    38   -3.711715249495e-05
    39    2.520052358213e-02
    40    1.195185302886e+00
    41   -2.695552520004e-03
    42   -1.422168646326e-02
    43   -9.810289373257e-04
    44   -2.534733324282e-02
    45   -1.190009647380e+00
    46   -1.378614776343e-02
    47   -3.496480014987e-03
    48   -8.629048449805e-04
Sym=X
Ene= 0.239613
Spin=Alpha
Occup=0
     1    1.606045976375e-02
     2    1.093685249854e+00
     3   -1.720075155289e-02
     4   -9.227629120259e-03
     5   -1.374230121536e-03
     6    8.673069154541e-02
     7   -7.979396524576e-02
     8   -1.604810983514e+00
     9   -5.716261629484e-02
    10    5.668431344027e-02
    11    4.897108702191e-04
    12   -2.271290007133e-01
    13    2.209514711628e-01
    14    1.610178998488e-03
    15    2.280390135037e-02
    16   -2.654561763585e-03
    17   -2.984220708615e-03
    18    4.240526616831e-04
    19   -1.294318916004e-02
    20    1.601344508911e-02
    21    1.095577922003e+00
    22    8.528113954340e-03
    23    1.748399697087e-02
    24    1.432173208702e-03
    25   -8.618137690322e-02
    26    7.894536317854e-02
    27    1.593030332670e+00
    28   -5.780814039738e-02
    29    5.616289665071e-02
    30    8.517751623717e-04
    31   -2.263143662114e-01
    32    2.216337059575e-01
    33    3.470796082984e-03
    34   -2.258126868470e-02
    35    2.585961043833e-03
    36    3.004449762982e-03
    37   -5.341287949860e-04
    38    1.276829786877e-02
    39   -1.641775982051e-02
    40   -1.092101347162e+00
    41    8.565757953202e-03
    42    1.742119759241e-02
    43    1.461509813307e-03
    44   -1.594564432534e-02
    45   -1.082008498580e+00
    46   -1.686403673894e-02
    47   -9.358807364468e-03
    48   -1.340253179784e-03
Sym=X
Ene= 0.303289
Spin=Alpha
Occup=0
     1   -2.134198583491e-02
     2    1.703649017174e+00
     3   -2.294390897938e-02
     4    2.588596093776e-04
     5   -1.081472288565e-03
     6   -6.860967759718e-05
     7    1.834598339896e-04
     8   -9.628927766360e-03
     9   -1.336776885133e-01
    10   -1.396460769656e-01
    11   -1.460328913921e-02
    12   -1.146024595894e+00
    13   -1.196871495051e+00
    14   -1.253979446894e-01
    15    1.303545067340e-04
    16   -1.692964111892e-03
    17    1.814942994992e-03
    18   -3.268865603772e-02
    19   -1.773586961349e-03
    20    1.975417273814e-02
    21   -1.691518495084e+00
    22    1.510645478375e-03
    23   -2.284033241038e-02
    24   -1.271780953863e-03
    25    3.269241755625e-05
    26    1.025235500343e-04
    27   -5.054753881568e-03
    28    1.343437279328e-01
    29    1.401308492120e-01
    30    1.474930192481e-02
    31    1.140288357775e+00
    32    1.196382375104e+00
    33    1.253857298223e-01
    34    4.837819847954e-05
    35   -1.593386451837e-03
    36    1.885989619445e-03
    37   -3.230526810708e-02
    38   -1.665514057032e-03
    39    1.921621065321e-02
    40   -1.692397505000e+00
    41   -1.589847720667e-03
    42    2.282284635881e-02
    43    1.294744254278e-03
    44   -1.980822758513e-02
    45    1.696491045071e+00
    46    2.294828057881e-02
    47   -3.732773897195e-04
    48    1.059812451099e-03
Sym=X
Ene= 0.462074
Spin=Alpha
Occup=0
     1   -1.151635501264e-01
     2   -7.231284172815e-01
     3   -1.573104643526e-02
     4   -1.024796384148e-02
     5   -1.347375068098e-03
     6    6.065218243217e-02
     7    1.740257471949e-02
     8   -3.585561510569e+00
     9    1.028559409484e-01
    10   -9.866420210062e-02
    11   -9.406692644686e-04
    12    2.430808478080e+00
    13   -2.300761543525e+00
    14   -2.057028521191e-02
    15    5.361181823070e-02
    16   -3.368168973448e-03
    17   -4.670443920815e-03
    18   -5.632235814745e-04
    19    1.777369408527e-02
    20   -1.214181003997e-01
    21   -6.995876039561e-01
    22    8.730520036609e-03
    23    1.646418707473e-02
    24    1.391899735733e-03
    25   -6.093136430366e-02
    26   -1.605101342122e-02
    27    3.590742119262e+00
    28    1.055245824621e-01
    29   -1.007065462351e-01
    30   -1.190559523559e-03
    31    2.420857922293e+00
    32   -2.298892712613e+00
    33   -2.209016284660e-02
    34   -5.267563581518e-02
    35    3.273316157287e-03
    36    4.507757979268e-03
    37    7.275645688444e-04
    38   -1.905855570775e-02
    39    1.150602935602e-01
    40    7.109796326554e-01
    41    8.546859277383e-03
    42    1.622390257784e-02
    43    1.368647013617e-03
    44    1.105694060590e-01
    45    7.175229356490e-01
    46   -1.548842768551e-02
    47   -9.911965255836e-03
    48   -1.335370085919e-03
Sym=X
Ene= 0.577410
Spin=Alpha
Occup=0
     1    2.501641087152e-01
     2    4.260253308035e-02
     3   -1.766754564151e-02
     4    2.509810372230e-02
     5    6.451372841818e-04
     6   -4.242700554198e-03
     7   -1.563518227028e-01
     8   -4.752971880661e-01
     9    2.992794049665e-01
    10   -2.873070564058e-01
    11   -2.861111257460e-03
    12   -7.213674556582e-01
    13    6.887233790973e-01
    14    6.702077533441e-03
    15   -5.934508826648e-03
    16    3.901984126962e-03
    17    3.727959706430e-03
    18   -4.005045402150e-03
    19    6.025156680986e-02
    20    2.535185247903e-01
    21    2.738114635840e-02
    22   -2.654534639220e-02
    23    1.652797591977e-02
    24   -2.841896867799e-04
    25   -5.709242818847e-03
    26   -1.574841934825e-01
    27   -4.044859524757e-01
    28   -2.968447757509e-01
    29    2.848646928383e-01
    30    2.793326247802e-03
    31    7.661417148792e-01
    32   -7.360812659162e-01
    33   -7.652669592231e-03
    34   -6.069367315552e-03
    35    3.893243830365e-03
    36    3.762104459139e-03
    37   -4.304470156940e-03
    38    6.017342567326e-02
    39    2.531325227863e-01
    40    4.946474410016e-02
    41    2.708370691396e-02
    42   -1.668745446870e-02
    43    2.780472556075e-04
    44    2.474668904103e-01
    45    5.834517810263e-02
    46    1.859880042777e-02
    47   -2.610474934220e-02
    48   -6.867773762317e-04
Sym=X
Ene= 0.615498
Spin=Alpha
Occup=0
     1   -5.161723957784e-01
     2    1.857543544944e-01
     3   -6.110138035671e-02
     4    3.790076064134e-02
     5   -6.757269435188e-04
     6   -4.005865330731e-04
     7   -1.404730095385e-03
     8   -1.432284085896e-02
     9   -4.086895399870e-02
    10   -4.012895636489e-02
    11   -4.348676577288e-03
    12    3.102915654339e-01
    13    2.855398841371e-01
    14    3.152941012002e-02
    15    7.615300696116e-04
    16   -7.473664047539e-03
    17    8.337911587304e-03
    18   -1.474817243709e-01
    19   -5.905570834844e-03
    20    5.121629265316e-01
    21   -2.030876315344e-01
    22    4.150235401655e-02
    23   -5.864712482451e-02
    24   -1.497051849037e-03
    25    3.879390607867e-04
    26   -5.721763741684e-04
    27    2.213245907701e-02
    28   -4.031068813124e-02
    29   -3.960540570132e-02
    30   -4.252259951312e-03
    31    3.069031331837e-01
    32    2.845033182634e-01
    33    3.165966211105e-02
    34   -1.665897120877e-03
    35    7.509700242592e-03
    36   -8.522514799227e-03
    37    1.493813716339e-01
    38    6.855201604915e-03
    39   -5.135996106792e-01
    40    2.098180636913e-01
    41    4.121933465087e-02
    42   -5.874482854841e-02
    43   -1.572427291026e-03
    44    5.242168157615e-01
    45   -2.037453059163e-01
    46   -6.159922316243e-02
    47    3.745956641807e-02
    48   -6.513532637358e-04
Sym=X
Ene= 0.689200
Spin=Alpha
Occup=0
     1    3.696316252822e-04
     2    2.315183423375e-05
     3    1.120755411010e-03
     4    1.328073200666e-03
     5   -2.185071532994e-02
     6    2.551101025904e-05
     7    3.569964581362e-04
     8   -6.787270772451e-05
     9    3.162996899732e-02
    10    3.986434397634e-02
    11   -6.702053692328e-01
    12   -2.928732768363e-02
    13   -3.614602174724e-02
    14    6.137738559318e-01
    15   -1.380926302203e-03
    16    8.280024988555e-02
    17   -7.830505542442e-02
    18   -8.615626981222e-03
    19   -1.115757487051e-03
    20    3.982979346607e-04
    21   -1.337012090776e-04
    22    9.396809735131e-04
    23    1.141390604139e-03
    24   -2.088606616621e-02
    25    1.356218906143e-05
    26    4.757416362851e-04
    27   -4.252530750963e-04
    28    3.193714610594e-02
    29    3.987147672781e-02
    30   -6.701902263935e-01
    31   -2.961219619931e-02
    32   -3.617728063173e-02
    33    6.131894195645e-01
    34    1.122739512739e-03
    35   -8.274043605751e-02
    36    7.839852105225e-02
    37    8.560320851742e-03
    38    1.206668416918e-03
    39    2.010198884929e-04
    40   -5.028831075836e-04
    41    1.021069111998e-03
    42    1.382143805522e-03
    43   -2.106874930100e-02
    44    1.622082351201e-04
    45   -3.574413815526e-04
    46    8.874517029234e-04
    47    1.250879623633e-03
    48   -2.107101441916e-02
Sym=X
Ene= 0.709374
Spin=Alpha
Occup=0
     1   -4.716633690588e-01
     2    1.425772239660e-01
     3   -8.024742162710e-02
     4   -4.412420585008e-02
     5   -6.455390632840e-03
     6   -4.745978190625e-02
     7   -3.235876646252e-01
     8    5.120671923857e-01
     9    2.023496975904e-01
    10   -1.949095745080e-01
    11   -2.463578626491e-03
    12   -8.713642531793e-02
    13    8.650924837152e-02
    14    1.318711442240e-03
    15    1.931183641969e-01
    16   -2.042772862584e-02
    17   -2.383581159086e-02
    18    3.025084738559e-03
    19   -7.735357630827e-02
    20   -4.732295168161e-01
    21    1.511336880889e-01
    22    4.110662748506e-02
    23    8.128392487051e-02
    24    6.739039285582e-03
    25   -4.729321652116e-02
    26   -3.206225811011e-01
    27    4.670405372030e-01
    28   -2.039058966615e-01
    29    1.917264089781e-01
    30    1.243707346838e-03
    31    6.883983809442e-02
    32   -5.458256523586e-02
    33    8.590873375926e-04
    34    1.950790516279e-01
    35   -2.051417042266e-02
    36   -2.404883143791e-02
    37    3.214352489283e-03
    38   -7.561858581694e-02
    39   -4.783421188863e-01
    40    1.407134742029e-01
    41   -4.044973180719e-02
    42   -8.213042174159e-02
    43   -6.820584786356e-03
    44   -4.744303027557e-01
    45    1.481508360067e-01
    46    8.079625575891e-02
    47    4.444325538648e-02
    48    6.480877109159e-03
Sym=X
Ene= 0.785255
Spin=Alpha
Occup=0
     1   -5.277524767658e-01
     2    4.515442008766e-01
     3   -1.102348437580e-01
     4   -2.586252194493e-02
     5   -6.777352453759e-03
     6   -9.155950543927e-02
     7    2.096724403255e-01
     8    6.538642463179e-01
     9   -1.151487652492e-01
    10    1.007745945122e-01
    11   -4.145940446871e-04
    12   -3.026437439961e-01
    13    3.044081127587e-01
    14    5.436757155024e-03
    15    2.083380246067e-01
    16   -1.772696374470e-02
    17   -2.201927354799e-02
    18    2.284056600976e-03
    19   -9.531611008881e-03
    20   -5.389337940048e-01
    21    4.779765896243e-01
    22    2.077875339718e-02
    23    1.140832341597e-01
    24    7.724708113316e-03
    25    9.113018737271e-02
    26   -2.167990422188e-01
    27   -6.513586012716e-01
    28   -1.139188318268e-01
    29    1.070996083925e-01
    30    1.780542612226e-03
    31   -3.073655233714e-01
    32    2.873401720471e-01
    33    7.608625276223e-04
    34   -2.063903928055e-01
    35    1.736607254306e-02
    36    2.207658279851e-02
    37   -1.745294955602e-03
    38    8.144390896500e-03
    39    5.364345835664e-01
    40   -4.658068272158e-01
    41    2.068561505039e-02
    42    1.122865269514e-01
    43    7.699747196695e-03
    44    5.311676476446e-01
    45   -4.633810476388e-01
    46   -1.098067456354e-01
    47   -2.597634589272e-02
    48   -6.749718177543e-03
Sym=X
Ene= 0.808000
Spin=Alpha
Occup=0
     1    5.569671743330e-04
     2   -8.155068339307e-04
     3    1.840195277238e-03
     4    2.064369416269e-03
     5   -3.476684772100e-02
     6    1.109940004883e-04
     7   -3.177169757916e-04
     8   -1.601105148733e-04
     9    3.642670517779e-02
    10    4.488981307137e-02
    11   -7.628580002384e-01
    12   -5.317035059204e-02
    13   -6.691226696021e-02
    14    1.127262258010e+00
    15    6.819764458802e-04
    16   -6.518976240361e-02
    17    6.183178873253e-02
    18    6.823432310497e-03
    19    8.606244367325e-04
    20    5.645328957828e-04
    21   -4.512975200369e-04
    22    1.670249092964e-03
    23    1.889680309558e-03
    24   -3.439756388046e-02
    25   -1.007881128536e-04
    26    1.242904470936e-04
    27    2.608371124475e-04
    28   -3.601779039711e-02
    29   -4.582228589773e-02
    30    7.631672945884e-01
    31    5.389561428948e-02
    32    6.705638434619e-02
    33   -1.127086159335e+00
    34    1.311380033529e-03
    35   -6.524202135981e-02
    36    6.172698898901e-02
    37    6.714455100879e-03
    38    9.918880692694e-04
    39   -5.544330090397e-04
    40    4.952862586661e-04
    41   -1.568761281342e-03
    42   -2.237679690559e-03
    43    3.423287313528e-02
    44   -5.557137428291e-04
    45    8.838817390446e-04
    46   -1.361680958165e-03
    47   -2.024300238237e-03
    48    3.374608180381e-02
Sym=X
Ene= 0.862601
Spin=Alpha
Occup=0
     1    1.455592737004e-02
     2   -1.095513871110e+00
     3    1.484773189052e-01
     4    5.634640703767e-02
     5    1.038751720852e-02
     6    9.685939876792e-04
     7    2.843459297691e-03
     8    1.628744617344e-04
     9   -4.010251431235e-01
    10   -4.277744512664e-01
    11   -4.424328239359e-02
    12    9.404222734043e-01
    13    9.970054414756e-01
    14    1.034071171715e-01
    15   -3.222739301409e-03
    16    1.197369466182e-02
    17   -1.324792530433e-02
    18    2.354587070725e-01
    19    9.358233503362e-03
    20   -9.198952768760e-03
    21    1.099652505383e+00
    22    5.041173259362e-02
    23    1.499666741238e-01
    24    1.128444035223e-02
    25   -5.677663110081e-04
    26    5.437240575051e-03
    27   -6.993264657792e-03
    28   -4.076306505904e-01
    29   -4.336490686414e-01
    30   -4.534586570517e-02
    31    9.520495263172e-01
    32    1.008849775117e+00
    33    1.056559211766e-01
    34    1.382411413783e-03
    35   -1.189327142199e-02
    36    1.358825969270e-02
    37   -2.374804519815e-01
    38   -9.563638412584e-03
    39    1.171015596635e-02
    40   -1.105899435076e+00
    41    4.886042122177e-02
    42    1.520793032766e-01
    43    1.144051057495e-02
    44   -1.516887236511e-02
    45    1.103430342389e+00
    46    1.504850171322e-01
    47    5.547871559013e-02
    48    1.039267394960e-02
Sym=X
Ene= 0.936583
Spin=Alpha
Occup=0
     1   -1.132669301863e-01
     2    1.280445761791e+00
     3   -1.814057513841e-01
     4    6.366751776924e-03
     5   -8.279874578542e-03
     6   -9.961409444257e-04
     7   -1.335286135246e-02
     8    5.694208817463e-03
     9    4.673496736589e-01
    10    5.080401327598e-01
    11    5.230425403356e-02
    12   -1.458633817185e+00
    13   -1.570748672981e+00
    14   -1.623814071777e-01
    15    2.315860367974e-03
    16   -6.039061463065e-03
    17    6.903103920886e-03
    18   -1.222344159343e-01
    19    7.139285017064e-04
    20    1.137740860419e-01
    21   -1.309867316509e+00
    22    1.033295274307e-02
    23   -1.847314091764e-01
    24   -1.039542906027e-02
    25    5.933230979196e-04
    26   -7.939083297799e-03
    27    2.282824715317e-02
    28   -4.778655252491e-01
    29   -4.903634139285e-01
    30   -5.189883235080e-02
    31    1.482502714560e+00
    32    1.520286597666e+00
    33    1.609338993799e-01
    34   -1.796065730811e-03
    35   -5.833111874822e-03
    36    7.003996234579e-03
    37   -1.182117090023e-01
    38   -7.492778724506e-03
    39    1.154222466126e-01
    40   -1.275199531570e+00
    41   -1.422058248773e-02
    42    1.813033030045e-01
    43    1.016881817647e-02
    44   -1.120133783756e-01
    45    1.284831919968e+00
    46    1.804563597722e-01
    47   -4.940104034335e-03
    48    8.249821003572e-03
Sym=X
Ene= 0.972655
Spin=Alpha
Occup=0
     1   -6.498807111702e-02
     2    9.458430500883e-01
     3   -9.324849347303e-02
     4   -9.869410728936e-02
     5   -1.031903789386e-02
     6    2.498990685898e-02
     7    2.448675062416e-01
     8    5.324028188891e-01
     9    4.858467181831e-01
    10   -4.460982468876e-01
    11   -3.178849512171e-03
    12   -1.517232523458e+00
    13    1.381139222578e+00
    14    9.273486308062e-03
    15   -5.278844723321e-02
    16   -1.307836460449e-02
    17   -9.608813097733e-03
    18    1.081759800451e-02
    19   -3.011750995068e-01
    20   -6.243465323561e-02
    21    8.844868586651e-01
    22    9.500233126416e-02
    23    8.964709200594e-02
    24    9.803050032158e-03
    25   -2.504497276448e-02
    26   -2.453238054976e-01
    27   -5.316348043163e-01
    28    4.740192709571e-01
    29   -4.609789741676e-01
    30   -5.262123246669e-03
    31   -1.470804167850e+00
    32    1.439353177903e+00
    33    1.669408062979e-02
    34    5.250718054075e-02
    35    1.278459460681e-02
    36    9.842505555628e-03
    37   -1.481714252990e-02
    38    2.998214375441e-01
    39    6.353099446433e-02
    40   -9.299742844685e-01
    41    9.447857213386e-02
    42    9.575118555324e-02
    43    1.027676146157e-02
    44    6.664856822697e-02
    45   -9.033261472897e-01
    46   -8.824269674015e-02
    47   -9.840194762488e-02
    48   -9.946857147344e-03
[5D]

======= END OF MOLDEN-FORMATTED INPUT FILE =======


        *************************************************************
        *                                                           *
        *  Thank you very much for using Q-Chem.  Have a nice day.  *
        *                                                           *
        *************************************************************


