                  Welcome to Q-Chem
     A Quantum Leap Into The Future Of Chemistry


 Q-Chem 5.4 (devel), Q-Chem, Inc., Pleasanton, CA (2021)

 E. Epifanovsky,  A. T. B. Gilbert,  Xintian Feng,  Joonho Lee,  Yuezhi Mao,  
 N. Mardirossian,  P. Pokhilko,  A. White,  M. Wormit,  M. P. Coons,  
 A. L. Dempwolff,  Zhengting Gan,  D. Hait,  P. R. Horn,  L. D. Jacobson,  
 I. Kaliman,  J. Kussmann,  A. W. Lange,  Ka Un Lao,  D. S. Levine,  Jie Liu,  
 S. C. McKenzie,  A. F. Morrison,  K. Nanda,  F. Plasser,  D. R. Rehn,  
 M. L. Vidal,  Zhi-Qiang You,  Ying Zhu,  B. Alam,  B. Albrecht,  
 A. Aldossary,  E. Alguire,  J. H. Andersen,  D. Barton,  K. Begam,  A. Behn,  
 Y. A. Bernard,  E. J. Berquist,  H. Burton,  A. Carreras,  K. Carter-Fenk,  
 R. Chakraborty,  A. D. Chien,  K. D. Closser,  V. Cofer-Shabica,  
 S. Dasgupta,  Jia Deng,  M. de Wergifosse,  M. Diedenhofen,  Hainam Do,  
 S. Ehlert,  Po-Tung Fang,  S. Fatehi,  Qingguo Feng,  T. Friedhoff,  
 J. Gayvert,  Qinghui Ge,  G. Gidofalvi,  M. Goldey,  J. Gomes,  
 C. Gonzalez-Espinoza,  S. Gulania,  A. Gunina,  M. W. D. Hanson-Heine,  
 P. H. P. Harbach,  A. W. Hauser,  M. F. Herbst,  M. Hernandez Vera,  
 M. Hodecker,  Z. C. Holden,  S. Houck,  Xunkun Huang,  Kerwin Hui,  
 B. C. Huynh,  M. Ivanov,  Hyunjun Ji,  Hanjie Jiang,  B. Kaduk,  S. Kaehler,  
 K. Khistyaev,  Jaehoon Kim,  P. Klunzinger,  Z. Koczor-Benda,  
 Joong Hoon Koh,  D. Kosenkov,  L. Koulias,  T. Kowalczyk,  C. M. Krauter,  
 K. Kue,  A. Kunitsa,  T. Kus,  A. Landau,  K. V. Lawler,  D. Lefrancois,  
 S. Lehtola,  Rain Li,  Yi-Pei Li,  Jiashu Liang,  M. Liebenthal,  
 Hung-Hsuan Lin,  You-Sheng Lin,  Fenglai Liu,  Kuan-Yu Liu,  
 M. Loipersberger,  A. Luenser,  A. Manjanath,  P. Manohar,  E. Mansoor,  
 S. F. Manzer,  Shan-Ping Mao,  A. V. Marenich,  T. Markovich,  S. Mason,  
 S. A. Maurer,  P. F. McLaughlin,  M. F. S. J. Menger,  J.-M. Mewes,  
 S. A. Mewes,  P. Morgante,  J. W. Mullinax,  K. J. Oosterbaan,  G. Paran,  
 Alexander C. Paul,  Suranjan K. Paul,  F. Pavosevic,  Zheng Pei,  S. Prager,  
 E. I. Proynov,  E. Ramos,  B. Rana,  A. E. Rask,  A. Rettig,  R. M. Richard,  
 F. Rob,  E. Rossomme,  T. Scheele,  M. Scheurer,  M. Schneider,  
 N. Sergueev,  S. M. Sharada,  W. Skomorowski,  D. W. Small,  C. J. Stein,  
 Yu-Chuan Su,  E. J. Sundstrom,  Zhen Tao,  J. Thirman,  T. Tsuchimochi,  
 N. M. Tubman,  S. P. Veccham,  O. Vydrov,  J. Wenzel,  J. Witte,  A. Yamada,  
 Kun Yao,  S. Yeganeh,  S. R. Yost,  A. Zech,  Igor Ying Zhang,  Xing Zhang,  
 Yu Zhang,  D. Zuev,  A. Aspuru-Guzik,  A. T. Bell,  N. A. Besley,  
 K. B. Bravaya,  B. R. Brooks,  D. Casanova,  Jeng-Da Chai,  S. Coriani,  
 C. J. Cramer,  A. E. DePrince, III,  R. A. DiStasio Jr.,  A. Dreuw,  
 B. D. Dunietz,  T. R. Furlani,  W. A. Goddard III,  S. Grimme,  
 S. Hammes-Schiffer,  T. Head-Gordon,  W. J. Hehre,  Chao-Ping Hsu,  
 T.-C. Jagau,  Yousung Jung,  A. Klamt,  Jing Kong,  D. S. Lambrecht,  
 WanZhen Liang,  N. J. Mayhall,  C. W. McCurdy,  J. B. Neaton,  
 C. Ochsenfeld,  J. A. Parkhill,  R. Peverati,  V. A. Rassolov,  Yihan Shao,  
 L. V. Slipchenko,  T. Stauch,  R. P. Steele,  J. E. Subotnik,  
 A. J. W. Thom,  A. Tkatchenko,  D. G. Truhlar,  T. Van Voorhis,  
 T. A. Wesolowski,  K. B. Whaley,  H. L. Woodcock III,  P. M. Zimmerman,  
 S. Faraji,  P. M. W. Gill,  M. Head-Gordon,  J. M. Herbert,  A. I. Krylov

 Additional authors for Version 5.4.1: 
 S. Kotaru,  Shaozhi Li,  Xiangyuan Li,  F. Matz,  A. Molle,  Haisheng Ren,  
 Yingli Su,  Hung-Yi Tsai,  C. Utku,  Fang Wang

 Contributors to earlier versions of Q-Chem not listed above: 
 R. D. Adamson,  B. Austin,  R. Baer,  J. Baker,  G. J. O. Beran,  
 K. Brandhorst,  S. T. Brown,  E. F. C. Byrd,  A. K. Chakraborty,  
 G. K. L. Chan,  Chun-Min Chang,  Yunqing Chen,  C.-L. Cheng,  
 Siu Hung Chien,  D. M. Chipman,  D. L. Crittenden,  H. Dachsel,  
 R. J. Doerksen,  A. D. Dutoi,  R. G. Edgar,  J. Fosso-Tande,  
 L. Fusti-Molnar,  D. Ghosh,  A. Ghysels,  A. Golubeva-Zadorozhnaya,  
 J. Gonthier,  M. S. Gordon,  S. R. Gwaltney,  G. Hawkins,  J. E. Herr,  
 A. Heyden,  S. Hirata,  E. G. Hohenstein,  G. Kedziora,  F. J. Keil,  
 C. Kelley,  Jihan Kim,  R. A. King,  R. Z. Khaliullin,  P. P. Korambath,  
 W. Kurlancheek,  A. Laurent,  A. M. Lee,  M. S. Lee,  S. V. Levchenko,  
 Ching Yeh Lin,  D. Liotard,  E. Livshits,  R. C. Lochan,  I. Lotan,  
 L. A. Martinez-Martinez,  P. E. Maslen,  N. Nair,  D. P. O'Neill,  
 D. Neuhauser,  E. Neuscamman,  C. M. Oana,  R. Olivares-Amaya,  R. Olson,  
 T. M. Perrine,  B. Peters,  P. A. Pieniazek,  A. Prociuk,  Y. M. Rhee,  
 J. Ritchie,  M. A. Rohrdanz,  E. Rosta,  N. J. Russ,  H. F. Schaefer III,  
 M. W. Schmidt,  N. E. Schultz,  S. Sharma,  N. Shenvi,  C. D. Sherrill,  
 A. C. Simmonett,  A. Sodt,  T. Stein,  D. Stuck,  K. S. Thanthiriwatte,  
 V. Vanovschi,  L. Vogt,  Tao Wang,  A. Warshel,  M. A. Watson,  
 C. F. Williams,  Q. Wu,  X. Xu,  Jun Yang,  W. Zhang,  Yan Zhao

 Please cite Q-Chem as follows:
 Y. Shao et al., Mol. Phys. 113, 184-215 (2015)
 DOI: 10.1080/00268976.2014.952696

 Q-Chem 5.4.1 for Intel X86 EM64T Linux

 Parts of Q-Chem use Armadillo 9.800.1 (Horizon Scraper).
 http://arma.sourceforge.net/

 Q-Chem begins on Thu Nov 17 15:42:27 2022  

 Host: cpu185.baobab
0

     Scratch files written to /scratch/fum/qchem22000//
 Processing $rem in /home/share/wesolowski/qc5.aug2021.FDE/config/preferences:
 Processing $rem in /home/fum/.qchemrc:

 Checking the input file for inconsistencies... 	...done.

--------------------------------------------------------------
User input:
--------------------------------------------------------------
$comment
generated from CCJob.Templates
$end

$rem
sym_ignore = true
method = adc(2)
ee_states = 10
basis = cc-pVDZ
mem_static = 1024
mem_total = 40000
adc_davidson_maxiter = 900
adc_davidson_conv = 6
adc_print = 3
adc_prop_es = true
adc_prop_es2es = true
adc_prop_tpa = true
molden_format = True
state_analysis = true
print_orbitals = 15
gen_scfman = false
fde_export_density = true
fde_details = 3
$end

$molecule
0 1
H -0.0348278765 -0.2442097827 0.0636489606
C -1.0765972949 -0.5242748755 -0.0023551776
H -1.313264467 -1.5767591607 -0.0757276926
C -2.043634118 0.3826884087 0.0061254933
H -1.8137616575 1.4459188338 0.0804456828
H -3.085977293 0.114931858 -0.0593381042                     
$end
--------------------------------------------------------------
 ----------------------------------------------------------------
             Standard Nuclear Orientation (Angstroms)
    I     Atom           X                Y                Z
 ----------------------------------------------------------------
    1      H      -0.0348278765    -0.2442097827     0.0636489606
    2      C      -1.0765972949    -0.5242748755    -0.0023551776
    3      H      -1.3132644670    -1.5767591607    -0.0757276926
    4      C      -2.0436341180     0.3826884087     0.0061254933
    5      H      -1.8137616575     1.4459188338     0.0804456828
    6      H      -3.0859772930     0.1149318580    -0.0593381042
 ----------------------------------------------------------------
 Nuclear Repulsion Energy =          33.48714019 hartrees
 There are        8 alpha and        8 beta electrons
 Requested basis set is cc-pVDZ
 There are 24 shells and 48 basis functions
 Total memory of 40000 MB is distributed as follows: 
   MEM_STATIC is set to 1024 MB
   QALLOC/CCMAN JOB total memory use is  38976 MB
 Warning: actual memory use might exceed 40000 MB

 Total QAlloc Memory Limit  40000 MB
 Mega-Array Size      1001 MB
 MEM_STATIC part      1024 MB

                       Distance Matrix (Angstroms)
             H (  1)   C (  2)   H (  3)   C (  4)   H (  5)
   C (  2)  1.080776
   H (  3)  1.851895  1.081258
   C (  4)  2.105140  1.325826  2.092743
   H (  5)  2.453859  2.105215  3.067812  1.090332
   H (  6)  3.074674  2.109370  2.450428  1.078174  1.846510

 A cutoff of  1.0D-11 yielded    300 shell pairs
 There are      1220 function pairs (      1329 Cartesian)
 Smallest overlap matrix eigenvalue = 4.69E-03

 Scale SEOQF with 1.000000e-01/1.000000e-01/1.000000e+00

 Standard Electronic Orientation quadrupole field applied
 Nucleus-field energy     =     0.0000000022 hartrees
 Guess from superposition of atomic densities
 Warning:  Energy on first SCF cycle will be non-variational
 SAD guess density has 16.000000 electrons
 A restricted Hartree-Fock SCF calculation will be
 performed using Pulay DIIS extrapolation
 SCF converges when DIIS error is below 1.0E-08
 using 10 threads for integral computing
 -------------------------------------------------------
 OpenMP Integral computing Module                
 Release: version 1.0, May 2013, Q-Chem Inc. Pittsburgh 
 -------------------------------------------------------
 ---------------------------------------
  Cycle       Energy         DIIS Error
 ---------------------------------------
    1     -78.4475754542      1.02E-01
    2     -78.0176985676      7.24E-03
    3     -78.0383827071      1.86E-03
    4     -78.0398741058      5.84E-04
    5     -78.0400003186      5.80E-05
    6     -78.0400021975      9.29E-06
    7     -78.0400022582      2.19E-06
    8     -78.0400022610      7.68E-07
    9     -78.0400022613      1.35E-07
   10     -78.0400022613      3.28E-08
   11     -78.0400022613      7.80E-09 Convergence criterion met
 ---------------------------------------
 SCF time:  CPU 1.51 s  wall 2.12 s
 SCF   energy in the final basis set = -78.04000226
 Total energy in the final basis set = -78.04000226
Exporting Density Matrix to file 'Densmat_SCF.txt'.
Export successful
================================================================================
|                                                                              |
|                                 A D C  M A N                                 |
|                                                                              |
 ------------------------------------------------------------------------------ 
|                                                                              |
| Components:                                                                  |
|                                                                              |
| - libvmm - 1.3-trunk                                                         |
|   Authors:                                                                   |
|   Evgeny Epifanovsky, Ilya Kaliman                                           |
|                                                                              |
| - libtensor - 2.5-trunk                                                      |
|   Authors:                                                                   |
|   Evgeny Epifanovsky, Michael Wormit, Dmitry Zuev, Sam Manzer,               |
|   Ilya Kaliman                                                               |
|                                                                              |
| - libwfa - 1.1-trunk                                                         |
|   Authors:                                                                   |
|   Felix Plasser, Stefanie Mewes (Baeppler), Benjamin Thomitzni,              |
|   Michael Wormit, Feng Chen, Anna I. Krylov, Pavel Pokhilko                  |
|                                                                              |
| - libadc - 1.1-trunk                                                         |
|   Authors:                                                                   |
|   Michael Wormit, Adrian L. Dempwolff, Philipp H. P. Harbach,                |
|   Caroline Krauter, Dirk Rehn, Matthias Schneider, Jan Wenzel                |
|                                                                              |
| - adcman - 2.6-trunk                                                         |
|   Authors:                                                                   |
|   Michael Wormit, Adrian L. Dempwolff, Philipp H. P. Harbach,                |
|   Caroline Krauter, Daniel Lefrancois, Jan-Michael Mewes, Dirk Rehn,         |
|   Matthias Schneider, Jan Wenzel, Andreas Dreuw                              |
|                                                                              |
| Authors of earlier versions of ADCMAN:                                       |
| Andreas Dreuw, Jan Hendrik Starcke, Dirk Rehn, Michael Wormit                |
|                                                                              |
================================================================================

 Created directory /scratch/fum/qchem22000/plots
  Import QC data ...  CPU 0.00 s  wall 0.00 s

 Alpha MOs, Restricted
 -- Occupied --                  
-11.235 -11.233  -1.034  -0.789  -0.641  -0.584  -0.502  -0.376
  1 A     2 A     3 A     4 A     5 A     6 A     7 A     8 A                  
 -- Virtual --                   
  0.170   0.204   0.232   0.239   0.304   0.464   0.577   0.615
  9 A    10 A    11 A    12 A    13 A    14 A    15 A    16 A                  
  0.688   0.708   0.786   0.809   0.861   0.936   0.976   1.009
 17 A    18 A    19 A    20 A    21 A    22 A    23 A    24 A                  
  1.130   1.237   1.254   1.268   1.295   1.599   1.728   1.752
 25 A    26 A    27 A    28 A    29 A    30 A    31 A    32 A                  
  1.820   1.861   1.869   1.922   1.973   1.980   2.226   2.261
 33 A    34 A    35 A    36 A    37 A    38 A    39 A    40 A                  
  2.375   2.451   2.508   2.639   2.714   2.822   3.137   3.405
 41 A    42 A    43 A    44 A    45 A    46 A    47 A    48 A                  

 Beta MOs, Restricted
 -- Occupied --                  
-11.235 -11.233  -1.034  -0.789  -0.641  -0.584  -0.502  -0.376
  1 A     2 A     3 A     4 A     5 A     6 A     7 A     8 A                  
 -- Virtual --                   
  0.170   0.204   0.232   0.239   0.304   0.464   0.577   0.615
  9 A    10 A    11 A    12 A    13 A    14 A    15 A    16 A                  
  0.688   0.708   0.786   0.809   0.861   0.936   0.976   1.009
 17 A    18 A    19 A    20 A    21 A    22 A    23 A    24 A                  
  1.130   1.237   1.254   1.268   1.295   1.599   1.728   1.752
 25 A    26 A    27 A    28 A    29 A    30 A    31 A    32 A                  
  1.820   1.861   1.869   1.922   1.973   1.980   2.226   2.261
 33 A    34 A    35 A    36 A    37 A    38 A    39 A    40 A                  
  2.375   2.451   2.508   2.639   2.714   2.822   3.137   3.405
 41 A    42 A    43 A    44 A    45 A    46 A    47 A    48 A                  
  Import AO data ...  CPU 0.00 s  wall 0.01 s
  Using point group: C1
  Irreducible representations in point group: A
  Molecular orbitals: 
  Occupied MOs:
  Block   0:   1 (  A) A   2 (  A) A   3 (  A) A   4 (  A) A   5 (  A) A
                  -11.23      -11.23      -1.034     -0.7887     -0.6408
               6 (  A) A   7 (  A) A   8 (  A) A
                 -0.5836     -0.5024     -0.3757
  Block   1:   1 (  A) B   2 (  A) B   3 (  A) B   4 (  A) B   5 (  A) B
                  -11.23      -11.23      -1.034     -0.7887     -0.6408
               6 (  A) B   7 (  A) B   8 (  A) B
                 -0.5836     -0.5024     -0.3757
  Virtual MOs:
  Block   0:   9 (  A) A  10 (  A) A  11 (  A) A  12 (  A) A  13 (  A) A
                    0.17      0.2037      0.2324      0.2392      0.3036
              14 (  A) A  15 (  A) A  16 (  A) A  17 (  A) A  18 (  A) A
                  0.4636      0.5766      0.6149      0.6876      0.7083
              19 (  A) A  20 (  A) A  21 (  A) A  22 (  A) A
                   0.786      0.8087      0.8607      0.9361
  Block   1:  23 (  A) A  24 (  A) A  25 (  A) A  26 (  A) A  27 (  A) A
                   0.976       1.009        1.13       1.237       1.254
              28 (  A) A  29 (  A) A  30 (  A) A  31 (  A) A  32 (  A) A
                   1.268       1.295       1.599       1.728       1.752
              33 (  A) A  34 (  A) A  35 (  A) A  36 (  A) A
                    1.82       1.861       1.869       1.922
  Block   2:  37 (  A) A  38 (  A) A  39 (  A) A  40 (  A) A  41 (  A) A
                   1.973        1.98       2.226       2.261       2.375
              42 (  A) A  43 (  A) A  44 (  A) A  45 (  A) A  46 (  A) A
                   2.451       2.508       2.639       2.714       2.822
              47 (  A) A  48 (  A) A
                   3.137       3.405
  Block   3:   9 (  A) B  10 (  A) B  11 (  A) B  12 (  A) B  13 (  A) B
                    0.17      0.2037      0.2324      0.2392      0.3036
              14 (  A) B  15 (  A) B  16 (  A) B  17 (  A) B  18 (  A) B
                  0.4636      0.5766      0.6149      0.6876      0.7083
              19 (  A) B  20 (  A) B  21 (  A) B  22 (  A) B
                   0.786      0.8087      0.8607      0.9361
  Block   4:  23 (  A) B  24 (  A) B  25 (  A) B  26 (  A) B  27 (  A) B
                   0.976       1.009        1.13       1.237       1.254
              28 (  A) B  29 (  A) B  30 (  A) B  31 (  A) B  32 (  A) B
                   1.268       1.295       1.599       1.728       1.752
              33 (  A) B  34 (  A) B  35 (  A) B  36 (  A) B
                    1.82       1.861       1.869       1.922
  Block   5:  37 (  A) B  38 (  A) B  39 (  A) B  40 (  A) B  41 (  A) B
                   1.973        1.98       2.226       2.261       2.375
              42 (  A) B  43 (  A) B  44 (  A) B  45 (  A) B  46 (  A) B
                   2.451       2.508       2.639       2.714       2.822
              47 (  A) B  48 (  A) B
                   3.137       3.405
  Import MO data ...  CPU 0.01 s  wall 0.02 s
  Import HF data ...  CPU 0.08 s  wall 0.05 s
  Import 2e integrals ...  CPU 0.67 s  wall 0.12 s

--------------------------------------------------------------------------------
                                   HF Summary                                   
--------------------------------------------------------------------------------
  Energy:                                                  -78.0400022613 a.u.
  Dip. moment [a.u.]:                  [  -0.001989,   -0.000555,   -0.000001]
  Total dipole [Debye]:                                               0.005248
  <r^2> [a.u.]:                        [ 175.292799,   34.781315,   11.612300]
  Total <r^2> [a.u.]:                                               221.686413
--------------------------------------------------------------------------------
  HF properties ...  CPU 0.01 s  wall 0.01 s
  MP(1) calculation ...  CPU 0.01 s  wall 0.01 s
  N^6 prerequesite intermediates ...  CPU 0.50 s  wall 0.09 s
  Difference density matrix of state mp2_gs printed to ASCII file 'State_mp2_gs_Difference.txt'
Exporting MP density matrix to file 'Densmat_MP.txt'.
Export successful
  Total density matrix of state mp2_gs printed to ASCII file 'State_mp2_gs_Total.txt'
Exporting MP density matrix to file 'Densmat_MP.txt'.
Export successful

--------------------------------------------------------------------------------
                                 MP(2) Summary                                  
--------------------------------------------------------------------------------
  MP energy contribution:                                   -0.2794120551 a.u.
  Total energy:                                            -78.3194143164 a.u.
  Dip. moment [a.u.]:                  [  -0.001668,   -0.000404,    0.000022]
  Total dipole [Debye]:                                               0.004362
  <r^2> [a.u.]:                        [ 175.344217,   34.820072,   11.448283]
  Total <r^2> [a.u.]:                                               221.612572

  Density matrix analysis:
  ------------------------
  NOs
    Occupation of frontier NOs:
       0.0448   1.9388
    Number of electrons: 16.000000
    Number of unpaired electrons: n_u =  0.40215, n_u,nl =  0.04461
    NO participation ratio (PR_NO): 13.920533
  
  
  Mulliken Population Analysis
  Atom      Charge (e)              h+              e-           Del q
  --------------------------------------------------------------------
   1 H        0.050852        0.014001       -0.011201        0.002800
   2 C       -0.097557        0.092543       -0.098164       -0.005621
   3 H        0.049828        0.014105       -0.011174        0.002931
   4 C       -0.104057        0.092648       -0.098545       -0.005898
   5 H        0.051148        0.014080       -0.011193        0.002887
   6 H        0.049786        0.014104       -0.011202        0.002901
  --------------------------------------------------------------------
  Sum:       -0.000000        0.241480       -0.241480        0.000000
  
  Multipole moment analysis of the density matrix
    Molecular charge:                      -0.000000
    Number of electrons:                   16.000000
      Center of electronic charge [Ang]: [ -1.560521,  -0.069339,   0.001977]
    Total nuclear charge:                  16.000000
      Center of nuclear charge [Ang]:    [ -1.560576,  -0.069352,   0.001978]
    Dipole moment [D]:                     0.004362
      Cartesian components [D]:          [ -0.004239,  -0.001027,   0.000056]
    RMS size of the density [Ang]:         1.199407
      Cartesian components [Ang]:        [  0.795996,   0.777564,   0.447618]
  
  Exciton analysis of the difference density matrix
    <r_h> [Ang]:                  [ -1.560297,  -0.068251,   0.002033]
    <r_e> [Ang]:                  [ -1.561000,  -0.068582,   0.001984]
    |<r_e - r_h>| [Ang]:            0.000779
    Hole size [Ang]:                1.391664
      Cartesian components [Ang]: [  0.845776,   0.834222,   0.724890]
    Electron size [Ang]:            1.359728
      Cartesian components [Ang]: [  0.879073,   0.860712,   0.579021]
--------------------------------------------------------------------------------
  MP(2) calculation ...  CPU 0.25 s  wall 0.13 s
  Start ADC(2)-s ...  CPU 0.01 s  wall 0.00 s
  ADC(2) intermediates ...  CPU 0.02 s  wall 0.01 s
  Starting Davidson for singlet states of irrep A ... 
--------------------------------------------------------------------------------
   It NVec Conv  Avg. Norm  Max. Norm  Conv. states           Remark
--------------------------------------------------------------------------------
        10    0  1.331e-01  4.696e-01  0.4133 n n n n n n n n Guess.
    1   20    0  2.335e-02  1.103e-01  0.3284 n n n n n n n n 
    2   30    0  6.153e-03  3.240e-02  0.3237 n n n n n n n n 
    3   40    0  2.214e-03  1.670e-02  0.3233 n n n n n n n n 
    4   50    0  6.594e-04  5.179e-03  0.3233 n n n n n n n n 
    5   20    0  3.225e-04  2.639e-03  0.3233 n n n n n n n n Subspace collapsed.
    6   30    0  3.372e-04  3.267e-03  0.3233 n n n n n n n n 
    7   40    0  2.532e-04  2.416e-03  0.3233 n n n n n n n n 
    8   50    0  3.579e-04  3.563e-03  0.3233 n n n n n n n n 
    9   20    2  2.492e-04  2.485e-03  0.3233 n y n y n n n n Subspace collapsed.
   10   30    4  1.425e-04  1.416e-03  0.3233 n y y y n y n n 
   11   40    5  1.146e-04  1.144e-03  0.3233 n y y y y y n n 
   12   50    6  1.420e-04  1.419e-03  0.3233 y y y y y y n n 
   13   20    6  7.516e-05  7.514e-04  0.3233 y y y y y y n n Subspace collapsed.
   14   30    6  7.991e-05  7.989e-04  0.3233 y y y y y y n n 
   15   40    6  7.782e-05  7.780e-04  0.3233 y y y y y y n n 
   16   50    6  8.297e-05  8.296e-04  0.3233 y y y y y y n n 
   17   20    6  4.182e-05  4.182e-04  0.3233 y y y y y y n n Subspace collapsed.
   18   30    6  4.171e-05  4.171e-04  0.3233 y y y y y y n n 
   19   40    8  2.320e-05  2.320e-04  0.3233 y y y y y y y y 
   20   50    8  3.034e-05  3.034e-04  0.3233 y y y y y y y y 
   21   20    8  1.813e-05  1.813e-04  0.3233 y y y y y y y y Subspace collapsed.
   22   30    8  2.633e-05  2.633e-04  0.3233 y y y y y y y y 
   23   32    8  2.598e-05  2.598e-04  0.3233 y y y y y y y y 
   24   40    8  2.191e-05  2.191e-04  0.3233 y y y y y y y y 
   25   47    8  2.284e-05  2.284e-04  0.3233 y y y y y y y y 
   26   50    8  2.158e-05  2.158e-04  0.3233 y y y y y y y y 
   27   16    9  1.105e-05  1.105e-04  0.3233 y y y y y y y y Subspace collapsed.
   28   21    9  8.860e-06  8.860e-05  0.3233 y y y y y y y y 
   29   26    9  5.748e-06  5.748e-05  0.3233 y y y y y y y y 
   30   26    9  5.748e-06  5.748e-05  0.3233 y y y y y y y y 
   31   36    9  5.565e-06  5.564e-05  0.3233 y y y y y y y y 
   32   40    9  5.384e-06  5.384e-05  0.3233 y y y y y y y y 
   33   44    9  4.940e-06  4.940e-05  0.3233 y y y y y y y y 
   34   48    9  3.047e-06  3.047e-05  0.3233 y y y y y y y y 
   35   50    9  2.356e-06  2.356e-05  0.3233 y y y y y y y y 
   36   14    9  1.142e-06  1.142e-05  0.3233 y y y y y y y y Subspace collapsed.
   37   18    9  1.045e-06  1.045e-05  0.3233 y y y y y y y y 
   38   22    9  7.415e-07  7.415e-06  0.3233 y y y y y y y y 
   39   26    9  5.001e-07  5.001e-06  0.3233 y y y y y y y y 
   40   30    9  3.319e-07  3.319e-06  0.3233 y y y y y y y y 
   41   34    9  2.339e-07  2.339e-06  0.3233 y y y y y y y y 
   42   38    9  2.294e-07  2.294e-06  0.3233 y y y y y y y y 
   43   42    9  2.394e-07  2.394e-06  0.3233 y y y y y y y y 
   44   46    9  1.937e-07  1.937e-06  0.3233 y y y y y y y y 
   45   50    9  1.033e-07  1.033e-06  0.3233 y y y y y y y y 
   46   13   10  4.843e-08  4.843e-07  0.3233 y y y y y y y y Converged.
--------------------------------------------------------------------------------
  Davidson Summary: 
 ------------------------------------------------------------
  State  0: excitation energy =   0.3233 a.u.   (converged)
  State  1: excitation energy =   0.3325 a.u.   (converged)
  State  2: excitation energy =   0.3381 a.u.   (converged)
  State  3: excitation energy =   0.3615 a.u.   (converged)
  State  4: excitation energy =   0.3770 a.u.   (converged)
  State  5: excitation energy =   0.3893 a.u.   (converged)
  State  6: excitation energy =   0.4231 a.u.   (converged)
  State  7: excitation energy =   0.4484 a.u.   (converged)
  State  8: excitation energy =   0.4576 a.u.   (converged)
  State  9: excitation energy =   0.4624 a.u.   (converged)
 ------------------------------------------------------------

  Singlet states of irrep A ...  CPU 97.27 s  wall 34.80 s
  TDMs ...  CPU 0.66 s  wall 0.27 s
  SDMs ...  CPU 1.47 s  wall 0.52 s
  Starting TPA DIIS iterations ... 
------------------------------------ 
   It     Res. Norm  Remark
------------------------------------
                       Guess.
    1     4.347e+00  
    2     5.734e+00  
    3     1.065e+00  
    4     2.501e-01  
    5     6.358e-02  
    6     2.601e-02  
    7     8.077e-03  
    8     1.427e-03  
    9     5.342e-04  
   10     8.936e-05  
   11     2.812e-05  
   12     4.359e-06  
   13     1.436e-06  
   14     4.390e-07  Converged.
   ... Converged in 14 steps (norm: 4.38951e-07)
------------------------------------
  Starting TPA DIIS iterations ... 
------------------------------------ 
   It     Res. Norm  Remark
------------------------------------
                       Guess.
    1     4.074e+00  
    2     5.372e+00  
    3     1.018e+00  
    4     2.533e-01  
    5     6.328e-02  
    6     2.650e-02  
    7     8.009e-03  
    8     1.492e-03  
    9     5.516e-04  
   10     9.149e-05  
   11     2.942e-05  
   12     4.431e-06  
   13     1.506e-06  
   14     4.432e-07  Converged.
   ... Converged in 14 steps (norm: 4.43203e-07)
------------------------------------
  Starting TPA DIIS iterations ... 
------------------------------------ 
   It     Res. Norm  Remark
------------------------------------
                       Guess.
    1     6.876e-01  
    2     4.824e-01  
    3     1.701e-01  
    4     6.072e-02  
    5     1.828e-02  
    6     6.627e-03  
    7     1.053e-03  
    8     4.525e-04  
    9     1.316e-04  
   10     2.438e-05  
   11     8.568e-06  
   12     2.735e-06  
   13     1.869e-06  
   14     8.037e-07  Converged.
   ... Converged in 14 steps (norm: 8.03737e-07)
------------------------------------
  Starting TPA DIIS iterations ... 
------------------------------------ 
   It     Res. Norm  Remark
------------------------------------
                       Guess.
    1     4.566e+00  
    2     6.124e+00  
    3     1.128e+00  
    4     2.715e-01  
    5     6.980e-02  
    6     2.875e-02  
    7     8.918e-03  
    8     1.574e-03  
    9     5.927e-04  
   10     9.960e-05  
   11     3.158e-05  
   12     4.932e-06  
   13     1.633e-06  
   14     5.001e-07  Converged.
   ... Converged in 14 steps (norm: 5.00114e-07)
------------------------------------
  Starting TPA DIIS iterations ... 
------------------------------------ 
   It     Res. Norm  Remark
------------------------------------
                       Guess.
    1     4.278e+00  
    2     5.737e+00  
    3     1.077e+00  
    4     2.749e-01  
    5     6.948e-02  
    6     2.933e-02  
    7     8.849e-03  
    8     1.648e-03  
    9     6.122e-04  
   10     1.020e-04  
   11     3.302e-05  
   12     5.007e-06  
   13     1.713e-06  
   14     5.049e-07  Converged.
   ... Converged in 14 steps (norm: 5.04943e-07)
------------------------------------
  Starting TPA DIIS iterations ... 
------------------------------------ 
   It     Res. Norm  Remark
------------------------------------
                       Guess.
    1     6.971e-01  
    2     4.960e-01  
    3     1.778e-01  
    4     6.685e-02  
    5     1.937e-02  
    6     7.108e-03  
    7     1.158e-03  
    8     5.136e-04  
    9     1.514e-04  
   10     2.630e-05  
   11     9.661e-06  
   12     3.137e-06  
   13     2.227e-06  
   14     9.725e-07  Converged.
   ... Converged in 14 steps (norm: 9.72484e-07)
------------------------------------
  Starting TPA DIIS iterations ... 
------------------------------------ 
   It     Res. Norm  Remark
------------------------------------
                       Guess.
    1     4.709e+00  
    2     6.381e+00  
    3     1.168e+00  
    4     2.858e-01  
    5     7.397e-02  
    6     3.060e-02  
    7     9.482e-03  
    8     1.672e-03  
    9     6.321e-04  
   10     1.065e-04  
   11     3.393e-05  
   12     5.322e-06  
   13     1.769e-06  
   14     5.421e-07  Converged.
   ... Converged in 14 steps (norm: 5.4209e-07)
------------------------------------
  Starting TPA DIIS iterations ... 
------------------------------------ 
   It     Res. Norm  Remark
------------------------------------
                       Guess.
    1     4.411e+00  
    2     5.977e+00  
    3     1.115e+00  
    4     2.893e-01  
    5     7.363e-02  
    6     3.123e-02  
    7     9.412e-03  
    8     1.752e-03  
    9     6.529e-04  
   10     1.091e-04  
   11     3.547e-05  
   12     5.400e-06  
   13     1.854e-06  
   14     5.474e-07  Converged.
   ... Converged in 14 steps (norm: 5.47392e-07)
------------------------------------
  Starting TPA DIIS iterations ... 
------------------------------------ 
   It     Res. Norm  Remark
------------------------------------
                       Guess.
    1     7.030e-01  
    2     5.046e-01  
    3     1.827e-01  
    4     7.102e-02  
    5     2.008e-02  
    6     7.429e-03  
    7     1.230e-03  
    8     5.556e-04  
    9     1.649e-04  
   10     2.734e-05  
   11     1.041e-05  
   12     3.419e-06  
   13     2.481e-06  
   14     1.095e-06  
   15     4.286e-07  Converged.
   ... Converged in 15 steps (norm: 4.28569e-07)
------------------------------------
  Starting TPA DIIS iterations ... 
------------------------------------ 
   It     Res. Norm  Remark
------------------------------------
                       Guess.
    1     5.390e+00  
    2     7.642e+00  
    3     1.360e+00  
    4     3.584e-01  
    5     9.506e-02  
    6     4.004e-02  
    7     1.234e-02  
    8     2.169e-03  
    9     8.336e-04  
   10     1.419e-04  
   11     4.625e-05  
   12     7.373e-06  
   13     2.495e-06  
   14     7.670e-07  Converged.
   ... Converged in 14 steps (norm: 7.66998e-07)
------------------------------------
  Starting TPA DIIS iterations ... 
------------------------------------ 
   It     Res. Norm  Remark
------------------------------------
                       Guess.
    1     5.047e+00  
    2     7.158e+00  
    3     1.298e+00  
    4     3.621e-01  
    5     9.468e-02  
    6     4.099e-02  
    7     1.227e-02  
    8     2.279e-03  
    9     8.611e-04  
   10     1.454e-04  
   11     4.823e-05  
   12     7.455e-06  
   13     2.613e-06  
   14     7.760e-07  Converged.
   ... Converged in 14 steps (norm: 7.75997e-07)
------------------------------------
  Starting TPA DIIS iterations ... 
------------------------------------ 
   It     Res. Norm  Remark
------------------------------------
                       Guess.
    1     7.287e-01  
    2     5.438e-01  
    3     2.058e-01  
    4     9.276e-02  
    5     2.344e-02  
    6     9.065e-03  
    7     1.607e-03  
    8     7.729e-04  
    9     2.339e-04  
   10     3.076e-05  
   11     1.446e-05  
   12     5.008e-06  
   13     3.928e-06  
   14     1.828e-06  
   15     6.755e-07  Converged.
   ... Converged in 15 steps (norm: 6.75502e-07)
------------------------------------
  Starting TPA DIIS iterations ... 
------------------------------------ 
   It     Res. Norm  Remark
------------------------------------
                       Guess.
    1     5.936e+00  
    2     8.687e+00  
    3     1.513e+00  
    4     4.211e-01  
    5     1.132e-01  
    6     4.829e-02  
    7     1.481e-02  
    8     2.596e-03  
    9     1.010e-03  
   10     1.729e-04  
   11     5.727e-05  
   12     9.215e-06  
   13     3.163e-06  
   14     9.774e-07  Converged.
   ... Converged in 14 steps (norm: 9.77383e-07)
------------------------------------
  Starting TPA DIIS iterations ... 
------------------------------------ 
   It     Res. Norm  Remark
------------------------------------
                       Guess.
    1     5.556e+00  
    2     8.136e+00  
    3     1.443e+00  
    4     4.250e-01  
    5     1.128e-01  
    6     4.953e-02  
    7     1.474e-02  
    8     2.733e-03  
    9     1.043e-03  
   10     1.772e-04  
   11     5.958e-05  
   12     9.292e-06  
   13     3.307e-06  
   14     9.915e-07  Converged.
   ... Converged in 14 steps (norm: 9.91528e-07)
------------------------------------
  Starting TPA DIIS iterations ... 
------------------------------------ 
   It     Res. Norm  Remark
------------------------------------
                       Guess.
    1     7.468e-01  
    2     5.731e-01  
    3     2.236e-01  
    4     1.122e-01  
    5     2.617e-02  
    6     1.049e-02  
    7     1.950e-03  
    8     9.543e-04  
    9     2.912e-04  
   10     3.333e-05  
   11     1.828e-05  
   12     6.594e-06  
   13     5.363e-06  
   14     2.590e-06  
   15     9.243e-07  Converged.
   ... Converged in 15 steps (norm: 9.24261e-07)
------------------------------------
  Starting TPA DIIS iterations ... 
------------------------------------ 
   It     Res. Norm  Remark
------------------------------------
                       Guess.
    1     6.438e+00  
    2     9.674e+00  
    3     1.653e+00  
    4     4.820e-01  
    5     1.309e-01  
    6     5.638e-02  
    7     1.721e-02  
    8     3.010e-03  
    9     1.182e-03  
   10     2.033e-04  
   11     6.821e-05  
   12     1.105e-05  
   13     3.838e-06  
   14     1.197e-06  
   15     3.892e-07  Converged.
   ... Converged in 15 steps (norm: 3.89155e-07)
------------------------------------
  Starting TPA DIIS iterations ... 
------------------------------------ 
   It     Res. Norm  Remark
------------------------------------
                       Guess.
    1     6.025e+00  
    2     9.059e+00  
    3     1.576e+00  
    4     4.859e-01  
    5     1.305e-01  
    6     5.792e-02  
    7     1.715e-02  
    8     3.172e-03  
    9     1.220e-03  
   10     2.083e-04  
   11     7.078e-05  
   12     1.111e-05  
   13     4.004e-06  
   14     1.218e-06  
   15     4.259e-07  Converged.
   ... Converged in 15 steps (norm: 4.25878e-07)
------------------------------------
  Starting TPA DIIS iterations ... 
------------------------------------ 
   It     Res. Norm  Remark
------------------------------------
                       Guess.
    1     7.619e-01  
    2     5.987e-01  
    3     2.396e-01  
    4     1.314e-01  
    5     2.875e-02  
    6     1.187e-02  
    7     2.296e-03  
    8     1.115e-03  
    9     3.434e-04  
   10     3.704e-05  
   11     2.226e-05  
   12     8.326e-06  
   13     6.890e-06  
   14     3.426e-06  
   15     1.215e-06  
   16     5.305e-07  Converged.
   ... Converged in 16 steps (norm: 5.30513e-07)
------------------------------------
  Starting TPA DIIS iterations ... 
------------------------------------ 
   It     Res. Norm  Remark
------------------------------------
                       Guess.
    1     8.230e+00  
    2     1.338e+01  
    3     2.145e+00  
    4     7.211e-01  
    5     2.002e-01  
    6     8.875e-02  
    7     2.665e-02  
    8     4.628e-03  
    9     1.871e-03  
   10     3.244e-04  
   11     1.120e-04  
   12     1.850e-05  
   13     6.595e-06  
   14     2.217e-06  
   15     7.031e-07  Converged.
   ... Converged in 15 steps (norm: 7.03146e-07)
------------------------------------
  Starting TPA DIIS iterations ... 
------------------------------------ 
   It     Res. Norm  Remark
------------------------------------
                       Guess.
    1     7.699e+00  
    2     1.253e+01  
    3     2.042e+00  
    4     7.249e-01  
    5     1.998e-01  
    6     9.160e-02  
    7     2.660e-02  
    8     4.894e-03  
    9     1.928e-03  
   10     3.322e-04  
   11     1.151e-04  
   12     1.849e-05  
   13     6.809e-06  
   14     2.272e-06  
   15     8.135e-07  Converged.
   ... Converged in 15 steps (norm: 8.1347e-07)
------------------------------------
  Starting TPA DIIS iterations ... 
------------------------------------ 
   It     Res. Norm  Remark
------------------------------------
                       Guess.
    1     8.067e-01  
    2     6.814e-01  
    3     2.936e-01  
    4     2.078e-01  
    5     3.862e-02  
    6     1.731e-02  
    7     3.746e-03  
    8     1.566e-03  
    9     5.205e-04  
   10     6.334e-05  
   11     4.021e-05  
   12     1.687e-05  
   13     1.360e-05  
   14     7.383e-06  
   15     2.871e-06  
   16     1.300e-06  
   17     3.124e-07  Converged.
   ... Converged in 17 steps (norm: 3.12427e-07)
------------------------------------
  Starting TPA DIIS iterations ... 
------------------------------------ 
   It     Res. Norm  Remark
------------------------------------
                       Guess.
    1     1.016e+01  
    2     1.766e+01  
    3     2.662e+00  
    4     1.008e+00  
    5     2.841e-01  
    6     1.289e-01  
    7     3.808e-02  
    8     6.577e-03  
    9     2.723e-03  
   10     4.731e-04  
   11     1.641e-04  
   12     2.791e-05  
   13     9.902e-06  
   14     3.791e-06  
   15     1.164e-06  
   16     7.424e-07  Converged.
   ... Converged in 16 steps (norm: 7.424e-07)
------------------------------------
  Starting TPA DIIS iterations ... 
------------------------------------ 
   It     Res. Norm  Remark
------------------------------------
                       Guess.
    1     9.503e+00  
    2     1.653e+01  
    3     2.532e+00  
    4     1.011e+00  
    5     2.839e-01  
    6     1.335e-01  
    7     3.807e-02  
    8     6.966e-03  
    9     2.800e-03  
   10     4.837e-04  
   11     1.669e-04  
   12     2.783e-05  
   13     1.016e-05  
   14     3.877e-06  
   15     1.424e-06  
   16     7.967e-07  Converged.
   ... Converged in 16 steps (norm: 7.96662e-07)
------------------------------------
  Starting TPA DIIS iterations ... 
------------------------------------ 
   It     Res. Norm  Remark
------------------------------------
                       Guess.
    1     8.444e-01  
    2     7.598e-01  
    3     3.476e-01  
    4     2.956e-01  
    5     5.021e-02  
    6     2.356e-02  
    7     5.575e-03  
    8     1.814e-03  
    9     6.968e-04  
   10     1.035e-04  
   11     6.567e-05  
   12     3.051e-05  
   13     2.160e-05  
   14     1.281e-05  
   15     5.771e-06  
   16     2.681e-06  
   17     8.038e-07  Converged.
   ... Converged in 17 steps (norm: 8.03762e-07)
------------------------------------
  Starting TPA DIIS iterations ... 
------------------------------------ 
   It     Res. Norm  Remark
------------------------------------
                       Guess.
    1     1.105e+01  
    2     1.972e+01  
    3     2.896e+00  
    4     1.149e+00  
    5     3.257e-01  
    6     1.490e-01  
    7     4.373e-02  
    8     7.539e-03  
    9     3.149e-03  
   10     5.470e-04  
   11     1.891e-04  
   12     3.276e-05  
   13     1.154e-05  
   14     4.693e-06  
   15     1.458e-06  
   16     1.007e-06  
   17     3.812e-07  Converged.
   ... Converged in 17 steps (norm: 3.81162e-07)
------------------------------------
  Starting TPA DIIS iterations ... 
------------------------------------ 
   It     Res. Norm  Remark
------------------------------------
                       Guess.
    1     1.034e+01  
    2     1.847e+01  
    3     2.754e+00  
    4     1.151e+00  
    5     3.255e-01  
    6     1.545e-01  
    7     4.375e-02  
    8     7.989e-03  
    9     3.235e-03  
   10     5.589e-04  
   11     1.916e-04  
   12     3.269e-05  
   13     1.186e-05  
   14     4.786e-06  
   15     1.808e-06  
   16     1.058e-06  
   17     2.407e-07  Converged.
   ... Converged in 17 steps (norm: 2.4072e-07)
------------------------------------
  Starting TPA DIIS iterations ... 
------------------------------------ 
   It     Res. Norm  Remark
------------------------------------
                       Guess.
    1     8.592e-01  
    2     7.933e-01  
    3     3.713e-01  
    4     3.353e-01  
    5     5.582e-02  
    6     2.644e-02  
    7     6.478e-03  
    8     1.878e-03  
    9     7.753e-04  
   10     1.236e-04  
   11     7.941e-05  
   12     3.841e-05  
   13     2.533e-05  
   14     1.521e-05  
   15     7.540e-06  
   16     3.562e-06  
   17     1.188e-06  
   18     4.916e-07  Converged.
   ... Converged in 18 steps (norm: 4.91565e-07)
------------------------------------
  Starting TPA DIIS iterations ... 
------------------------------------ 
   It     Res. Norm  Remark
------------------------------------
                       Guess.
    1     1.156e+01  
    2     2.092e+01  
    3     3.028e+00  
    4     1.231e+00  
    5     3.499e-01  
    6     1.609e-01  
    7     4.704e-02  
    8     8.100e-03  
    9     3.400e-03  
   10     5.902e-04  
   11     2.035e-04  
   12     3.567e-05  
   13     1.251e-05  
   14     5.254e-06  
   15     1.657e-06  
   16     1.183e-06  
   17     4.462e-07  Converged.
   ... Converged in 17 steps (norm: 4.46222e-07)
------------------------------------
  Starting TPA DIIS iterations ... 
------------------------------------ 
   It     Res. Norm  Remark
------------------------------------
                       Guess.
    1     1.081e+01  
    2     1.959e+01  
    3     2.879e+00  
    4     1.232e+00  
    5     3.498e-01  
    6     1.669e-01  
    7     4.707e-02  
    8     8.586e-03  
    9     3.491e-03  
   10     6.029e-04  
   11     2.058e-04  
   12     3.562e-05  
   13     1.289e-05  
   14     5.350e-06  
   15     2.062e-06  
   16     1.227e-06  
   17     2.766e-07  Converged.
   ... Converged in 17 steps (norm: 2.76557e-07)
------------------------------------
  Starting TPA DIIS iterations ... 
------------------------------------ 
   It     Res. Norm  Remark
------------------------------------
                       Guess.
    1     8.671e-01  
    2     8.118e-01  
    3     3.845e-01  
    4     3.572e-01  
    5     5.905e-02  
    6     2.804e-02  
    7     7.002e-03  
    8     1.908e-03  
    9     8.193e-04  
   10     1.352e-04  
   11     8.773e-05  
   12     4.335e-05  
   13     2.755e-05  
   14     1.628e-05  
   15     8.690e-06  
   16     4.124e-06  
   17     1.438e-06  
   18     5.543e-07  Converged.
   ... Converged in 18 steps (norm: 5.54296e-07)
------------------------------------
  Two-photon absorbption ...  CPU 69.30 s  wall 17.86 s
  Transition density matrix of state singlet_A_1 printed to ASCII file 'State_singlet_A_1_Transition.txt'
  Transition density matrix of state singlet_A_2 printed to ASCII file 'State_singlet_A_2_Transition.txt'
  Transition density matrix of state singlet_A_3 printed to ASCII file 'State_singlet_A_3_Transition.txt'
  Transition density matrix of state singlet_A_4 printed to ASCII file 'State_singlet_A_4_Transition.txt'
  Transition density matrix of state singlet_A_5 printed to ASCII file 'State_singlet_A_5_Transition.txt'
  Transition density matrix of state singlet_A_6 printed to ASCII file 'State_singlet_A_6_Transition.txt'
  Transition density matrix of state singlet_A_7 printed to ASCII file 'State_singlet_A_7_Transition.txt'
  Transition density matrix of state singlet_A_8 printed to ASCII file 'State_singlet_A_8_Transition.txt'
  Transition density matrix of state singlet_A_9 printed to ASCII file 'State_singlet_A_9_Transition.txt'
  Transition density matrix of state singlet_A_10 printed to ASCII file 'State_singlet_A_10_Transition.txt'
  Transition properties ...  CPU 0.16 s  wall 0.41 s
  Difference density matrix of state singlet_A_1 printed to ASCII file 'State_singlet_A_1_Difference.txt'
  Total density matrix of state singlet_A_1 printed to ASCII file 'State_singlet_A_1_Total.txt'
  Difference density matrix of state singlet_A_2 printed to ASCII file 'State_singlet_A_2_Difference.txt'
  Total density matrix of state singlet_A_2 printed to ASCII file 'State_singlet_A_2_Total.txt'
  Difference density matrix of state singlet_A_3 printed to ASCII file 'State_singlet_A_3_Difference.txt'
  Total density matrix of state singlet_A_3 printed to ASCII file 'State_singlet_A_3_Total.txt'
  Difference density matrix of state singlet_A_4 printed to ASCII file 'State_singlet_A_4_Difference.txt'
  Total density matrix of state singlet_A_4 printed to ASCII file 'State_singlet_A_4_Total.txt'
  Difference density matrix of state singlet_A_5 printed to ASCII file 'State_singlet_A_5_Difference.txt'
  Total density matrix of state singlet_A_5 printed to ASCII file 'State_singlet_A_5_Total.txt'
  Difference density matrix of state singlet_A_6 printed to ASCII file 'State_singlet_A_6_Difference.txt'
  Total density matrix of state singlet_A_6 printed to ASCII file 'State_singlet_A_6_Total.txt'
  Difference density matrix of state singlet_A_7 printed to ASCII file 'State_singlet_A_7_Difference.txt'
  Total density matrix of state singlet_A_7 printed to ASCII file 'State_singlet_A_7_Total.txt'
  Difference density matrix of state singlet_A_8 printed to ASCII file 'State_singlet_A_8_Difference.txt'
  Total density matrix of state singlet_A_8 printed to ASCII file 'State_singlet_A_8_Total.txt'
  Difference density matrix of state singlet_A_9 printed to ASCII file 'State_singlet_A_9_Difference.txt'
  Total density matrix of state singlet_A_9 printed to ASCII file 'State_singlet_A_9_Total.txt'
  Difference density matrix of state singlet_A_10 printed to ASCII file 'State_singlet_A_10_Difference.txt'
  Total density matrix of state singlet_A_10 printed to ASCII file 'State_singlet_A_10_Total.txt'
  Properties ...  CPU 0.30 s  wall 0.71 s
  ISR TDMS ...  CPU 8.83 s  wall 3.14 s
  ISR transition properties ...  CPU 0.17 s  wall 0.08 s
  Sum-over-states TPA ...  CPU 0.00 s  wall 0.00 s

--------------------------------------------------------------------------------
                   State-averaged natural transition orbitals
--------------------------------------------------------------------------------
--------------------------------------------------------------------------------
  SA-NTO decomposition ...  CPU 0.01 s  wall 0.02 s

--------------------------------------------------------------------------------
                             Excited State Summary
--------------------------------------------------------------------------------
--------------------------------------------------------------------------------

  Excited state 1 (singlet, A)                                     [converged]
  ----------------------------------------------------------------------------
  Term symbol:  2 (1) A                                     R^2 =  8.24129e-14

  Total energy:                                            -77.9961261706 a.u.
  Excitation energy:                                               8.797118 eV

  Osc. strength:                                                      0.448633
  Trans. dip. moment [a.u.]:           [   1.047282,   -0.992313,   -0.009818]
  <i|r^2|0> [a.u.]:                    [   6.171165,   -0.255464,    0.000060]
  Two-photon absorption cross-section (SoS) [a.u.]:                   0.003066
  Two-photon absorption matrix (SoS) [a.u.]:
                                       |    0.005301    0.006884    0.000214 |
                                       |    0.006884    0.018564    0.001131 |
                                       |    0.000214    0.001131    0.000475 |
  Two-photon absorption cross-section [a.u.]:                         0.001301
  Two-photon absorption matrix [a.u.]:
                                       |   -0.013542    0.000238    0.000845 |
                                       |    0.000238    0.000400    0.002270 |
                                       |    0.000845    0.002270   -0.002563 |

  Dip. moment [a.u.]:                  [  -0.001240,   -0.000470,    0.000060]
  Total dipole [Debye]:                                               0.003374
  <r^2> [a.u.]:                        [ 176.111970,   35.504147,   11.868245]
  Total <r^2> [a.u.]:                                               223.484362

  V1^2 = 0.9714, V2^2 = 0.0286

  Important amplitudes:
      occ i     occ j     vir a      vir b          v   
    -----------------------------------------------------
     8 (A) A              9 (A) A                 0.6811
     4 (A) A             10 (A) A                 0.0612
     6 (A) A             14 (A) A                 0.0609
     7 (A) A             16 (A) A                 0.0574
     5 (A) A             13 (A) A                -0.0518
     6 (A) A             23 (A) A                 0.0483
     8 (A) A             20 (A) A                 0.0347
     6 (A) A             19 (A) A                -0.0295
     3 (A) A             12 (A) A                -0.0280
     5 (A) A             22 (A) A                -0.0217
     7 (A) A             11 (A) A                -0.0202
     4 (A) A             24 (A) A                 0.0189
     3 (A) A             26 (A) A                 0.0186
     8 (A) A   8 (A) B   17 (A) A   20 (A) B     -0.0183
     8 (A) A   8 (A) B    9 (A) A   28 (A) B     -0.0168
     6 (A) A             26 (A) A                -0.0165
     7 (A) A             21 (A) A                 0.0149
     6 (A) A             12 (A) A                -0.0145
     3 (A) A             14 (A) A                -0.0138
     3 (A) A   4 (A) B    9 (A) A    9 (A) B     -0.0129
     3 (A) A             19 (A) A                 0.0117
     8 (A) A   8 (A) B   18 (A) A   19 (A) B     -0.0112
     7 (A) A             32 (A) A                 0.0095
     7 (A) A             36 (A) A                 0.0086
     3 (A) A             23 (A) A                -0.0080
     8 (A) A   8 (A) B   25 (A) A   29 (A) B      0.0076
     6 (A) A             35 (A) A                 0.0069
     6 (A) A             40 (A) A                 0.0068
     3 (A) A   6 (A) B    9 (A) A   28 (A) B      0.0065
     5 (A) A   8 (A) B   11 (A) A    9 (A) B     -0.0060
     5 (A) A   7 (A) B    9 (A) A    9 (A) B     -0.0060
     6 (A) A   8 (A) A   19 (A) A   28 (A) A     -0.0060
     5 (A) A   8 (A) B   16 (A) A    9 (A) B     -0.0060
     5 (A) A   8 (A) B   11 (A) A   20 (A) B      0.0060
     7 (A) A   8 (A) B   13 (A) A   20 (A) B      0.0060
     3 (A) A   5 (A) B    9 (A) A   25 (A) B     -0.0058
     3 (A) A             40 (A) A                -0.0057
     7 (A) A   8 (A) B   22 (A) A   20 (A) B      0.0057
     6 (A) A   8 (A) A    9 (A) A   18 (A) A      0.0056
     8 (A) A   8 (A) B   19 (A) A   30 (A) B     -0.0055
    -----------------------------------------------------

  Density matrix analysis:
  ------------------------
  NOs
    Occupation of frontier NOs:
       0.9496   1.0217
    Number of electrons: 16.000000
    Number of unpaired electrons: n_u =  2.31317, n_u,nl =  2.03245
    NO participation ratio (PR_NO):  2.863350
  
  
  Mulliken Population Analysis
  Atom      Charge (e)              h+              e-           Del q
  --------------------------------------------------------------------
   1 H        0.058954        0.020629       -0.012527        0.008102
   2 C       -0.113060        0.491420       -0.506923       -0.015503
   3 H        0.057522        0.020374       -0.012679        0.007695
   4 C       -0.120465        0.491104       -0.507513       -0.016408
   5 H        0.059089        0.020509       -0.012568        0.007941
   6 H        0.057959        0.020642       -0.012469        0.008173
  --------------------------------------------------------------------
  Sum:       -0.000000        1.064677       -1.064677        0.000000
  
  Multipole moment analysis of the density matrix
    Molecular charge:                      -0.000000
    Number of electrons:                   16.000000
      Center of electronic charge [Ang]: [ -1.560535,  -0.069337,   0.001976]
    Total nuclear charge:                  16.000000
      Center of nuclear charge [Ang]:    [ -1.560576,  -0.069352,   0.001978]
    Dipole moment [D]:                     0.003374
      Cartesian components [D]:          [ -0.003151,  -0.001195,   0.000153]
    RMS size of the density [Ang]:         1.212969
      Cartesian components [Ang]:        [  0.804365,   0.785225,   0.455754]
  
  Exciton analysis of the difference density matrix
    <r_h> [Ang]:                  [ -1.560155,  -0.070352,   0.001862]
    <r_e> [Ang]:                  [ -1.560368,  -0.070319,   0.001843]
    |<r_e - r_h>| [Ang]:            0.000216
    Hole size [Ang]:                1.284570
      Cartesian components [Ang]: [  0.729209,   0.711074,   0.782782]
    Electron size [Ang]:            1.463480
      Cartesian components [Ang]: [  0.856163,   0.827982,   0.850415]

  Transition density matrix analysis:
  -----------------------------------
  
  CT numbers (Mulliken)
    omega =     0.9535
    <Phe> =    -0.1589
  
  Exciton analysis of the transition density matrix
    Trans. dipole moment [D]:             1.833575
      Cartesian components [D]:         [  1.330962,  -1.261103,  -0.012477]
    <r_h> [Ang]:                        [ -1.559856,  -0.070898,   0.001862]
    <r_e> [Ang]:                        [ -1.560381,  -0.070222,   0.001841]
    |<r_e - r_h>| [Ang]:                  0.000856
    Hole size [Ang]:                      1.211537
      Cartesian components [Ang]:       [  0.648808,   0.633425,   0.803520]
    Electron size [Ang]:                  1.487214
      Cartesian components [Ang]:       [  0.867135,   0.837203,   0.871190]
    RMS electron-hole separation [Ang]:   1.934788
      Cartesian components [Ang]:       [  1.108090,   1.069942,   1.170798]
    Covariance(r_h, r_e) [Ang^2]:        -0.031888
    Correlation coefficient:             -0.017698
    Center-of-mass size [Ang]:            0.950770
      Cartesian components [Ang]:       [  0.528651,   0.514660,   0.599680]

  Decomposition into state-averaged NTOs
    H- 0 -> L+ 0: -0.6700 ( 89.8%)
    H- 2 -> L+ 5: -0.0822 (  1.4%)
                   omega =  95.3%
  ----------------------------------------------------------------------------


  Excited state 2 (singlet, A)                                     [converged]
  ----------------------------------------------------------------------------
  Term symbol:  3 (1) A                                     R^2 =  2.02481e-13

  Total energy:                                            -77.9869359643 a.u.
  Excitation energy:                                               9.047196 eV

  Osc. strength:                                                      0.000048
  Trans. dip. moment [a.u.]:           [   0.004699,   -0.003164,   -0.013606]
  <i|r^2|0> [a.u.]:                    [  -0.032257,   -0.091869,    0.151118]
  Two-photon absorption cross-section (SoS) [a.u.]:                   4.667641
  Two-photon absorption matrix (SoS) [a.u.]:
                                       |   -0.047868   -0.057062    0.515935 |
                                       |   -0.057062   -0.067310    0.551336 |
                                       |    0.515935    0.551336    0.115132 |
  Two-photon absorption cross-section [a.u.]:                         0.109474
  Two-photon absorption matrix [a.u.]:
                                       |    0.006018    0.007415   -0.034767 |
                                       |    0.007415    0.010483   -0.110502 |
                                       |   -0.034767   -0.110502   -0.016532 |

  Dip. moment [a.u.]:                  [  -0.034707,    0.008695,   -0.000828]
  Total dipole [Debye]:                                               0.090967
  <r^2> [a.u.]:                        [ 174.437826,   33.713111,   13.166549]
  Total <r^2> [a.u.]:                                               221.317486

  V1^2 = 0.9545, V2^2 = 0.0455

  Important amplitudes:
      occ i     occ j     vir a      vir b          v   
    -----------------------------------------------------
     7 (A) A              9 (A) A                 0.6690
     8 (A) A             11 (A) A                -0.1471
     7 (A) A             20 (A) A                 0.0760
     5 (A) A   8 (A) B    9 (A) A    9 (A) B     -0.0313
     8 (A) A             16 (A) A                -0.0273
     8 (A) A             10 (A) A                 0.0253
     8 (A) A             21 (A) A                 0.0174
     5 (A) A             28 (A) A                -0.0150
     4 (A) A   7 (A) B    9 (A) A   19 (A) B     -0.0135
     5 (A) A   7 (A) B    9 (A) A   16 (A) B      0.0133
     7 (A) A   8 (A) B   20 (A) A   17 (A) B     -0.0105
     7 (A) A   8 (A) A    9 (A) A   28 (A) A      0.0097
     5 (A) A   8 (A) B    9 (A) A   20 (A) B     -0.0095
     4 (A) A   6 (A) B    9 (A) A   16 (A) B      0.0091
     5 (A) A   6 (A) A    9 (A) A   23 (A) A      0.0090
     5 (A) A   6 (A) A    9 (A) A   14 (A) A      0.0087
     8 (A) A   7 (A) B    9 (A) A   28 (A) B     -0.0085
     5 (A) A   6 (A) B    9 (A) A   19 (A) B     -0.0084
     4 (A) A   5 (A) A    9 (A) A   10 (A) A     -0.0084
     6 (A) A   7 (A) B    9 (A) A   18 (A) B      0.0084
     5 (A) A   6 (A) B    9 (A) A   23 (A) B      0.0080
     3 (A) A   7 (A) B    9 (A) A   18 (A) B      0.0079
     5 (A) A   7 (A) A    9 (A) A   16 (A) A      0.0079
     4 (A) A   8 (A) B    9 (A) A   25 (A) B     -0.0076
     6 (A) A              9 (A) A                 0.0075
     4 (A) A   7 (A) B   19 (A) A    9 (A) B     -0.0074
     7 (A) A   8 (A) B   17 (A) A   20 (A) B     -0.0074
     5 (A) A   5 (A) B    9 (A) A   13 (A) B     -0.0072
     7 (A) A   8 (A) B   19 (A) A   18 (A) B     -0.0071
     5 (A) A   8 (A) A    9 (A) A   20 (A) A     -0.0069
     4 (A) A   5 (A) B    9 (A) A   18 (A) B      0.0068
     8 (A) A             12 (A) A                -0.0066
     7 (A) A   7 (A) B   20 (A) A   22 (A) B      0.0065
     7 (A) A   8 (A) B   17 (A) A    9 (A) B     -0.0063
     4 (A) A   7 (A) A    9 (A) A   19 (A) A     -0.0061
     5 (A) A   6 (A) B    9 (A) A   14 (A) B      0.0061
     4 (A) A   5 (A) B   10 (A) A    9 (A) B      0.0061
     5 (A) A   7 (A) B   11 (A) A   20 (A) B      0.0061
     4 (A) A   7 (A) B    9 (A) A   14 (A) B     -0.0060
     5 (A) A             38 (A) A                -0.0058
    -----------------------------------------------------

  Density matrix analysis:
  ------------------------
  NOs
    Occupation of frontier NOs:
       0.9571   1.0541
    Number of electrons: 16.000000
    Number of unpaired electrons: n_u =  2.35443, n_u,nl =  2.06293
    NO participation ratio (PR_NO):  3.028916
  
  
  Mulliken Population Analysis
  Atom      Charge (e)              h+              e-           Del q
  --------------------------------------------------------------------
   1 H        0.139090        0.116216       -0.027978        0.088238
   2 C       -0.299388        0.267671       -0.469502       -0.201831
   3 H        0.157475        0.128730       -0.021083        0.107647
   4 C       -0.304488        0.276123       -0.476554       -0.200431
   5 H        0.159016        0.137330       -0.029462        0.107868
   6 H        0.148295        0.117989       -0.019480        0.098509
  --------------------------------------------------------------------
  Sum:       -0.000000        1.044059       -1.044059       -0.000000
  
  Multipole moment analysis of the density matrix
    Molecular charge:                      -0.000000
    Number of electrons:                   16.000000
      Center of electronic charge [Ang]: [ -1.559428,  -0.069640,   0.002006]
    Total nuclear charge:                  16.000000
      Center of nuclear charge [Ang]:    [ -1.560576,  -0.069352,   0.001978]
    Dipole moment [D]:                     0.090967
      Cartesian components [D]:          [ -0.088217,   0.022099,  -0.002104]
    RMS size of the density [Ang]:         1.198658
      Cartesian components [Ang]:        [  0.788135,   0.764977,   0.480035]
  
  Exciton analysis of the difference density matrix
    <r_h> [Ang]:                  [ -1.568873,  -0.050847,   0.002720]
    <r_e> [Ang]:                  [ -1.552127,  -0.055459,   0.003151]
    |<r_e - r_h>| [Ang]:            0.017375
    Hole size [Ang]:                1.486549
      Cartesian components [Ang]: [  0.982760,   1.018269,   0.455124]
    Electron size [Ang]:            1.477313
      Cartesian components [Ang]: [  0.880328,   0.859931,   0.817309]

  Transition density matrix analysis:
  -----------------------------------
  
  CT numbers (Mulliken)
    omega =     0.9223
    <Phe> =    -0.0120
  
  Exciton analysis of the transition density matrix
    Trans. dipole moment [D]:             0.018731
      Cartesian components [D]:         [  0.005972,  -0.004021,  -0.017292]
    <r_h> [Ang]:                        [ -1.570909,  -0.048577,   0.002769]
    <r_e> [Ang]:                        [ -1.549938,  -0.056617,   0.003163]
    |<r_e - r_h>| [Ang]:                  0.022463
    Hole size [Ang]:                      1.515069
      Cartesian components [Ang]:       [  1.003298,   1.044477,   0.444855]
    Electron size [Ang]:                  1.474407
      Cartesian components [Ang]:       [  0.871421,   0.848784,   0.833108]
    RMS electron-hole separation [Ang]:   2.094455
      Cartesian components [Ang]:       [  1.313113,   1.331139,   0.943687]
    Covariance(r_h, r_e) [Ang^2]:         0.041537
    Correlation coefficient:              0.018595
    Center-of-mass size [Ang]:            1.066816
      Cartesian components [Ang]:       [  0.672335,   0.680233,   0.472595]

  Decomposition into state-averaged NTOs
    H- 1 -> L+ 0: -0.6615 ( 87.5%)
    H- 0 -> L+ 2: -0.1480 (  4.4%)
                   omega =  92.2%
  ----------------------------------------------------------------------------


  Excited state 3 (singlet, A)                                     [converged]
  ----------------------------------------------------------------------------
  Term symbol:  4 (1) A                                     R^2 =  1.52717e-13

  Total energy:                                            -77.9813329871 a.u.
  Excitation energy:                                               9.199661 eV

  Osc. strength:                                                      0.024915
  Trans. dip. moment [a.u.]:           [   0.015951,    0.019490,   -0.331523]
  <i|r^2|0> [a.u.]:                    [   0.097828,    0.006031,   -0.002374]
  Two-photon absorption cross-section (SoS) [a.u.]:                   0.012139
  Two-photon absorption matrix (SoS) [a.u.]:
                                       |    0.010153   -0.001917    0.014066 |
                                       |   -0.001917   -0.015672    0.033466 |
                                       |    0.014066    0.033466    0.006519 |
  Two-photon absorption cross-section [a.u.]:                         0.016471
  Two-photon absorption matrix [a.u.]:
                                       |    0.007621   -0.002444    0.012052 |
                                       |   -0.002444   -0.013074    0.042058 |
                                       |    0.012052    0.042058    0.006903 |

  Dip. moment [a.u.]:                  [  -0.035153,   -0.061405,   -0.005493]
  Total dipole [Debye]:                                               0.180383
  <r^2> [a.u.]:                        [ 180.603825,   40.471021,   11.024937]
  Total <r^2> [a.u.]:                                               232.099782

  V1^2 = 0.9586, V2^2 = 0.0414

  Important amplitudes:
      occ i     occ j     vir a      vir b          v   
    -----------------------------------------------------
     8 (A) A             10 (A) A                 0.6885
     8 (A) A             24 (A) A                 0.0507
     8 (A) A             18 (A) A                -0.0314
     7 (A) A              9 (A) A                -0.0266
     4 (A) A              9 (A) A                 0.0239
     8 (A) A   8 (A) B    9 (A) A   12 (A) B     -0.0218
     8 (A) A   8 (A) B   10 (A) A   17 (A) B      0.0174
     5 (A) A   8 (A) B   11 (A) A   10 (A) B     -0.0166
     8 (A) A             15 (A) A                 0.0164
     7 (A) A   8 (A) B   13 (A) A   10 (A) B     -0.0142
     4 (A) A   8 (A) B   12 (A) A   10 (A) B     -0.0111
     6 (A) A   8 (A) A   10 (A) A   15 (A) A      0.0111
     7 (A) A   8 (A) B   22 (A) A   10 (A) B     -0.0108
     6 (A) A   8 (A) B   15 (A) A   10 (A) B     -0.0108
     4 (A) A   8 (A) A   10 (A) A   12 (A) A      0.0107
     7 (A) A   8 (A) A   10 (A) A   22 (A) A      0.0099
     7 (A) A   8 (A) A   10 (A) A   13 (A) A      0.0098
     5 (A) A   8 (A) A   10 (A) A   11 (A) A      0.0095
     5 (A) A   8 (A) B   21 (A) A   10 (A) B      0.0094
     6 (A) A   8 (A) B   10 (A) A   10 (A) B      0.0088
     6 (A) A   8 (A) A   10 (A) A   18 (A) A      0.0086
     7 (A) A   8 (A) A   12 (A) A   16 (A) A     -0.0082
     5 (A) A   8 (A) A   10 (A) A   21 (A) A     -0.0080
     3 (A) A   4 (A) B   10 (A) A    9 (A) B     -0.0079
     4 (A) A   8 (A) B   19 (A) A   10 (A) B      0.0075
     8 (A) A   8 (A) B    9 (A) A   23 (A) B      0.0074
     8 (A) A   8 (A) B   10 (A) A   28 (A) B     -0.0073
     3 (A) A   8 (A) B   10 (A) A   10 (A) B      0.0072
     5 (A) A   8 (A) B   10 (A) A   11 (A) B     -0.0071
     3 (A) A   8 (A) A   10 (A) A   24 (A) A     -0.0071
     7 (A) A   8 (A) B   16 (A) A   12 (A) B      0.0071
     3 (A) A   8 (A) B   10 (A) A   18 (A) B     -0.0069
     8 (A) A   8 (A) B    9 (A) A   19 (A) B      0.0069
     6 (A) A   8 (A) B   18 (A) A   10 (A) B     -0.0066
     3 (A) A   6 (A) B   10 (A) A   28 (A) B      0.0062
     7 (A) A   8 (A) B   12 (A) A   11 (A) B      0.0058
     6 (A) A             28 (A) A                -0.0057
     5 (A) A   8 (A) A   10 (A) A   16 (A) A      0.0056
     3 (A) A   5 (A) B   10 (A) A   25 (A) B     -0.0056
     3 (A) A   8 (A) A   10 (A) A   18 (A) A     -0.0056
    -----------------------------------------------------

  Density matrix analysis:
  ------------------------
  NOs
    Occupation of frontier NOs:
       0.9830   0.9836
    Number of electrons: 16.000000
    Number of unpaired electrons: n_u =  2.28822, n_u,nl =  2.02503
    NO participation ratio (PR_NO):  2.698262
  
  
  Mulliken Population Analysis
  Atom      Charge (e)              h+              e-           Del q
  --------------------------------------------------------------------
   1 H       -0.167345        0.053701       -0.271898       -0.218197
   2 C        0.327692        0.536299       -0.111049        0.425249
   3 H       -0.155636        0.054622       -0.260086       -0.205464
   4 C        0.323003        0.537336       -0.110277        0.427060
   5 H       -0.171916        0.054123       -0.277187       -0.223064
   6 H       -0.155799        0.054512       -0.260097       -0.205584
  --------------------------------------------------------------------
  Sum:       -0.000000        1.290594       -1.290594        0.000000
  
  Multipole moment analysis of the density matrix
    Molecular charge:                      0.000000
    Number of electrons:                   16.000000
      Center of electronic charge [Ang]: [ -1.559414,  -0.067321,   0.002160]
    Total nuclear charge:                  16.000000
      Center of nuclear charge [Ang]:    [ -1.560576,  -0.069352,   0.001978]
    Dipole moment [D]:                     0.180383
      Cartesian components [D]:          [ -0.089350,  -0.156075,  -0.013961]
    RMS size of the density [Ang]:         1.275089
      Cartesian components [Ang]:        [  0.853884,   0.838918,   0.439262]
  
  Exciton analysis of the difference density matrix
    <r_h> [Ang]:                  [ -1.560765,  -0.068879,   0.001958]
    <r_e> [Ang]:                  [ -1.547036,  -0.043867,   0.004220]
    |<r_e - r_h>| [Ang]:            0.028622
    Hole size [Ang]:                1.409068
      Cartesian components [Ang]: [  0.834099,   0.818765,   0.787005]
    Electron size [Ang]:            2.075193
      Cartesian components [Ang]: [  1.370986,   1.378158,   0.726296]

  Transition density matrix analysis:
  -----------------------------------
  
  CT numbers (Mulliken)
    omega =     0.9260
    <Phe> =    -0.0109
  
  Exciton analysis of the transition density matrix
    Trans. dipole moment [D]:             0.422538
      Cartesian components [D]:         [  0.020272,   0.024769,  -0.421324]
    <r_h> [Ang]:                        [ -1.561133,  -0.072377,   0.001698]
    <r_e> [Ang]:                        [ -1.542276,  -0.035582,   0.004970]
    |<r_e - r_h>| [Ang]:                  0.041476
    Hole size [Ang]:                      1.210556
      Cartesian components [Ang]:       [  0.636390,   0.620926,   0.821526]
    Electron size [Ang]:                  2.294814
      Cartesian components [Ang]:       [  1.514334,   1.525802,   0.803050]
    RMS electron-hole separation [Ang]:   2.585040
      Cartesian components [Ang]:       [  1.635256,   1.640837,   1.147181]
    Covariance(r_h, r_e) [Ang^2]:         0.025453
    Correlation coefficient:              0.009162
    Center-of-mass size [Ang]:            1.302164
      Cartesian components [Ang]:       [  0.825030,   0.827081,   0.575234]

  Decomposition into state-averaged NTOs
    H- 0 -> L+ 1: -0.6787 ( 92.1%)
                   omega =  92.6%
  ----------------------------------------------------------------------------


  Excited state 4 (singlet, A)                                     [converged]
  ----------------------------------------------------------------------------
  Term symbol:  5 (1) A                                     R^2 =  7.19638e-14

  Total energy:                                            -77.9579509314 a.u.
  Excitation energy:                                               9.835919 eV

  Osc. strength:                                                      0.000038
  Trans. dip. moment [a.u.]:           [  -0.001864,    0.000505,    0.012448]
  <i|r^2|0> [a.u.]:                    [  -0.028730,   -0.017882,    0.035646]
  Two-photon absorption cross-section (SoS) [a.u.]:                 145.183336
  Two-photon absorption matrix (SoS) [a.u.]:
                                       |   -0.278023   -0.319464    2.952728 |
                                       |   -0.319464   -0.362591    3.002966 |
                                       |    2.952728    3.002966    0.640416 |
  Two-photon absorption cross-section [a.u.]:                        87.824000
  Two-photon absorption matrix [a.u.]:
                                       |   -0.211734   -0.248036    2.270614 |
                                       |   -0.248036   -0.287000    2.360692 |
                                       |    2.270614    2.360692    0.498644 |

  Dip. moment [a.u.]:                  [   0.074378,    0.071318,    0.007574]
  Total dipole [Debye]:                                               0.262621
  <r^2> [a.u.]:                        [ 181.538384,   40.557336,   10.751579]
  Total <r^2> [a.u.]:                                               232.847299

  V1^2 = 0.9635, V2^2 = 0.0365

  Important amplitudes:
      occ i     occ j     vir a      vir b          v   
    -----------------------------------------------------
     8 (A) A             11 (A) A                -0.6698
     7 (A) A              9 (A) A                -0.1489
     8 (A) A             21 (A) A                 0.0780
     8 (A) A             16 (A) A                -0.0653
     8 (A) A   8 (A) B    9 (A) A   13 (A) B     -0.0165
     5 (A) A   8 (A) B   11 (A) A   11 (A) B      0.0156
     8 (A) A   8 (A) B   11 (A) A   17 (A) B     -0.0140
     7 (A) A             20 (A) A                -0.0136
     7 (A) A   8 (A) B   13 (A) A   11 (A) B      0.0128
     8 (A) A             12 (A) A                -0.0115
     5 (A) A   8 (A) A   11 (A) A   21 (A) A      0.0110
     4 (A) A   8 (A) B   12 (A) A   11 (A) B      0.0110
     8 (A) A   8 (A) B    9 (A) A   22 (A) B     -0.0107
     6 (A) A              9 (A) A                -0.0106
     7 (A) A   8 (A) A   11 (A) A   22 (A) A     -0.0096
     8 (A) A             10 (A) A                -0.0093
     6 (A) A   8 (A) B   15 (A) A   11 (A) B      0.0090
     6 (A) A   8 (A) B   10 (A) A   11 (A) B     -0.0090
     7 (A) A   8 (A) B   22 (A) A   11 (A) B      0.0089
     3 (A) A   4 (A) B   11 (A) A    9 (A) B      0.0083
     3 (A) A   8 (A) B   11 (A) A   18 (A) B      0.0081
     6 (A) A   8 (A) A   11 (A) A   15 (A) A     -0.0081
     7 (A) A   8 (A) A   13 (A) A   16 (A) A     -0.0078
     7 (A) A   8 (A) A   11 (A) A   13 (A) A     -0.0076
     5 (A) A   8 (A) B   21 (A) A   11 (A) B     -0.0071
     4 (A) A   8 (A) B   19 (A) A   11 (A) B     -0.0070
     5 (A) A   8 (A) B    9 (A) A    9 (A) B      0.0066
     4 (A) A   8 (A) A   11 (A) A   12 (A) A     -0.0062
     6 (A) A   8 (A) A   11 (A) A   18 (A) A     -0.0061
     3 (A) A   6 (A) B   11 (A) A   28 (A) B     -0.0060
     6 (A) A   8 (A) B   18 (A) A   11 (A) B      0.0059
     7 (A) A   8 (A) B   16 (A) A   13 (A) B      0.0057
     3 (A) A   8 (A) A   11 (A) A   18 (A) A      0.0056
     3 (A) A   8 (A) B   11 (A) A   30 (A) B      0.0056
     5 (A) A   8 (A) B   10 (A) A   10 (A) B      0.0055
     3 (A) A   5 (A) B   11 (A) A   25 (A) B      0.0055
     7 (A) A   8 (A) B   12 (A) A   10 (A) B     -0.0054
     6 (A) A   8 (A) B   11 (A) A   10 (A) B     -0.0054
     8 (A) A   8 (A) B   20 (A) A   22 (A) B     -0.0053
     3 (A) A   8 (A) A   11 (A) A   24 (A) A      0.0052
    -----------------------------------------------------

  Density matrix analysis:
  ------------------------
  NOs
    Occupation of frontier NOs:
       0.9415   1.0272
    Number of electrons: 16.000000
    Number of unpaired electrons: n_u =  2.31861, n_u,nl =  2.04850
    NO participation ratio (PR_NO):  2.909210
  
  
  Mulliken Population Analysis
  Atom      Charge (e)              h+              e-           Del q
  --------------------------------------------------------------------
   1 H       -0.124267        0.045062       -0.220181       -0.175119
   2 C        0.277101        0.497132       -0.122473        0.374659
   3 H       -0.149982        0.047231       -0.247040       -0.199809
   4 C        0.268870        0.498087       -0.125160        0.372927
   5 H       -0.119425        0.047306       -0.217879       -0.170573
   6 H       -0.152298        0.045502       -0.247586       -0.202084
  --------------------------------------------------------------------
  Sum:       -0.000000        1.180319       -1.180319        0.000000
  
  Multipole moment analysis of the density matrix
    Molecular charge:                      -0.000000
    Number of electrons:                   16.000000
      Center of electronic charge [Ang]: [ -1.563036,  -0.071711,   0.001728]
    Total nuclear charge:                  16.000000
      Center of nuclear charge [Ang]:    [ -1.560576,  -0.069352,   0.001978]
    Dipole moment [D]:                     0.262621
      Cartesian components [D]:          [  0.189049,   0.181272,   0.019252]
    RMS size of the density [Ang]:         1.275545
      Cartesian components [Ang]:        [  0.856833,   0.839454,   0.433784]
  
  Exciton analysis of the difference density matrix
    <r_h> [Ang]:                  [ -1.563104,  -0.071282,   0.001700]
    <r_e> [Ang]:                  [ -1.597198,  -0.103437,  -0.001686]
    |<r_e - r_h>| [Ang]:            0.046987
    Hole size [Ang]:                1.392319
      Cartesian components [Ang]: [  0.815435,   0.806149,   0.789773]
    Electron size [Ang]:            2.119105
      Cartesian components [Ang]: [  1.423637,   1.416126,   0.677089]

  Transition density matrix analysis:
  -----------------------------------
  
  CT numbers (Mulliken)
    omega =     0.9300
    <Phe> =    -0.0137
  
  Exciton analysis of the transition density matrix
    Trans. dipole moment [D]:             0.016009
      Cartesian components [D]:         [ -0.002369,   0.000642,   0.015819]
    <r_h> [Ang]:                        [ -1.560698,  -0.069663,   0.001886]
    <r_e> [Ang]:                        [ -1.604582,  -0.109414,  -0.002372]
    |<r_e - r_h>| [Ang]:                  0.059364
    Hole size [Ang]:                      1.224880
      Cartesian components [Ang]:       [  0.654798,   0.648562,   0.806807]
    Electron size [Ang]:                  2.257200
      Cartesian components [Ang]:       [  1.516096,   1.509659,   0.719259]
    RMS electron-hole separation [Ang]:   2.558163
      Cartesian components [Ang]:       [  1.643624,   1.635681,   1.080393]
    Covariance(r_h, r_e) [Ang^2]:         0.027303
    Correlation coefficient:              0.009875
    Center-of-mass size [Ang]:            1.289369
      Cartesian components [Ang]:       [  0.829916,   0.825459,   0.540674]

  Decomposition into state-averaged NTOs
    H- 0 -> L+ 2: -0.6643 ( 88.3%)
    H- 1 -> L+ 0:  0.1469 (  4.3%)
                   omega =  93.0%
  ----------------------------------------------------------------------------


  Excited state 5 (singlet, A)                                     [converged]
  ----------------------------------------------------------------------------
  Term symbol:  6 (1) A                                     R^2 =  1.03730e-13

  Total energy:                                            -77.9424553483 a.u.
  Excitation energy:                                              10.257575 eV

  Osc. strength:                                                      0.000004
  Trans. dip. moment [a.u.]:           [  -0.000062,    0.000039,    0.004004]
  <i|r^2|0> [a.u.]:                    [   0.085962,   -0.098292,    0.011741]
  Two-photon absorption cross-section (SoS) [a.u.]:                 206.371308
  Two-photon absorption matrix (SoS) [a.u.]:
                                       |    0.344222    0.055075   -3.670155 |
[...]
    16   -1.471086572357e-03
    17   -1.726352367601e-03
    18   -1.087765504565e-04
    19   -3.247310295383e-03
    20    9.386086126995e-03
    21    9.115756827134e-01
    22   -3.617108227962e-04
    23    1.367281185901e-02
    24    7.878543863998e-04
    25    7.068092347362e-02
    26   -5.258350713262e-02
    27   -1.400063303910e+00
    28    9.535109349521e-02
    29   -9.714114154616e-02
    30   -1.200376027471e-03
    31    3.847388994384e-01
    32   -3.759168434467e-01
    33   -3.886725686679e-03
    34    1.555483518097e-02
    35   -1.511897979118e-03
    36   -1.718345836318e-03
    37   -7.081538525237e-04
    38   -3.066815633606e-03
    39    1.076154429127e-02
    40    9.446041078001e-01
    41   -1.533264986188e-05
    42   -1.379298703349e-02
    43   -8.220026234967e-04
    44    9.077800942104e-03
    45    9.366848492193e-01
    46    1.416957931921e-02
    47    2.591340009671e-04
    48    6.920442187129e-04
Sym=X
Ene= 0.232398
Spin=Alpha
Occup=0
     1   -2.706589345934e-02
     2   -1.204645631485e+00
     3    1.355748024377e-02
     4    3.712956213629e-03
     5    8.580976642600e-04
     6   -9.883791053678e-04
     7    2.558446077766e-03
     8   -5.196803537261e-03
     9    1.517476563637e-01
    10    1.613919897939e-01
    11    1.667377614763e-02
    12    5.505658286025e-01
    13    5.624266989267e-01
    14    5.906200018436e-02
    15    3.525835272283e-04
    16   -5.831551732443e-05
    17    1.205317855039e-05
    18   -6.193434333889e-04
    19   -9.081715680208e-05
    20    2.650536123276e-02
    21    1.189666250215e+00
    22    2.477800495598e-03
    23    1.407630293253e-02
    24    9.469272528644e-04
    25    2.652051089417e-03
    26   -3.566122829875e-03
    27   -4.391094953327e-02
    28    1.544235711030e-01
    29    1.604939829534e-01
    30    1.696592022929e-02
    31    5.527613001543e-01
    32    5.415280856699e-01
    33    5.882048295629e-02
    34    4.544131911256e-04
    35   -7.431527975400e-05
    36   -6.549499695043e-05
    37   -3.794550149426e-05
    38   -3.783510479659e-04
    39   -2.734108555653e-02
    40   -1.143924787339e+00
    41    2.230701812260e-03
    42    1.336193192835e-02
    43    9.051319057515e-04
    44    2.600037774793e-02
    45    1.219936989408e+00
    46    1.415350975958e-02
    47    3.803402559517e-03
    48    9.037508291118e-04
Sym=X
Ene= 0.239216
Spin=Alpha
Occup=0
     1    1.567384871771e-02
     2    1.073111850127e+00
     3   -1.678847375350e-02
     4   -9.149535665510e-03
     5   -1.343466794066e-03
     6    8.678859101782e-02
     7   -8.042236254015e-02
     8   -1.594204769531e+00
     9   -5.619831861785e-02
    10    5.917284911443e-02
    11    7.697826750584e-04
    12   -2.238691439558e-01
    13    2.366794461481e-01
    14    3.146529349041e-03
    15    2.269797578031e-02
    16   -2.625945697876e-03
    17   -2.983163819026e-03
    18    3.776503163118e-04
    19   -1.293989726146e-02
    20    1.709827615257e-02
    21    1.117171792112e+00
    22    8.461402654890e-03
    23    1.772500555594e-02
    24    1.446134349845e-03
    25   -8.580351158441e-02
    26    7.881846318639e-02
    27    1.574856761061e+00
    28   -5.506795126769e-02
    29    6.079938127455e-02
    30    1.027872361762e-03
    31   -2.244463386601e-01
    32    2.372926727733e-01
    33    3.608631391831e-03
    34   -2.234084619712e-02
    35    2.580716135358e-03
    36    2.944280777264e-03
    37   -2.897094021036e-04
    38    1.262713572029e-02
    39   -1.674687580110e-02
    40   -1.098337739876e+00
    41    8.735703618785e-03
    42    1.717992706283e-02
    43    1.437891402387e-03
    44   -1.637462337767e-02
    45   -1.066803829267e+00
    46   -1.667596388434e-02
    47   -9.261405915619e-03
    48   -1.341667904041e-03
Sym=X
Ene= 0.303633
Spin=Alpha
Occup=0
     1   -2.252928520614e-02
     2    1.698206421790e+00
     3   -2.309380609352e-02
     4    2.212621097204e-04
     5   -1.075547894547e-03
     6   -5.865650068563e-05
     7    3.204378249120e-04
     8   -9.941527891183e-03
     9   -1.341686574156e-01
    10   -1.389567524039e-01
    11   -1.455621075067e-02
    12   -1.146898742283e+00
    13   -1.202949620208e+00
    14   -1.256407592371e-01
    15   -1.992396692913e-05
    16   -1.687714059240e-03
    17    1.862703357004e-03
    18   -3.306800105929e-02
    19   -1.929836165065e-03
    20    2.063593979555e-02
    21   -1.687854191728e+00
    22    1.662422100529e-03
    23   -2.292028031273e-02
    24   -1.280168880262e-03
    25   -6.569534758749e-05
    26    5.469251775748e-04
    27   -2.785735140065e-02
    28    1.351251457640e-01
    29    1.404016909693e-01
    30    1.480989294439e-02
    31    1.144676530263e+00
    32    1.194676411173e+00
    33    1.254533777480e-01
    34    3.218824877490e-04
    35   -1.685564298053e-03
    36    1.795115756391e-03
    37   -3.233260955379e-02
    38   -2.198444563810e-03
    39    1.772878143872e-02
    40   -1.673511728112e+00
    41   -1.969473222868e-03
    42    2.283765537372e-02
    43    1.274903618585e-03
    44   -2.151375168889e-02
    45    1.705108131707e+00
    46    2.313197119705e-02
    47   -3.477587132859e-04
    48    1.073513028800e-03
Sym=X
Ene= 0.463587
Spin=Alpha
Occup=0
     1   -1.148660120330e-01
     2   -7.215952638700e-01
     3   -1.598845806602e-02
     4   -1.091401624528e-02
     5   -1.395635313167e-03
     6    6.058376499317e-02
     7    1.934685179198e-02
     8   -3.680152239787e+00
     9    9.959527537898e-02
    10   -9.552471726200e-02
    11   -8.634794391281e-04
    12    2.469775929483e+00
    13   -2.325306340195e+00
    14   -2.196533297679e-02
    15    5.517129772378e-02
    16   -3.459531874698e-03
    17   -4.822777029014e-03
    18   -3.608593021100e-04
    19    1.804950912268e-02
    20   -1.283319762196e-01
    21   -6.985929955647e-01
    22    8.243725066138e-03
    23    1.726298954255e-02
    24    1.413645734249e-03
    25   -6.109796466118e-02
    26   -1.651607158594e-02
    27    3.688722143456e+00
    28    1.041685026434e-01
    29   -1.006373866588e-01
    30   -1.016628770792e-03
    31    2.466434851642e+00
    32   -2.303847512861e+00
    33   -2.113506613741e-02
    34   -5.323860326940e-02
    35    3.181037772697e-03
    36    4.546610629344e-03
    37    1.600470311281e-04
    38   -2.062853964071e-02
    39    1.184431076757e-01
    40    6.882315493951e-01
    41    7.620901356739e-03
    42    1.683495342184e-02
    43    1.369716490853e-03
    44    1.021095457856e-01
    45    7.456117750767e-01
    46   -1.553993484247e-02
    47   -1.042187141023e-02
    48   -1.361818341429e-03
Sym=X
Ene= 0.576607
Spin=Alpha
Occup=0
     1    2.377462889323e-01
     2    3.977965790387e-02
     3   -1.938067008281e-02
     4    2.486814226430e-02
     5    5.575799641606e-04
     6   -4.309728071083e-03
     7   -1.627633472406e-01
     8   -5.026637346991e-01
     9    3.003150872346e-01
    10   -2.915933473206e-01
    11   -3.211027628692e-03
    12   -6.925490811917e-01
    13    6.765546391547e-01
    14    7.420922740863e-03
    15   -4.864298033121e-03
    16    3.564456745635e-03
    17    3.678645191153e-03
    18   -6.731998319538e-03
    19    5.825238170494e-02
    20    2.535000553705e-01
    21    1.335336023103e-02
    22   -2.609648846335e-02
    23    1.644363532247e-02
    24   -2.590799995826e-04
    25   -7.244082390427e-03
    26   -1.649788934565e-01
    27   -3.568424272969e-01
    28   -2.956485428483e-01
    29    2.866581037916e-01
    30    3.144002410034e-03
    31    7.964938875506e-01
    32   -7.623457976338e-01
    33   -7.703631302403e-03
    34   -5.167535010554e-03
    35    3.614002143532e-03
    36    3.675201327657e-03
    37   -6.179746157708e-03
    38    5.817235199390e-02
    39    2.475106476779e-01
    40    4.619384940357e-02
    41    2.822826247169e-02
    42   -1.817083764114e-02
    43    2.536058719802e-04
    44    2.379904646710e-01
    45    8.524671277924e-02
    46    1.954100896113e-02
    47   -2.576009931050e-02
    48   -6.108819162270e-04
Sym=X
Ene= 0.614875
Spin=Alpha
Occup=0
     1   -5.285145847698e-01
     2    1.955082291807e-01
     3   -6.229169161041e-02
     4    3.687606854530e-02
     5   -7.684667171929e-04
     6   -1.195765243720e-03
     7    4.693936585421e-04
     8   -5.913741826659e-02
     9   -4.058391730822e-02
    10   -3.613381642850e-02
    11   -4.092327529342e-03
    12    3.318622642553e-01
    13    2.444060793457e-01
    14    2.997229900837e-02
    15    4.450030611921e-03
    16   -7.728599997666e-03
    17    7.964804588515e-03
    18   -1.471836724540e-01
    19   -6.275668509793e-03
    20    4.978244766703e-01
    21   -2.128733552447e-01
    22    4.249938411493e-02
    23   -5.760436416974e-02
    24   -1.414513623970e-03
    25    1.018526810720e-03
    26    2.280729092098e-03
    27    4.651787004868e-02
    28   -4.079853916489e-02
    29   -3.484188528615e-02
    30   -3.969074538366e-03
    31    3.321937772278e-01
    32    2.416074158943e-01
    33    3.033441328903e-02
    34   -2.025542391465e-03
    35    7.574879884726e-03
    36   -8.577080984301e-03
    37    1.509433987120e-01
    38    4.635468824612e-03
    39   -5.166123269770e-01
    40    2.463497862203e-01
    41    4.135196231416e-02
    42   -5.875988800302e-02
    43   -1.539332062539e-03
    44    5.278525555456e-01
    45   -2.040692602086e-01
    46   -6.224764085557e-02
    47    3.651547149438e-02
    48   -7.594743586625e-04
Sym=X
Ene= 0.687644
Spin=Alpha
Occup=0
     1   -7.159577467855e-05
     2   -1.480603059516e-04
     3    1.007441455493e-03
     4    1.209505852120e-03
     5   -2.074898460260e-02
     6   -2.036661528747e-06
     7    1.543518961488e-04
     8   -2.894816357775e-04
     9    3.148980916084e-02
    10    3.969843059683e-02
    11   -6.685625451125e-01
    12   -2.846467977895e-02
    13   -3.675423712472e-02
    14    6.136089705953e-01
    15   -1.288257697052e-03
    16    8.323709279293e-02
    17   -7.796815450209e-02
    18   -8.616143938109e-03
    19   -1.297729388939e-03
    20   -1.650424305785e-05
    21   -3.608759701863e-04
    22    9.681414123781e-04
    23    1.180314655101e-03
    24   -2.065736048284e-02
    25    9.288233621813e-06
    26    2.987678198210e-05
    27    1.812544463814e-04
    28    3.172238914835e-02
    29    3.989606202865e-02
    30   -6.684870302533e-01
    31   -2.871245777904e-02
    32   -3.697527474784e-02
    33    6.126081660614e-01
    34    1.216767868952e-03
    35   -8.339227060074e-02
    36    7.795811672267e-02
    37    8.543304179892e-03
    38    1.325839628495e-03
    39    1.885371763339e-04
    40    2.675706057452e-05
    41    9.431023012820e-04
    42    1.161538972240e-03
    43   -1.914604626582e-02
    44    1.479161133862e-04
    45    2.605636321001e-04
    46    1.012525550744e-03
    47    1.270448341506e-03
    48   -2.135936533610e-02
Sym=X
Ene= 0.708328
Spin=Alpha
Occup=0
     1   -4.706903439492e-01
     2    1.619592865291e-01
     3   -7.956786613940e-02
     4   -4.478537667952e-02
     5   -6.401373022457e-03
     6   -4.743096599778e-02
     7   -3.201857723243e-01
     8    5.396277034602e-01
     9    2.021640215303e-01
    10   -1.858273871451e-01
    11   -1.624893273869e-03
    12   -1.108002109121e-01
    13    7.401384250483e-02
    14   -4.143357619868e-04
    15    1.916893810048e-01
    16   -2.031362423584e-02
    17   -2.381308397735e-02
    18    3.358649401987e-03
    19   -7.914617824662e-02
    20   -4.826155577030e-01
    21    1.430962615554e-01
    22    4.080009327528e-02
    23    7.989749383215e-02
    24    6.680807894087e-03
    25   -4.670332198685e-02
    26   -3.158071246639e-01
    27    4.425648993625e-01
    28   -1.960768354221e-01
    29    1.897881752707e-01
    30    1.944537012620e-03
    31    3.578278152771e-02
    32   -3.812799225218e-02
    33   -7.303617294736e-04
    34    1.947785507679e-01
    35   -2.050144207508e-02
    36   -2.396945403363e-02
    37    1.860913660036e-03
    38   -7.559992209933e-02
    39   -4.826284040346e-01
    40    1.499280238549e-01
    41   -4.148614892867e-02
    42   -8.024643629755e-02
    43   -6.773071401621e-03
    44   -4.809146978045e-01
    45    1.350434886507e-01
    46    8.119147511444e-02
    47    4.344829884909e-02
    48    6.421333248143e-03
Sym=X
Ene= 0.785980
Spin=Alpha
Occup=0
     1   -5.265832821498e-01
     2    4.775727207852e-01
     3   -1.106733225094e-01
     4   -2.682949598743e-02
     5   -6.808311236783e-03
     6   -9.131285938825e-02
     7    2.098877568146e-01
     8    6.825742565655e-01
     9   -1.027227181203e-01
    10    9.379045995366e-02
    11    5.616637314989e-04
    12   -3.530130729225e-01
    13    3.218120241363e-01
    14    2.956414817275e-03
    15    2.079887383077e-01
    16   -1.765334621779e-02
    17   -2.229596604742e-02
    18    4.322493828661e-03
    19   -1.258142051886e-02
    20   -5.418277701927e-01
    21    4.859383346052e-01
    22    2.143614419677e-02
    23    1.155156944671e-01
    24    7.859830220631e-03
    25    9.074043706061e-02
    26   -2.211656511852e-01
    27   -6.832031144545e-01
    28   -1.163801210477e-01
    29    8.764973728829e-02
    30    1.718232928052e-05
    31   -3.152518667210e-01
    32    3.369087971428e-01
    33    4.748128233071e-03
    34   -2.053163867918e-01
    35    1.728542183665e-02
    36    2.223019115435e-02
    37   -6.098851515045e-03
    38    1.004585111810e-02
    39    5.521914422747e-01
    40   -5.133879927175e-01
    41    2.162515756033e-02
    42    1.158303281490e-01
    43    7.953019305021e-03
    44    5.220246320920e-01
    45   -4.479671491572e-01
    46   -1.069259133048e-01
    47   -2.699221973130e-02
    48   -6.676113171567e-03
Sym=X
Ene= 0.808683
Spin=Alpha
Occup=0
     1    1.566526679415e-04
     2   -5.037697998261e-04
     3    1.695956447626e-03
     4    2.013747373003e-03
     5   -3.363976872342e-02
     6    2.403255120000e-05
     7    4.470714845596e-05
     8   -1.359327958592e-04
     9    3.592741958047e-02
    10    4.518213622100e-02
    11   -7.629935602050e-01
    12   -5.300061395794e-02
    13   -6.710448317950e-02
    14    1.130578554904e+00
    15    9.263155367293e-04
    16   -6.754203719620e-02
    17    6.325380337068e-02
    18    7.036056577084e-03
    19    1.040537114809e-03
    20    1.495782639885e-04
    21    8.449772338111e-05
    22    1.693147451775e-03
    23    2.039132248247e-03
    24   -3.507979375009e-02
    25   -3.321950468273e-05
    26    1.719125980773e-04
    27    1.423732751745e-05
    28   -3.617395116337e-02
    29   -4.577697474751e-02
    30    7.635545090324e-01
    31    5.375664045179e-02
    32    6.766513993296e-02
    33   -1.130286334056e+00
    34    1.106827944267e-03
    35   -6.746129060148e-02
    36    6.327762920306e-02
    37    6.878862085361e-03
    38    1.054297080396e-03
    39   -1.558226819342e-04
    40   -1.470891964967e-04
    41   -1.539768448179e-03
    42   -1.959532094052e-03
    43    3.297072422059e-02
    44   -1.483759301718e-04
    45    4.512833699059e-04
    46   -1.535412525620e-03
    47   -1.981433747790e-03
    48    3.366784794560e-02
Sym=X
Ene= 0.860746
Spin=Alpha
Occup=0
     1    1.431573671597e-02
     2   -1.088306819532e+00
     3    1.473684514204e-01
     4    5.637169570468e-02
     5    1.033293699109e-02
     6    1.625686331769e-03
     7   -1.218734312808e-02
     8    1.442096842957e-02
     9   -3.953309151657e-01
    10   -4.302339293432e-01
    11   -4.397554765947e-02
    12    9.292299588430e-01
    13    9.981600823407e-01
    14    1.026275500842e-01
    15   -3.774908197569e-03
    16    1.172328459246e-02
    17   -1.311879042921e-02
    18    2.325148222520e-01
    19    6.831017888854e-03
    20   -4.143641614783e-03
    21    1.093890395028e+00
    22    5.077039182735e-02
    23    1.476531878814e-01
    24    1.113684848871e-02
    25   -2.399938395060e-03
    26   -4.316912533554e-03
    27   -8.434867868886e-04
    28   -4.033551755242e-01
    29   -4.422009314021e-01
    30   -4.572527715828e-02
    31    9.449470758814e-01
    32    1.020038364027e+00
    33    1.061321673864e-01
    34    7.511073139880e-03
    35   -1.221621008816e-02
    36    1.291473043110e-02
    37   -2.359551135301e-01
    38   -7.328587732241e-03
    39    3.754195614823e-03
    40   -1.105329205058e+00
    41    4.865260617835e-02
    42    1.507145185082e-01
    43    1.127842364711e-02
    44   -1.781199134065e-02
    45    1.096546060230e+00
    46    1.509505013499e-01
    47    5.356628469840e-02
    48    1.036528644450e-02
Sym=X
Ene= 0.936070
Spin=Alpha
Occup=0
     1    1.118605223108e-01
     2   -1.292116979312e+00
     3    1.811660785725e-01
     4   -4.475626956736e-03
     5    8.261148517333e-03
     6   -1.241198502476e-03
     7    2.141629799510e-02
     8   -4.775672861996e-02
     9   -4.857007980825e-01
    10   -4.949148874979e-01
    11   -5.232996323643e-02
    12    1.499639562315e+00
    13    1.522774264580e+00
    14    1.612694984564e-01
    15    4.512448303239e-03
    16    5.765501785674e-03
    17   -7.407868434279e-03
    18    1.225429730692e-01
    19    6.406554969690e-03
    20   -1.231682065474e-01
    21    1.288170181234e+00
    22   -1.239069216644e-02
    23    1.864475511485e-01
    24    1.048610418398e-02
    25    2.155677351760e-03
    26    2.998496721102e-02
    27   -2.014291996831e-02
    28    4.539456173360e-01
    29    5.119910444506e-01
    30    5.204917864446e-02
    31   -1.413581605062e+00
    32   -1.555756542641e+00
    33   -1.597532480108e-01
    34   -4.764332464638e-03
    35    5.495168419779e-03
    36   -6.915729929066e-03
    37    1.170788923835e-01
    38   -7.112611681265e-03
    39   -1.176233699759e-01
    40    1.290200754605e+00
    41    1.048150021342e-02
    42   -1.836406132983e-01
    43   -1.050498680284e-02
    44    1.175786401530e-01
    45   -1.238105731433e+00
    46   -1.765638746452e-01
    47    1.119678651588e-02
    48   -7.675088784815e-03
Sym=X
Ene= 0.976021
Spin=Alpha
Occup=0
     1   -5.779922031535e-02
     2    8.936049199323e-01
     3   -8.676890647897e-02
     4   -9.859145048758e-02
     5   -1.001732223584e-02
     6    2.762379600659e-02
     7    2.633984216207e-01
     8    4.731313032804e-01
     9    4.718079262846e-01
    10   -4.620276466468e-01
    11   -5.124498285455e-03
    12   -1.438549836559e+00
    13    1.423769258313e+00
    14    1.658602952701e-02
    15   -5.778417562309e-02
    16   -1.263584781316e-02
    17   -9.189152504237e-03
    18    1.499955076328e-02
    19   -3.013526010507e-01
    20   -4.921499228732e-02
    21    9.278652080421e-01
    22    9.592644140889e-02
    23    9.468280403469e-02
    24    1.011594129112e-02
    25   -2.755313826780e-02
    26   -2.506409341161e-01
    27   -4.942530423520e-01
    28    4.945295796978e-01
    29   -4.390883413783e-01
    30   -2.828047343472e-03
    31   -1.531298413549e+00
    32    1.337117664424e+00
    33    7.452032909074e-03
    34    5.675182292481e-02
    35    1.282282507903e-02
    36    8.678228833935e-03
    37   -7.700542740361e-03
    38    2.977199506005e-01
    39    5.156798194654e-02
    40   -8.469607558463e-01
    41    9.485805723922e-02
    42    8.478576163925e-02
    43    9.518701314721e-03
    44    5.935302518052e-02
    45   -9.644346812171e-01
    46   -9.592744068378e-02
    47   -9.756692090000e-02
    48   -1.036799375711e-02
[5D]

======= END OF MOLDEN-FORMATTED INPUT FILE =======


        *************************************************************
        *                                                           *
        *  Thank you very much for using Q-Chem.  Have a nice day.  *
        *                                                           *
        *************************************************************


