                  Welcome to Q-Chem
     A Quantum Leap Into The Future Of Chemistry


 Q-Chem 5.4 (devel), Q-Chem, Inc., Pleasanton, CA (2021)

 E. Epifanovsky,  A. T. B. Gilbert,  Xintian Feng,  Joonho Lee,  Yuezhi Mao,  
 N. Mardirossian,  P. Pokhilko,  A. White,  M. Wormit,  M. P. Coons,  
 A. L. Dempwolff,  Zhengting Gan,  D. Hait,  P. R. Horn,  L. D. Jacobson,  
 I. Kaliman,  J. Kussmann,  A. W. Lange,  Ka Un Lao,  D. S. Levine,  Jie Liu,  
 S. C. McKenzie,  A. F. Morrison,  K. Nanda,  F. Plasser,  D. R. Rehn,  
 M. L. Vidal,  Zhi-Qiang You,  Ying Zhu,  B. Alam,  B. Albrecht,  
 A. Aldossary,  E. Alguire,  J. H. Andersen,  D. Barton,  K. Begam,  A. Behn,  
 Y. A. Bernard,  E. J. Berquist,  H. Burton,  A. Carreras,  K. Carter-Fenk,  
 R. Chakraborty,  A. D. Chien,  K. D. Closser,  V. Cofer-Shabica,  
 S. Dasgupta,  Jia Deng,  M. de Wergifosse,  M. Diedenhofen,  Hainam Do,  
 S. Ehlert,  Po-Tung Fang,  S. Fatehi,  Qingguo Feng,  T. Friedhoff,  
 J. Gayvert,  Qinghui Ge,  G. Gidofalvi,  M. Goldey,  J. Gomes,  
 C. Gonzalez-Espinoza,  S. Gulania,  A. Gunina,  M. W. D. Hanson-Heine,  
 P. H. P. Harbach,  A. W. Hauser,  M. F. Herbst,  M. Hernandez Vera,  
 M. Hodecker,  Z. C. Holden,  S. Houck,  Xunkun Huang,  Kerwin Hui,  
 B. C. Huynh,  M. Ivanov,  Hyunjun Ji,  Hanjie Jiang,  B. Kaduk,  S. Kaehler,  
 K. Khistyaev,  Jaehoon Kim,  P. Klunzinger,  Z. Koczor-Benda,  
 Joong Hoon Koh,  D. Kosenkov,  L. Koulias,  T. Kowalczyk,  C. M. Krauter,  
 K. Kue,  A. Kunitsa,  T. Kus,  A. Landau,  K. V. Lawler,  D. Lefrancois,  
 S. Lehtola,  Rain Li,  Yi-Pei Li,  Jiashu Liang,  M. Liebenthal,  
 Hung-Hsuan Lin,  You-Sheng Lin,  Fenglai Liu,  Kuan-Yu Liu,  
 M. Loipersberger,  A. Luenser,  A. Manjanath,  P. Manohar,  E. Mansoor,  
 S. F. Manzer,  Shan-Ping Mao,  A. V. Marenich,  T. Markovich,  S. Mason,  
 S. A. Maurer,  P. F. McLaughlin,  M. F. S. J. Menger,  J.-M. Mewes,  
 S. A. Mewes,  P. Morgante,  J. W. Mullinax,  K. J. Oosterbaan,  G. Paran,  
 Alexander C. Paul,  Suranjan K. Paul,  F. Pavosevic,  Zheng Pei,  S. Prager,  
 E. I. Proynov,  E. Ramos,  B. Rana,  A. E. Rask,  A. Rettig,  R. M. Richard,  
 F. Rob,  E. Rossomme,  T. Scheele,  M. Scheurer,  M. Schneider,  
 N. Sergueev,  S. M. Sharada,  W. Skomorowski,  D. W. Small,  C. J. Stein,  
 Yu-Chuan Su,  E. J. Sundstrom,  Zhen Tao,  J. Thirman,  T. Tsuchimochi,  
 N. M. Tubman,  S. P. Veccham,  O. Vydrov,  J. Wenzel,  J. Witte,  A. Yamada,  
 Kun Yao,  S. Yeganeh,  S. R. Yost,  A. Zech,  Igor Ying Zhang,  Xing Zhang,  
 Yu Zhang,  D. Zuev,  A. Aspuru-Guzik,  A. T. Bell,  N. A. Besley,  
 K. B. Bravaya,  B. R. Brooks,  D. Casanova,  Jeng-Da Chai,  S. Coriani,  
 C. J. Cramer,  A. E. DePrince, III,  R. A. DiStasio Jr.,  A. Dreuw,  
 B. D. Dunietz,  T. R. Furlani,  W. A. Goddard III,  S. Grimme,  
 S. Hammes-Schiffer,  T. Head-Gordon,  W. J. Hehre,  Chao-Ping Hsu,  
 T.-C. Jagau,  Yousung Jung,  A. Klamt,  Jing Kong,  D. S. Lambrecht,  
 WanZhen Liang,  N. J. Mayhall,  C. W. McCurdy,  J. B. Neaton,  
 C. Ochsenfeld,  J. A. Parkhill,  R. Peverati,  V. A. Rassolov,  Yihan Shao,  
 L. V. Slipchenko,  T. Stauch,  R. P. Steele,  J. E. Subotnik,  
 A. J. W. Thom,  A. Tkatchenko,  D. G. Truhlar,  T. Van Voorhis,  
 T. A. Wesolowski,  K. B. Whaley,  H. L. Woodcock III,  P. M. Zimmerman,  
 S. Faraji,  P. M. W. Gill,  M. Head-Gordon,  J. M. Herbert,  A. I. Krylov

 Additional authors for Version 5.4.1: 
 S. Kotaru,  Shaozhi Li,  Xiangyuan Li,  F. Matz,  A. Molle,  Haisheng Ren,  
 Yingli Su,  Hung-Yi Tsai,  C. Utku,  Fang Wang

 Contributors to earlier versions of Q-Chem not listed above: 
 R. D. Adamson,  B. Austin,  R. Baer,  J. Baker,  G. J. O. Beran,  
 K. Brandhorst,  S. T. Brown,  E. F. C. Byrd,  A. K. Chakraborty,  
 G. K. L. Chan,  Chun-Min Chang,  Yunqing Chen,  C.-L. Cheng,  
 Siu Hung Chien,  D. M. Chipman,  D. L. Crittenden,  H. Dachsel,  
 R. J. Doerksen,  A. D. Dutoi,  R. G. Edgar,  J. Fosso-Tande,  
 L. Fusti-Molnar,  D. Ghosh,  A. Ghysels,  A. Golubeva-Zadorozhnaya,  
 J. Gonthier,  M. S. Gordon,  S. R. Gwaltney,  G. Hawkins,  J. E. Herr,  
 A. Heyden,  S. Hirata,  E. G. Hohenstein,  G. Kedziora,  F. J. Keil,  
 C. Kelley,  Jihan Kim,  R. A. King,  R. Z. Khaliullin,  P. P. Korambath,  
 W. Kurlancheek,  A. Laurent,  A. M. Lee,  M. S. Lee,  S. V. Levchenko,  
 Ching Yeh Lin,  D. Liotard,  E. Livshits,  R. C. Lochan,  I. Lotan,  
 L. A. Martinez-Martinez,  P. E. Maslen,  N. Nair,  D. P. O'Neill,  
 D. Neuhauser,  E. Neuscamman,  C. M. Oana,  R. Olivares-Amaya,  R. Olson,  
 T. M. Perrine,  B. Peters,  P. A. Pieniazek,  A. Prociuk,  Y. M. Rhee,  
 J. Ritchie,  M. A. Rohrdanz,  E. Rosta,  N. J. Russ,  H. F. Schaefer III,  
 M. W. Schmidt,  N. E. Schultz,  S. Sharma,  N. Shenvi,  C. D. Sherrill,  
 A. C. Simmonett,  A. Sodt,  T. Stein,  D. Stuck,  K. S. Thanthiriwatte,  
 V. Vanovschi,  L. Vogt,  Tao Wang,  A. Warshel,  M. A. Watson,  
 C. F. Williams,  Q. Wu,  X. Xu,  Jun Yang,  W. Zhang,  Yan Zhao

 Please cite Q-Chem as follows:
 Y. Shao et al., Mol. Phys. 113, 184-215 (2015)
 DOI: 10.1080/00268976.2014.952696

 Q-Chem 5.4.1 for Intel X86 EM64T Linux

 Parts of Q-Chem use Armadillo 9.800.1 (Horizon Scraper).
 http://arma.sourceforge.net/

 Q-Chem begins on Mon Mar 20 18:35:15 2023  

 Host: cpu186.baobab
0

     Scratch files written to /scratch/fum/qchem79640//
 Processing $rem in /home/share/wesolowski/qc5.aug2021.FDE/config/preferences:
 Processing $rem in /home/fum/.qchemrc:

 Checking the input file for inconsistencies... 	...done.

--------------------------------------------------------------
User input:
--------------------------------------------------------------
$comment
generated from CCJob.Templates
$end

$rem
sym_ignore = true
method = adc(2)
ee_states = 10
basis = cc-pVDZ
mem_static = 1024
mem_total = 40000
adc_davidson_maxiter = 900
adc_davidson_conv = 6
adc_print = 3
adc_prop_es = true
adc_prop_es2es = true
adc_prop_tpa = true
molden_format = True
state_analysis = true
print_orbitals = 15
gen_scfman = false
fde_export_density = true
fde_details = 3
$end

$molecule
0 1
H -0.016694215016292896 -0.22900434373820808 0.06644874545899689
C -1.0416269824355577 -0.5588536194419734 -0.002701580440723528
H -1.3189444628341072 -1.5987820328904523 -0.07889145864380255
C -2.0810446851645192 0.42827808254202154 0.006948759940752396
H -1.8037637657656522 1.4682186419905292 0.08311828414381217
H -3.105987075683688 0.0984375132379579 -0.062123988159083494                     
$end
--------------------------------------------------------------
 ----------------------------------------------------------------
             Standard Nuclear Orientation (Angstroms)
    I     Atom           X                Y                Z
 ----------------------------------------------------------------
    1      H      -0.0166942150    -0.2290043437     0.0664487455
    2      C      -1.0416269824    -0.5588536194    -0.0027015804
    3      H      -1.3189444628    -1.5987820329    -0.0788914586
    4      C      -2.0810446852     0.4282780825     0.0069487599
    5      H      -1.8037637658     1.4682186420     0.0831182841
    6      H      -3.1059870757     0.0984375132    -0.0621239882
 ----------------------------------------------------------------
 Nuclear Repulsion Energy =          32.24856650 hartrees
 There are        8 alpha and        8 beta electrons
 Requested basis set is cc-pVDZ
 There are 24 shells and 48 basis functions
 Total memory of 40000 MB is distributed as follows: 
   MEM_STATIC is set to 1024 MB
   QALLOC/CCMAN JOB total memory use is  38976 MB
 Warning: actual memory use might exceed 40000 MB

 Total QAlloc Memory Limit  40000 MB
 Mega-Array Size      1001 MB
 MEM_STATIC part      1024 MB

                       Distance Matrix (Angstroms)
             H (  1)   C (  2)   H (  3)   C (  4)   H (  5)
   C (  2)  1.078921
   H (  3)  1.895592  1.078963
   C (  4)  2.167280  1.433496  2.167288
   H (  5)  2.464642  2.167312  3.109307  1.078964
   H (  6)  3.109257  2.167290  2.464621  1.078922  1.895569

 A cutoff of  1.0D-11 yielded    300 shell pairs
 There are      1220 function pairs (      1329 Cartesian)
 Smallest overlap matrix eigenvalue = 6.67E-03

 Scale SEOQF with 1.000000e-01/1.000000e-01/1.000000e+00

 Standard Electronic Orientation quadrupole field applied
 Nucleus-field energy     =     0.0000000022 hartrees
 Guess from superposition of atomic densities
 Warning:  Energy on first SCF cycle will be non-variational
 SAD guess density has 16.000000 electrons
 A restricted Hartree-Fock SCF calculation will be
 performed using Pulay DIIS extrapolation
 SCF converges when DIIS error is below 1.0E-08
 using 10 threads for integral computing
 -------------------------------------------------------
 OpenMP Integral computing Module                
 Release: version 1.0, May 2013, Q-Chem Inc. Pittsburgh 
 -------------------------------------------------------
 ---------------------------------------
  Cycle       Energy         DIIS Error
 ---------------------------------------
    1     -78.2567490879      9.17E-02
    2     -78.0040010878      6.86E-03
    3     -78.0241453014      1.72E-03
    4     -78.0255950163      4.10E-04
    5     -78.0256596987      5.94E-05
    6     -78.0256616321      9.58E-06
    7     -78.0256616984      2.08E-06
    8     -78.0256617017      1.69E-07
    9     -78.0256617018      1.92E-08
   10     -78.0256617018      9.55E-09 Convergence criterion met
 ---------------------------------------
 SCF time:  CPU 2.22 s  wall 2.36 s
 SCF   energy in the final basis set = -78.02566170
 Total energy in the final basis set = -78.02566170
Exporting Density Matrix to file 'Densmat_SCF.txt'.
Export successful
================================================================================
|                                                                              |
|                                 A D C  M A N                                 |
|                                                                              |
 ------------------------------------------------------------------------------ 
|                                                                              |
| Components:                                                                  |
|                                                                              |
| - libvmm - 1.3-trunk                                                         |
|   Authors:                                                                   |
|   Evgeny Epifanovsky, Ilya Kaliman                                           |
|                                                                              |
| - libtensor - 2.5-trunk                                                      |
|   Authors:                                                                   |
|   Evgeny Epifanovsky, Michael Wormit, Dmitry Zuev, Sam Manzer,               |
|   Ilya Kaliman                                                               |
|                                                                              |
| - libwfa - 1.1-trunk                                                         |
|   Authors:                                                                   |
|   Felix Plasser, Stefanie Mewes (Baeppler), Benjamin Thomitzni,              |
|   Michael Wormit, Feng Chen, Anna I. Krylov, Pavel Pokhilko                  |
|                                                                              |
| - libadc - 1.1-trunk                                                         |
|   Authors:                                                                   |
|   Michael Wormit, Adrian L. Dempwolff, Philipp H. P. Harbach,                |
|   Caroline Krauter, Dirk Rehn, Matthias Schneider, Jan Wenzel                |
|                                                                              |
| - adcman - 2.6-trunk                                                         |
|   Authors:                                                                   |
|   Michael Wormit, Adrian L. Dempwolff, Philipp H. P. Harbach,                |
|   Caroline Krauter, Daniel Lefrancois, Jan-Michael Mewes, Dirk Rehn,         |
|   Matthias Schneider, Jan Wenzel, Andreas Dreuw                              |
|                                                                              |
| Authors of earlier versions of ADCMAN:                                       |
| Andreas Dreuw, Jan Hendrik Starcke, Dirk Rehn, Michael Wormit                |
|                                                                              |
================================================================================

 Created directory /scratch/fum/qchem79640/plots
  Import QC data ...  CPU 0.00 s  wall 0.00 s

 Alpha MOs, Restricted
 -- Occupied --                  
-11.249 -11.248  -1.006  -0.796  -0.641  -0.553  -0.527  -0.351
  1 A     2 A     3 A     4 A     5 A     6 A     7 A     8 A                  
 -- Virtual --                   
  0.146   0.200   0.236   0.239   0.297   0.433   0.585   0.620
  9 A    10 A    11 A    12 A    13 A    14 A    15 A    16 A                  
  0.708   0.712   0.746   0.798   0.877   0.923   0.923   1.006
 17 A    18 A    19 A    20 A    21 A    22 A    23 A    24 A                  
  1.136   1.211   1.236   1.263   1.274   1.625   1.670   1.707
 25 A    26 A    27 A    28 A    29 A    30 A    31 A    32 A                  
  1.803   1.825   1.833   1.915   1.939   2.015   2.146   2.195
 33 A    34 A    35 A    36 A    37 A    38 A    39 A    40 A                  
  2.360   2.427   2.447   2.522   2.765   2.781   3.147   3.261
 41 A    42 A    43 A    44 A    45 A    46 A    47 A    48 A                  

 Beta MOs, Restricted
 -- Occupied --                  
-11.249 -11.248  -1.006  -0.796  -0.641  -0.553  -0.527  -0.351
  1 A     2 A     3 A     4 A     5 A     6 A     7 A     8 A                  
 -- Virtual --                   
  0.146   0.200   0.236   0.239   0.297   0.433   0.585   0.620
  9 A    10 A    11 A    12 A    13 A    14 A    15 A    16 A                  
  0.708   0.712   0.746   0.798   0.877   0.923   0.923   1.006
 17 A    18 A    19 A    20 A    21 A    22 A    23 A    24 A                  
  1.136   1.211   1.236   1.263   1.274   1.625   1.670   1.707
 25 A    26 A    27 A    28 A    29 A    30 A    31 A    32 A                  
  1.803   1.825   1.833   1.915   1.939   2.015   2.146   2.195
 33 A    34 A    35 A    36 A    37 A    38 A    39 A    40 A                  
  2.360   2.427   2.447   2.522   2.765   2.781   3.147   3.261
 41 A    42 A    43 A    44 A    45 A    46 A    47 A    48 A                  
  Import AO data ...  CPU 0.00 s  wall 0.01 s
  Using point group: C1
  Irreducible representations in point group: A
  Molecular orbitals: 
  Occupied MOs:
  Block   0:   1 (  A) A   2 (  A) A   3 (  A) A   4 (  A) A   5 (  A) A
                  -11.25      -11.25      -1.006     -0.7958      -0.641
               6 (  A) A   7 (  A) A   8 (  A) A
                 -0.5529     -0.5266     -0.3515
  Block   1:   1 (  A) B   2 (  A) B   3 (  A) B   4 (  A) B   5 (  A) B
                  -11.25      -11.25      -1.006     -0.7958      -0.641
               6 (  A) B   7 (  A) B   8 (  A) B
                 -0.5529     -0.5266     -0.3515
  Virtual MOs:
  Block   0:   9 (  A) A  10 (  A) A  11 (  A) A  12 (  A) A  13 (  A) A
                  0.1464         0.2      0.2361      0.2388      0.2972
              14 (  A) A  15 (  A) A  16 (  A) A  17 (  A) A  18 (  A) A
                   0.433      0.5853      0.6197      0.7077      0.7116
              19 (  A) A  20 (  A) A  21 (  A) A  22 (  A) A
                  0.7457      0.7983      0.8772      0.9233
  Block   1:  23 (  A) A  24 (  A) A  25 (  A) A  26 (  A) A  27 (  A) A
                  0.9233       1.006       1.136       1.211       1.236
              28 (  A) A  29 (  A) A  30 (  A) A  31 (  A) A  32 (  A) A
                   1.263       1.274       1.625        1.67       1.707
              33 (  A) A  34 (  A) A  35 (  A) A  36 (  A) A
                   1.803       1.825       1.833       1.915
  Block   2:  37 (  A) A  38 (  A) A  39 (  A) A  40 (  A) A  41 (  A) A
                   1.939       2.015       2.146       2.195        2.36
              42 (  A) A  43 (  A) A  44 (  A) A  45 (  A) A  46 (  A) A
                   2.427       2.447       2.522       2.765       2.781
              47 (  A) A  48 (  A) A
                   3.147       3.261
  Block   3:   9 (  A) B  10 (  A) B  11 (  A) B  12 (  A) B  13 (  A) B
                  0.1464         0.2      0.2361      0.2388      0.2972
              14 (  A) B  15 (  A) B  16 (  A) B  17 (  A) B  18 (  A) B
                   0.433      0.5853      0.6197      0.7077      0.7116
              19 (  A) B  20 (  A) B  21 (  A) B  22 (  A) B
                  0.7457      0.7983      0.8772      0.9233
  Block   4:  23 (  A) B  24 (  A) B  25 (  A) B  26 (  A) B  27 (  A) B
                  0.9233       1.006       1.136       1.211       1.236
              28 (  A) B  29 (  A) B  30 (  A) B  31 (  A) B  32 (  A) B
                   1.263       1.274       1.625        1.67       1.707
              33 (  A) B  34 (  A) B  35 (  A) B  36 (  A) B
                   1.803       1.825       1.833       1.915
  Block   5:  37 (  A) B  38 (  A) B  39 (  A) B  40 (  A) B  41 (  A) B
                   1.939       2.015       2.146       2.195        2.36
              42 (  A) B  43 (  A) B  44 (  A) B  45 (  A) B  46 (  A) B
                   2.427       2.447       2.522       2.765       2.781
              47 (  A) B  48 (  A) B
                   3.147       3.261
  Import MO data ...  CPU 0.10 s  wall 0.03 s
  Import HF data ...  CPU 0.85 s  wall 0.24 s
  Import 2e integrals ...  CPU 1.16 s  wall 0.21 s

--------------------------------------------------------------------------------
                                   HF Summary                                   
--------------------------------------------------------------------------------
  Energy:                                                  -78.0256617018 a.u.
  Dip. moment [a.u.]:                  [  -0.000005,    0.000003,    0.000017]
  Total dipole [Debye]:                                               0.000045
  <r^2> [a.u.]:                        [ 177.397161,   36.738469,   11.907989]
  Total <r^2> [a.u.]:                                               226.043618
--------------------------------------------------------------------------------
  HF properties ...  CPU 0.11 s  wall 0.03 s
  MP(1) calculation ...  CPU 0.01 s  wall 0.01 s
  N^6 prerequesite intermediates ...  CPU 0.83 s  wall 0.15 s
  Difference density matrix of state mp2_gs printed to ASCII file 'State_mp2_gs_Difference.txt'
Exporting MP density matrix to file 'Densmat_MP.txt'.
Export successful
  Total density matrix of state mp2_gs printed to ASCII file 'State_mp2_gs_Total.txt'
Exporting MP density matrix to file 'Densmat_MP.txt'.
Export successful

--------------------------------------------------------------------------------
                                 MP(2) Summary                                  
--------------------------------------------------------------------------------
  MP energy contribution:                                   -0.2860305023 a.u.
  Total energy:                                            -78.3116922041 a.u.
  Dip. moment [a.u.]:                  [  -0.000005,    0.000002,    0.000016]
  Total dipole [Debye]:                                               0.000044
  <r^2> [a.u.]:                        [ 177.426589,   36.763354,   11.668910]
  Total <r^2> [a.u.]:                                               225.858852

  Density matrix analysis:
  ------------------------
  NOs
    Occupation of frontier NOs:
       0.0548   1.9296
    Number of electrons: 16.000000
    Number of unpaired electrons: n_u =  0.43225, n_u,nl =  0.05505
    NO participation ratio (PR_NO): 12.932209
  
  
  Mulliken Population Analysis
  Atom      Charge (e)              h+              e-           Del q
  --------------------------------------------------------------------
   1 H        0.059907        0.013678       -0.011491        0.002188
   2 C       -0.119819        0.104678       -0.109052       -0.004374
   3 H        0.059917        0.013678       -0.011491        0.002187
   4 C       -0.119827        0.104676       -0.109052       -0.004376
   5 H        0.059916        0.013678       -0.011491        0.002188
   6 H        0.059906        0.013679       -0.011491        0.002188
  --------------------------------------------------------------------
  Sum:        0.000000        0.264067       -0.264067       -0.000000
  
  Multipole moment analysis of the density matrix
    Molecular charge:                      -0.000000
    Number of electrons:                   16.000000
      Center of electronic charge [Ang]: [ -1.561339,  -0.065287,   0.002127]
    Total nuclear charge:                  16.000000
      Center of nuclear charge [Ang]:    [ -1.561339,  -0.065286,   0.002127]
    Dipole moment [D]:                     0.000044
      Cartesian components [D]:          [ -0.000012,   0.000005,   0.000042]
    RMS size of the density [Ang]:         1.229182
      Cartesian components [Ang]:        [  0.817009,   0.799476,   0.451909]
  
  Exciton analysis of the difference density matrix
    <r_h> [Ang]:                  [ -1.561337,  -0.065288,   0.002124]
    <r_e> [Ang]:                  [ -1.561338,  -0.065286,   0.002124]
    |<r_e - r_h>| [Ang]:            0.000002
    Hole size [Ang]:                1.434310
      Cartesian components [Ang]: [  0.862987,   0.849297,   0.768892]
    Electron size [Ang]:            1.364298
      Cartesian components [Ang]: [  0.880880,   0.864694,   0.581089]
--------------------------------------------------------------------------------
  MP(2) calculation ...  CPU 0.44 s  wall 0.22 s
  Start ADC(2)-s ...  CPU 0.02 s  wall 0.02 s
  ADC(2) intermediates ...  CPU 0.04 s  wall 0.01 s
  Starting Davidson for singlet states of irrep A ... 
--------------------------------------------------------------------------------
   It NVec Conv  Avg. Norm  Max. Norm  Conv. states           Remark
--------------------------------------------------------------------------------
        10    0  1.325e-01  4.688e-01  0.3894 n n n n n n n n Guess.
    1   20    0  2.344e-02  1.221e-01  0.2973 n n n n n n n n 
    2   30    0  6.317e-03  2.747e-02  0.2914 n n n n n n n n 
    3   40    0  2.112e-03  1.317e-02  0.2910 n n n n n n n n 
    4   50    0  6.395e-04  4.667e-03  0.2909 n n n n n n n n 
    5   20    0  2.730e-04  2.074e-03  0.2909 n n n n n n n n Subspace collapsed.
    6   30    0  1.344e-04  1.052e-03  0.2909 n n n n n n n n 
    7   40    0  5.995e-05  4.774e-04  0.2909 n n n n n n n n 
    8   50    0  2.630e-05  2.265e-04  0.2909 n n n n n n n n 
    9   20    2  1.133e-05  9.389e-05  0.2909 n n y n y n n n Subspace collapsed.
   10   30    5  5.812e-06  4.177e-05  0.2909 n y y y y y n n 
   11   40    5  2.483e-06  1.782e-05  0.2909 n y y y y y n n 
   12   50    6  1.240e-06  8.499e-06  0.2909 n y y y y y n y 
   13   20    7  6.474e-07  4.715e-06  0.2909 n y y y y y y y Subspace collapsed.
   14   30    8  3.574e-07  2.786e-06  0.2909 y y y y y y y y 
   15   40    8  2.379e-07  1.884e-06  0.2909 y y y y y y y y 
   16   50    9  2.123e-07  1.976e-06  0.2909 y y y y y y y y 
   17   20    9  1.176e-07  1.112e-06  0.2909 y y y y y y y y Subspace collapsed.
   18   30    9  1.186e-07  1.126e-06  0.2909 y y y y y y y y 
   19   40    9  1.036e-07  1.017e-06  0.2909 y y y y y y y y 
   20   50    9  1.133e-07  1.130e-06  0.2909 y y y y y y y y 
   21   20   10  5.232e-08  5.214e-07  0.2909 y y y y y y y y Converged.
--------------------------------------------------------------------------------
  Davidson Summary: 
 ------------------------------------------------------------
  State  0: excitation energy =   0.2909 a.u.   (converged)
  State  1: excitation energy =   0.3186 a.u.   (converged)
  State  2: excitation energy =   0.3310 a.u.   (converged)
  State  3: excitation energy =   0.3379 a.u.   (converged)
  State  4: excitation energy =   0.3548 a.u.   (converged)
  State  5: excitation energy =   0.3663 a.u.   (converged)
  State  6: excitation energy =   0.4268 a.u.   (converged)
  State  7: excitation energy =   0.4361 a.u.   (converged)
  State  8: excitation energy =   0.4371 a.u.   (converged)
  State  9: excitation energy =   0.4732 a.u.   (converged)
 ------------------------------------------------------------

  Singlet states of irrep A ...  CPU 158.45 s  wall 49.68 s
  TDMs ...  CPU 2.02 s  wall 0.77 s
  SDMs ...  CPU 4.45 s  wall 1.43 s
  Starting TPA DIIS iterations ... 
------------------------------------ 
   It     Res. Norm  Remark
------------------------------------
                       Guess.
    1     5.769e+00  
    2     8.163e+00  
    3     1.269e+00  
    4     3.448e-01  
    5     9.880e-02  
    6     3.377e-02  
    7     1.023e-02  
    8     1.409e-03  
    9     5.200e-04  
   10     1.001e-04  
   11     2.823e-05  
   12     5.167e-06  
   13     1.182e-06  
   14     4.293e-07  Converged.
   ... Converged in 14 steps (norm: 4.29304e-07)
------------------------------------
  Starting TPA DIIS iterations ... 
------------------------------------ 
   It     Res. Norm  Remark
------------------------------------
                       Guess.
    1     5.487e+00  
    2     7.755e+00  
    3     1.209e+00  
    4     3.423e-01  
    5     9.847e-02  
    6     3.397e-02  
    7     1.003e-02  
    8     1.433e-03  
    9     5.265e-04  
   10     9.994e-05  
   11     2.862e-05  
   12     5.101e-06  
   13     1.211e-06  
   14     4.419e-07  Converged.
   ... Converged in 14 steps (norm: 4.41945e-07)
------------------------------------
  Starting TPA DIIS iterations ... 
------------------------------------ 
   It     Res. Norm  Remark
------------------------------------
                       Guess.
    1     6.991e-01  
    2     4.928e-01  
    3     1.726e-01  
    4     9.455e-02  
    5     1.892e-02  
    6     6.648e-03  
    7     1.049e-03  
    8     3.994e-04  
    9     1.023e-04  
   10     2.279e-05  
   11     6.117e-06  
   12     1.753e-06  
   13     1.684e-06  
   14     5.182e-07  Converged.
   ... Converged in 14 steps (norm: 5.18151e-07)
------------------------------------
  Starting TPA DIIS iterations ... 
------------------------------------ 
   It     Res. Norm  Remark
------------------------------------
                       Guess.
    1     6.878e+00  
    2     1.032e+01  
    3     1.542e+00  
    4     4.563e-01  
    5     1.340e-01  
    6     4.602e-02  
    7     1.388e-02  
    8     1.892e-03  
    9     7.153e-04  
   10     1.391e-04  
   11     4.046e-05  
   12     7.459e-06  
   13     1.721e-06  
   14     6.450e-07  Converged.
   ... Converged in 14 steps (norm: 6.45008e-07)
------------------------------------
  Starting TPA DIIS iterations ... 
------------------------------------ 
   It     Res. Norm  Remark
------------------------------------
                       Guess.
    1     6.539e+00  
    2     9.801e+00  
    3     1.467e+00  
    4     4.524e-01  
    5     1.336e-01  
    6     4.638e-02  
    7     1.360e-02  
    8     1.928e-03  
    9     7.246e-04  
   10     1.390e-04  
   11     4.097e-05  
   12     7.364e-06  
   13     1.783e-06  
   14     6.761e-07  Converged.
   ... Converged in 14 steps (norm: 6.76118e-07)
------------------------------------
  Starting TPA DIIS iterations ... 
------------------------------------ 
   It     Res. Norm  Remark
------------------------------------
                       Guess.
    1     7.293e-01  
    2     5.387e-01  
    3     1.990e-01  
    4     1.320e-01  
    5     2.243e-02  
    6     8.293e-03  
    7     1.384e-03  
    8     5.768e-04  
    9     1.581e-04  
   10     4.908e-05  
   11     1.012e-05  
   12     3.143e-06  
   13     3.089e-06  
   14     1.019e-06  
   15     5.348e-07  Converged.
   ... Converged in 15 steps (norm: 5.34817e-07)
------------------------------------
  Starting TPA DIIS iterations ... 
------------------------------------ 
   It     Res. Norm  Remark
------------------------------------
                       Guess.
    1     7.494e+00  
    2     1.156e+01  
    3     1.691e+00  
    4     5.222e-01  
    5     1.549e-01  
    6     5.331e-02  
    7     1.604e-02  
    8     2.174e-03  
    9     8.319e-04  
   10     1.624e-04  
   11     4.793e-05  
   12     8.845e-06  
   13     2.058e-06  
   14     7.867e-07  Converged.
   ... Converged in 14 steps (norm: 7.86708e-07)
------------------------------------
  Starting TPA DIIS iterations ... 
------------------------------------ 
   It     Res. Norm  Remark
------------------------------------
                       Guess.
    1     7.124e+00  
    2     1.098e+01  
    3     1.610e+00  
    4     5.173e-01  
    5     1.545e-01  
    6     5.377e-02  
    7     1.572e-02  
    8     2.218e-03  
    9     8.428e-04  
   10     1.623e-04  
   11     4.850e-05  
   12     8.735e-06  
   13     2.148e-06  
   14     8.338e-07  Converged.
   ... Converged in 14 steps (norm: 8.3385e-07)
------------------------------------
  Starting TPA DIIS iterations ... 
------------------------------------ 
   It     Res. Norm  Remark
------------------------------------
                       Guess.
    1     7.438e-01  
    2     5.622e-01  
    3     2.131e-01  
    4     1.541e-01  
    5     2.445e-02  
    6     9.257e-03  
    7     1.593e-03  
    8     6.999e-04  
    9     2.019e-04  
   10     6.361e-05  
   11     1.255e-05  
   12     4.470e-06  
   13     4.070e-06  
   14     1.399e-06  
   15     7.121e-07  Converged.
   ... Converged in 15 steps (norm: 7.12064e-07)
------------------------------------
  Starting TPA DIIS iterations ... 
------------------------------------ 
   It     Res. Norm  Remark
------------------------------------
                       Guess.
    1     7.873e+00  
    2     1.234e+01  
    3     1.783e+00  
    4     5.639e-01  
    5     1.681e-01  
    6     5.796e-02  
    7     1.741e-02  
    8     2.353e-03  
    9     9.062e-04  
   10     1.773e-04  
   11     5.274e-05  
   12     9.731e-06  
   13     2.280e-06  
   14     8.827e-07  Converged.
   ... Converged in 14 steps (norm: 8.82671e-07)
------------------------------------
  Starting TPA DIIS iterations ... 
------------------------------------ 
   It     Res. Norm  Remark
------------------------------------
                       Guess.
    1     7.483e+00  
    2     1.173e+01  
    3     1.697e+00  
    4     5.584e-01  
    5     1.678e-01  
    6     5.849e-02  
    7     1.706e-02  
    8     2.401e-03  
    9     9.182e-04  
   10     1.772e-04  
   11     5.334e-05  
   12     9.613e-06  
   13     2.389e-06  
   14     9.420e-07  Converged.
   ... Converged in 14 steps (norm: 9.42037e-07)
------------------------------------
  Starting TPA DIIS iterations ... 
------------------------------------ 
   It     Res. Norm  Remark
------------------------------------
                       Guess.
    1     7.521e-01  
    2     5.762e-01  
    3     2.216e-01  
    4     1.679e-01  
    5     2.571e-02  
    6     9.866e-03  
    7     1.729e-03  
    8     7.830e-04  
    9     2.321e-04  
   10     7.086e-05  
   11     1.417e-05  
   12     5.514e-06  
   13     4.735e-06  
   14     1.664e-06  
   15     8.324e-07  Converged.
   ... Converged in 15 steps (norm: 8.32358e-07)
------------------------------------
  Starting TPA DIIS iterations ... 
------------------------------------ 
   It     Res. Norm  Remark
------------------------------------
                       Guess.
    1     8.949e+00  
    2     1.463e+01  
    3     2.042e+00  
    4     6.869e-01  
    5     2.075e-01  
    6     7.177e-02  
    7     2.146e-02  
    8     2.877e-03  
    9     1.127e-03  
   10     2.215e-04  
   11     6.716e-05  
   12     1.237e-05  
   13     2.966e-06  
   14     1.197e-06  
   15     4.589e-07  Converged.
   ... Converged in 15 steps (norm: 4.58928e-07)
------------------------------------
  Starting TPA DIIS iterations ... 
------------------------------------ 
   It     Res. Norm  Remark
------------------------------------
                       Guess.
    1     8.505e+00  
    2     1.390e+01  
    3     1.942e+00  
    4     6.794e-01  
    5     2.072e-01  
    6     7.251e-02  
    7     2.103e-02  
    8     2.940e-03  
    9     1.143e-03  
   10     2.215e-04  
   11     6.784e-05  
   12     1.223e-05  
   13     3.146e-06  
   14     1.302e-06  
   15     5.074e-07  Converged.
   ... Converged in 15 steps (norm: 5.07441e-07)
------------------------------------
  Starting TPA DIIS iterations ... 
------------------------------------ 
   It     Res. Norm  Remark
------------------------------------
                       Guess.
    1     7.734e-01  
    2     6.138e-01  
    3     2.450e-01  
    4     2.071e-01  
    5     2.942e-02  
    6     1.166e-02  
    7     2.151e-03  
    8     1.038e-03  
    9     3.250e-04  
   10     8.316e-05  
   11     1.954e-05  
   12     9.316e-06  
   13     6.821e-06  
   14     2.500e-06  
   15     1.204e-06  
   16     2.326e-07  Converged.
   ... Converged in 16 steps (norm: 2.32648e-07)
------------------------------------
  Starting TPA DIIS iterations ... 
------------------------------------ 
   It     Res. Norm  Remark
------------------------------------
                       Guess.
    1     9.815e+00  
    2     1.653e+01  
    3     2.247e+00  
    4     7.902e-01  
    5     2.408e-01  
    6     8.349e-02  
    7     2.488e-02  
    8     3.315e-03  
    9     1.315e-03  
   10     2.590e-04  
   11     7.946e-05  
   12     1.459e-05  
   13     3.580e-06  
   14     1.500e-06  
   15     5.922e-07  Converged.
   ... Converged in 15 steps (norm: 5.92163e-07)
------------------------------------
  Starting TPA DIIS iterations ... 
------------------------------------ 
   It     Res. Norm  Remark
------------------------------------
                       Guess.
    1     9.326e+00  
    2     1.570e+01  
    3     2.138e+00  
    4     7.809e-01  
    5     2.405e-01  
    6     8.442e-02  
    7     2.437e-02  
    8     3.391e-03  
    9     1.333e-03  
   10     2.591e-04  
   11     8.019e-05  
   12     1.446e-05  
   13     3.835e-06  
   14     1.653e-06  
   15     6.568e-07  Converged.
   ... Converged in 15 steps (norm: 6.568e-07)
------------------------------------
  Starting TPA DIIS iterations ... 
------------------------------------ 
   It     Res. Norm  Remark
------------------------------------
                       Guess.
    1     7.886e-01  
    2     6.423e-01  
    3     2.633e-01  
    4     2.379e-01  
    5     3.250e-02  
    6     1.316e-02  
    7     2.528e-03  
    8     1.250e-03  
    9     4.016e-04  
   10     8.685e-05  
   11     2.494e-05  
   12     1.288e-05  
   13     8.642e-06  
   14     3.194e-06  
   15     1.510e-06  
   16     2.821e-07  Converged.
   ... Converged in 16 steps (norm: 2.8209e-07)
------------------------------------
  Starting TPA DIIS iterations ... 
------------------------------------ 
   It     Res. Norm  Remark
------------------------------------
                       Guess.
    1     1.772e+01  
    2     3.618e+01  
    3     4.036e+00  
    4     1.841e+00  
    5     5.934e-01  
    6     2.097e-01  
    7     6.082e-02  
    8     7.820e-03  
    9     3.339e-03  
   10     6.604e-04  
   11     2.081e-04  
   12     3.807e-05  
   13     1.216e-05  
   14     7.014e-06  
   15     2.567e-06  
   16     1.402e-06  
   17     2.866e-07  Converged.
   ... Converged in 17 steps (norm: 2.86565e-07)
------------------------------------
  Starting TPA DIIS iterations ... 
------------------------------------ 
   It     Res. Norm  Remark
------------------------------------
                       Guess.
    1     1.683e+01  
    2     3.436e+01  
    3     3.837e+00  
    4     1.808e+00  
    5     5.933e-01  
    6     2.130e-01  
    7     5.952e-02  
    8     8.042e-03  
    9     3.390e-03  
   10     6.623e-04  
   11     2.104e-04  
   12     3.960e-05  
   13     1.403e-05  
   14     8.198e-06  
   15     2.663e-06  
   16     1.428e-06  
   17     2.669e-07  Converged.
   ... Converged in 17 steps (norm: 2.66878e-07)
------------------------------------
  Starting TPA DIIS iterations ... 
------------------------------------ 
   It     Res. Norm  Remark
------------------------------------
                       Guess.
    1     8.848e-01  
    2     8.657e-01  
    3     4.140e-01  
    4     4.259e-01  
    5     6.242e-02  
    6     2.715e-02  
    7     6.963e-03  
    8     2.315e-03  
    9     9.901e-04  
   10     2.175e-04  
   11     1.350e-04  
   12     2.412e-05  
   13     2.273e-05  
   14     3.106e-06  
   15     1.407e-06  
   16     2.742e-07  Converged.
   ... Converged in 16 steps (norm: 2.74196e-07)
------------------------------------
  Starting TPA DIIS iterations ... 
------------------------------------ 
   It     Res. Norm  Remark
------------------------------------
                       Guess.
    1     1.981e+01  
    2     4.198e+01  
    3     4.486e+00  
    4     2.139e+00  
    5     6.980e-01  
    6     2.477e-01  
    7     7.144e-02  
    8     9.132e-03  
    9     3.951e-03  
   10     7.804e-04  
   11     2.457e-04  
   12     4.547e-05  
   13     1.553e-05  
   14     9.473e-06  
   15     3.213e-06  
   16     1.779e-06  
   17     3.644e-07  Converged.
   ... Converged in 17 steps (norm: 3.64362e-07)
------------------------------------
  Starting TPA DIIS iterations ... 
------------------------------------ 
   It     Res. Norm  Remark
------------------------------------
                       Guess.
    1     1.882e+01  
    2     3.987e+01  
    3     4.264e+00  
    4     2.098e+00  
    5     6.979e-01  
    6     2.518e-01  
    7     6.990e-02  
    8     9.400e-03  
    9     4.013e-03  
   10     7.835e-04  
   11     2.491e-04  
   12     4.820e-05  
   13     1.816e-05  
   14     1.114e-05  
   15     3.253e-06  
   16     1.746e-06  
   17     3.159e-07  Converged.
   ... Converged in 17 steps (norm: 3.15904e-07)
------------------------------------
  Starting TPA DIIS iterations ... 
------------------------------------ 
   It     Res. Norm  Remark
------------------------------------
                       Guess.
    1     9.034e-01  
    2     9.198e-01  
    3     4.504e-01  
    4     4.515e-01  
    5     7.051e-02  
    6     3.041e-02  
    7     8.271e-03  
    8     2.396e-03  
    9     1.137e-03  
   10     2.874e-04  
   11     1.852e-04  
   12     3.111e-05  
   13     2.129e-05  
   14     3.007e-06  
   15     1.036e-06  
   16     4.846e-07  Converged.
   ... Converged in 16 steps (norm: 4.84588e-07)
------------------------------------
  Starting TPA DIIS iterations ... 
------------------------------------ 
   It     Res. Norm  Remark
------------------------------------
                       Guess.
    1     2.006e+01  
    2     4.267e+01  
    3     4.538e+00  
    4     2.174e+00  
    5     7.104e-01  
    6     2.523e-01  
    7     7.270e-02  
    8     9.287e-03  
    9     4.023e-03  
   10     7.947e-04  
   11     2.502e-04  
   12     4.637e-05  
   13     1.596e-05  
   14     9.789e-06  
   15     3.288e-06  
   16     1.822e-06  
   17     3.722e-07  Converged.
   ... Converged in 17 steps (norm: 3.72171e-07)
------------------------------------
  Starting TPA DIIS iterations ... 
------------------------------------ 
   It     Res. Norm  Remark
------------------------------------
                       Guess.
    1     1.905e+01  
    2     4.052e+01  
    3     4.313e+00  
    4     2.132e+00  
    5     7.103e-01  
    6     2.565e-01  
    7     7.113e-02  
    8     9.560e-03  
    9     4.087e-03  
   10     7.979e-04  
   11     2.537e-04  
   12     4.927e-05  
   13     1.868e-05  
   14     1.151e-05  
   15     3.321e-06  
   16     1.781e-06  
   17     3.207e-07  Converged.
   ... Converged in 17 steps (norm: 3.20705e-07)
------------------------------------
  Starting TPA DIIS iterations ... 
------------------------------------ 
   It     Res. Norm  Remark
------------------------------------
                       Guess.
    1     9.055e-01  
    2     9.260e-01  
    3     4.546e-01  
    4     4.541e-01  
    5     7.145e-02  
    6     3.077e-02  
    7     8.423e-03  
    8     2.405e-03  
    9     1.154e-03  
   10     2.963e-04  
   11     1.917e-04  
   12     3.285e-05  
   13     2.076e-05  
   14     3.064e-06  
   15     1.030e-06  
   16     4.928e-07  Converged.
   ... Converged in 16 steps (norm: 4.92755e-07)
------------------------------------
  Starting TPA DIIS iterations ... 
------------------------------------ 
   It     Res. Norm  Remark
------------------------------------
                       Guess.
    1     3.350e+01  
    2     8.473e+01  
    3     7.222e+00  
    4     4.140e+00  
    5     1.455e+00  
    6     5.303e-01  
    7     1.485e-01  
    8     1.857e-02  
    9     8.506e-03  
   10     1.663e-03  
   11     5.313e-04  
   12     1.158e-04  
   13     5.201e-05  
   14     3.826e-05  
   15     8.354e-06  
   16     4.543e-06  
   17     1.255e-06  
   18     6.766e-07  Converged.
   ... Converged in 18 steps (norm: 6.76557e-07)
------------------------------------
  Starting TPA DIIS iterations ... 
------------------------------------ 
   It     Res. Norm  Remark
------------------------------------
                       Guess.
    1     3.181e+01  
    2     8.046e+01  
    3     6.861e+00  
    4     4.036e+00  
    5     1.453e+00  
    6     5.404e-01  
    7     1.452e-01  
    8     1.921e-02  
    9     8.682e-03  
   10     1.681e-03  
   11     5.511e-04  
   12     1.357e-04  
   13     6.410e-05  
   14     4.578e-05  
   15     8.622e-06  
   16     4.891e-06  
   17     1.608e-06  
   18     7.046e-07  Converged.
   ... Converged in 18 steps (norm: 7.04551e-07)
------------------------------------
  Starting TPA DIIS iterations ... 
------------------------------------ 
   It     Res. Norm  Remark
------------------------------------
                       Guess.
    1     9.996e-01  
    2     1.277e+00  
    3     6.554e-01  
    4     5.501e-01  
    5     1.220e-01  
    6     4.376e-02  
    7     1.659e-02  
    8     3.753e-03  
    9     2.343e-03  
   10     1.020e-03  
   11     7.569e-04  
   12     3.587e-04  
   13     1.012e-04  
   14     8.793e-06  
   15     3.436e-06  
   16     1.971e-06  
   17     4.122e-07  Converged.
   ... Converged in 17 steps (norm: 4.12154e-07)
------------------------------------
  Two-photon absorbption ...  CPU 175.83 s  wall 45.46 s
  Transition density matrix of state singlet_A_1 printed to ASCII file 'State_singlet_A_1_Transition.txt'
  Transition density matrix of state singlet_A_2 printed to ASCII file 'State_singlet_A_2_Transition.txt'
  Transition density matrix of state singlet_A_3 printed to ASCII file 'State_singlet_A_3_Transition.txt'
  Transition density matrix of state singlet_A_4 printed to ASCII file 'State_singlet_A_4_Transition.txt'
  Transition density matrix of state singlet_A_5 printed to ASCII file 'State_singlet_A_5_Transition.txt'
  Transition density matrix of state singlet_A_6 printed to ASCII file 'State_singlet_A_6_Transition.txt'
  Transition density matrix of state singlet_A_7 printed to ASCII file 'State_singlet_A_7_Transition.txt'
  Transition density matrix of state singlet_A_8 printed to ASCII file 'State_singlet_A_8_Transition.txt'
  Transition density matrix of state singlet_A_9 printed to ASCII file 'State_singlet_A_9_Transition.txt'
  Transition density matrix of state singlet_A_10 printed to ASCII file 'State_singlet_A_10_Transition.txt'
  Transition properties ...  CPU 0.36 s  wall 0.53 s
  Difference density matrix of state singlet_A_1 printed to ASCII file 'State_singlet_A_1_Difference.txt'
  Total density matrix of state singlet_A_1 printed to ASCII file 'State_singlet_A_1_Total.txt'
  Difference density matrix of state singlet_A_2 printed to ASCII file 'State_singlet_A_2_Difference.txt'
  Total density matrix of state singlet_A_2 printed to ASCII file 'State_singlet_A_2_Total.txt'
  Difference density matrix of state singlet_A_3 printed to ASCII file 'State_singlet_A_3_Difference.txt'
  Total density matrix of state singlet_A_3 printed to ASCII file 'State_singlet_A_3_Total.txt'
  Difference density matrix of state singlet_A_4 printed to ASCII file 'State_singlet_A_4_Difference.txt'
  Total density matrix of state singlet_A_4 printed to ASCII file 'State_singlet_A_4_Total.txt'
  Difference density matrix of state singlet_A_5 printed to ASCII file 'State_singlet_A_5_Difference.txt'
  Total density matrix of state singlet_A_5 printed to ASCII file 'State_singlet_A_5_Total.txt'
  Difference density matrix of state singlet_A_6 printed to ASCII file 'State_singlet_A_6_Difference.txt'
  Total density matrix of state singlet_A_6 printed to ASCII file 'State_singlet_A_6_Total.txt'
  Difference density matrix of state singlet_A_7 printed to ASCII file 'State_singlet_A_7_Difference.txt'
  Total density matrix of state singlet_A_7 printed to ASCII file 'State_singlet_A_7_Total.txt'
  Difference density matrix of state singlet_A_8 printed to ASCII file 'State_singlet_A_8_Difference.txt'
  Total density matrix of state singlet_A_8 printed to ASCII file 'State_singlet_A_8_Total.txt'
  Difference density matrix of state singlet_A_9 printed to ASCII file 'State_singlet_A_9_Difference.txt'
  Total density matrix of state singlet_A_9 printed to ASCII file 'State_singlet_A_9_Total.txt'
  Difference density matrix of state singlet_A_10 printed to ASCII file 'State_singlet_A_10_Difference.txt'
  Total density matrix of state singlet_A_10 printed to ASCII file 'State_singlet_A_10_Total.txt'
  Properties ...  CPU 0.77 s  wall 1.08 s
  ISR TDMS ...  CPU 31.95 s  wall 9.48 s
  ISR transition properties ...  CPU 0.52 s  wall 0.25 s
  Sum-over-states TPA ...  CPU 0.00 s  wall 0.00 s

--------------------------------------------------------------------------------
                   State-averaged natural transition orbitals
--------------------------------------------------------------------------------
--------------------------------------------------------------------------------
  SA-NTO decomposition ...  CPU 0.01 s  wall 0.04 s

--------------------------------------------------------------------------------
                             Excited State Summary
--------------------------------------------------------------------------------
--------------------------------------------------------------------------------

  Excited state 1 (singlet, A)                                     [converged]
  ----------------------------------------------------------------------------
  Term symbol:  2 (1) A                                     R^2 =  2.56350e-09

  Total energy:                                            -78.0207564655 a.u.
  Excitation energy:                                               7.916764 eV

  Osc. strength:                                                      0.392862
  Trans. dip. moment [a.u.]:           [   1.031939,   -0.980060,   -0.009557]
  <i|r^2|0> [a.u.]:                    [   6.089460,   -0.241837,    0.000093]
  Two-photon absorption cross-section (SoS) [a.u.]:                   0.000000
  Two-photon absorption matrix (SoS) [a.u.]:
                                       |    0.000018    0.000004   -0.000019 |
                                       |    0.000004    0.000033   -0.000057 |
                                       |   -0.000019   -0.000057    0.000006 |
  Two-photon absorption cross-section [a.u.]:                         0.000000
  Two-photon absorption matrix [a.u.]:
                                       |    0.000008   -0.000002   -0.000105 |
                                       |   -0.000002   -0.000013   -0.000083 |
                                       |   -0.000105   -0.000083   -0.000012 |

  Dip. moment [a.u.]:                  [  -0.000004,    0.000001,    0.000023]
  Total dipole [Debye]:                                               0.000059
  <r^2> [a.u.]:                        [ 178.131373,   37.411967,   11.950780]
  Total <r^2> [a.u.]:                                               227.494120

  V1^2 = 0.9712, V2^2 = 0.0288

  Important amplitudes:
      occ i     occ j     vir a      vir b          v   
    -----------------------------------------------------
     8 (A) A              9 (A) A                 0.6790
     6 (A) A             14 (A) A                -0.0851
     4 (A) A             10 (A) A                 0.0547
     7 (A) A             16 (A) A                 0.0489
     6 (A) A             23 (A) A                -0.0483
     6 (A) A             19 (A) A                -0.0476
     5 (A) A             13 (A) A                -0.0455
     8 (A) A             20 (A) A                 0.0388
     3 (A) A             12 (A) A                -0.0294
     7 (A) A             11 (A) A                -0.0272
     8 (A) A   8 (A) B   17 (A) A   20 (A) B      0.0191
     5 (A) A             22 (A) A                 0.0187
     3 (A) A             26 (A) A                 0.0171
     4 (A) A             24 (A) A                 0.0171
     8 (A) A   8 (A) B    9 (A) A   27 (A) B      0.0170
     3 (A) A             14 (A) A                -0.0150
     7 (A) A             21 (A) A                 0.0147
     3 (A) A             19 (A) A                -0.0138
     6 (A) A             26 (A) A                 0.0137
     3 (A) A   4 (A) B    9 (A) A    9 (A) B     -0.0135
     8 (A) A   8 (A) B   18 (A) A   19 (A) B      0.0108
     7 (A) A             32 (A) A                 0.0090
     8 (A) A   8 (A) B   25 (A) A   29 (A) B      0.0078
     7 (A) A             36 (A) A                 0.0077
     3 (A) A             23 (A) A                -0.0074
     6 (A) A   8 (A) A   19 (A) A   27 (A) A      0.0070
     3 (A) A   6 (A) B    9 (A) A   27 (A) B      0.0068
     6 (A) A             35 (A) A                 0.0065
     6 (A) A             40 (A) A                -0.0064
     6 (A) A   8 (A) A    9 (A) A   18 (A) A     -0.0060
     5 (A) A   7 (A) B    9 (A) A    9 (A) B     -0.0060
     5 (A) A   8 (A) B   11 (A) A   20 (A) B      0.0058
     8 (A) A   8 (A) B   19 (A) A   30 (A) B      0.0058
     7 (A) A   8 (A) B   13 (A) A   20 (A) B      0.0057
     7 (A) A   8 (A) B   22 (A) A   20 (A) B     -0.0055
     3 (A) A   5 (A) B    9 (A) A   25 (A) B     -0.0055
     5 (A) A             28 (A) A                -0.0055
     5 (A) A   8 (A) B   16 (A) A    9 (A) B     -0.0053
     4 (A) A   8 (A) B   12 (A) A   20 (A) B      0.0052
     5 (A) A   8 (A) A   11 (A) A   20 (A) A      0.0052
    -----------------------------------------------------

  Density matrix analysis:
  ------------------------
  NOs
    Occupation of frontier NOs:
       0.9452   1.0249
    Number of electrons: 16.000000
    Number of unpaired electrons: n_u =  2.32348, n_u,nl =  2.03875
    NO participation ratio (PR_NO):  2.908320
  
  
  Mulliken Population Analysis
  Atom      Charge (e)              h+              e-           Del q
  --------------------------------------------------------------------
   1 H        0.064107        0.016519       -0.012319        0.004200
   2 C       -0.128218        0.483544       -0.491943       -0.008399
   3 H        0.064116        0.016519       -0.012320        0.004200
   4 C       -0.128227        0.483544       -0.491944       -0.008400
   5 H        0.064116        0.016519       -0.012319        0.004200
   6 H        0.064106        0.016519       -0.012319        0.004200
  --------------------------------------------------------------------
  Sum:       -0.000000        1.033165       -1.033165       -0.000000
  
  Multipole moment analysis of the density matrix
    Molecular charge:                      -0.000000
    Number of electrons:                   16.000000
      Center of electronic charge [Ang]: [ -1.561339,  -0.065286,   0.002126]
    Total nuclear charge:                  16.000000
      Center of nuclear charge [Ang]:    [ -1.561339,  -0.065286,   0.002127]
    Dipole moment [D]:                     0.000059
      Cartesian components [D]:          [ -0.000011,   0.000002,   0.000058]
    RMS size of the density [Ang]:         1.240769
      Cartesian components [Ang]:        [  0.824523,   0.806544,   0.457335]
  
  Exciton analysis of the difference density matrix
    <r_h> [Ang]:                  [ -1.561336,  -0.065287,   0.002119]
    <r_e> [Ang]:                  [ -1.561336,  -0.065287,   0.002115]
    |<r_e - r_h>| [Ang]:            0.000003
    Hole size [Ang]:                1.301594
      Cartesian components [Ang]: [  0.739346,   0.722390,   0.790991]
    Electron size [Ang]:            1.461974
      Cartesian components [Ang]: [  0.858870,   0.835253,   0.837893]

  Transition density matrix analysis:
  -----------------------------------
  
  CT numbers (Mulliken)
    omega =     0.9524
    <Phe> =    -0.1829
  
  Exciton analysis of the transition density matrix
    Trans. dipole moment [D]:             1.808711
      Cartesian components [D]:         [  1.311463,  -1.245532,  -0.012146]
    <r_h> [Ang]:                        [ -1.561335,  -0.065288,   0.002121]
    <r_e> [Ang]:                        [ -1.561336,  -0.065286,   0.002114]
    |<r_e - r_h>| [Ang]:                  0.000007
    Hole size [Ang]:                      1.251480
      Cartesian components [Ang]:       [  0.679006,   0.664278,   0.814794]
    Electron size [Ang]:                  1.473301
      Cartesian components [Ang]:       [  0.863877,   0.838599,   0.849166]
    RMS electron-hole separation [Ang]:   1.966877
      Cartesian components [Ang]:       [  1.137349,   1.104237,   1.164347]
    Covariance(r_h, r_e) [Ang^2]:        -0.065893
    Correlation coefficient:             -0.035738
    Center-of-mass size [Ang]:            0.949346
      Cartesian components [Ang]:       [  0.529411,   0.517129,   0.594609]

  Decomposition into state-averaged NTOs
    H- 0 -> L+ 0: -0.6668 ( 88.9%)
    H- 1 -> L+ 5:  0.1042 (  2.2%)
    H- 4 -> L+ 6:  0.0801 (  1.3%)
                   omega =  95.2%
  ----------------------------------------------------------------------------


  Excited state 2 (singlet, A)                                     [converged]
  ----------------------------------------------------------------------------
  Term symbol:  3 (1) A                                     R^2 =  2.74613e-12

  Total energy:                                            -77.9931185859 a.u.
  Excitation energy:                                               8.668829 eV

  Osc. strength:                                                      0.023262
  Trans. dip. moment [a.u.]:           [   0.015799,    0.019980,   -0.329968]
  <i|r^2|0> [a.u.]:                    [   0.093083,    0.005060,    0.002656]
  Two-photon absorption cross-section (SoS) [a.u.]:                   0.000006
  Two-photon absorption matrix (SoS) [a.u.]:
                                       |   -0.000802   -0.000024   -0.000111 |
                                       |   -0.000024    0.000899    0.000007 |
                                       |   -0.000111    0.000007    0.000128 |
  Two-photon absorption cross-section [a.u.]:                         0.000003
  Two-photon absorption matrix [a.u.]:
                                       |   -0.000516   -0.000049   -0.000104 |
                                       |   -0.000049    0.000721    0.000035 |
                                       |   -0.000104    0.000035    0.000090 |

  Dip. moment [a.u.]:                  [   0.000023,    0.000059,   -0.000014]
  Total dipole [Debye]:                                               0.000165
  <r^2> [a.u.]:                        [ 182.779075,   42.302919,   11.133653]
  Total <r^2> [a.u.]:                                               236.215648

  V1^2 = 0.9594, V2^2 = 0.0406

  Important amplitudes:
      occ i     occ j     vir a      vir b          v   
    -----------------------------------------------------
     8 (A) A             10 (A) A                 0.6891
     8 (A) A             24 (A) A                 0.0497
     8 (A) A             18 (A) A                -0.0315
     8 (A) A             15 (A) A                 0.0247
     4 (A) A              9 (A) A                 0.0247
     8 (A) A   8 (A) B    9 (A) A   12 (A) B     -0.0241
     8 (A) A   8 (A) B   10 (A) A   17 (A) B     -0.0156
     5 (A) A   8 (A) B   11 (A) A   10 (A) B     -0.0151
     7 (A) A   8 (A) B   13 (A) A   10 (A) B     -0.0132
     4 (A) A   8 (A) B   12 (A) A   10 (A) B     -0.0108
     6 (A) A   8 (A) A   10 (A) A   18 (A) A     -0.0106
     7 (A) A   8 (A) B   22 (A) A   10 (A) B      0.0102
     4 (A) A   8 (A) A   10 (A) A   12 (A) A      0.0102
     7 (A) A   8 (A) A   10 (A) A   22 (A) A     -0.0092
     6 (A) A   8 (A) B   15 (A) A   10 (A) B      0.0091
     5 (A) A   8 (A) B   21 (A) A   10 (A) B      0.0090
     7 (A) A   8 (A) A   10 (A) A   13 (A) A      0.0089
     6 (A) A   8 (A) A   10 (A) A   15 (A) A     -0.0089
     8 (A) A   8 (A) B    9 (A) A   23 (A) B      0.0088
     3 (A) A   4 (A) B   10 (A) A    9 (A) B     -0.0081
     6 (A) A   8 (A) B   18 (A) A   10 (A) B      0.0080
     5 (A) A   8 (A) A   10 (A) A   11 (A) A      0.0079
     6 (A) A   8 (A) B   10 (A) A   10 (A) B     -0.0077
     3 (A) A   8 (A) B   10 (A) A   10 (A) B      0.0077
     7 (A) A   8 (A) A   12 (A) A   16 (A) A     -0.0076
     5 (A) A   8 (A) A   10 (A) A   21 (A) A     -0.0074
     8 (A) A   8 (A) B   10 (A) A   27 (A) B      0.0074
     3 (A) A   8 (A) A   10 (A) A   24 (A) A     -0.0073
     5 (A) A   8 (A) B   10 (A) A   11 (A) B     -0.0073
     4 (A) A   8 (A) B   19 (A) A   10 (A) B     -0.0070
     7 (A) A   8 (A) B   16 (A) A   12 (A) B      0.0066
     8 (A) A   8 (A) B    9 (A) A   14 (A) B      0.0066
     6 (A) A   8 (A) A   12 (A) A   14 (A) A      0.0066
     3 (A) A   6 (A) B   10 (A) A   27 (A) B      0.0064
     3 (A) A   8 (A) B   10 (A) A   18 (A) B     -0.0064
     6 (A) A   8 (A) B   14 (A) A   12 (A) B     -0.0063
     8 (A) A   8 (A) B    9 (A) A   19 (A) B     -0.0063
     6 (A) A             27 (A) A                -0.0058
     6 (A) A   8 (A) A   11 (A) A   16 (A) A      0.0057
     7 (A) A   8 (A) B   12 (A) A   11 (A) B      0.0056
    -----------------------------------------------------

  Density matrix analysis:
  ------------------------
  NOs
    Occupation of frontier NOs:
       0.9791   0.9834
    Number of electrons: 16.000000
    Number of unpaired electrons: n_u =  2.29267, n_u,nl =  2.02646
    NO participation ratio (PR_NO):  2.719493
  
  
  Mulliken Population Analysis
  Atom      Charge (e)              h+              e-           Del q
  --------------------------------------------------------------------
   1 H       -0.149631        0.050369       -0.259908       -0.209539
   2 C        0.299274        0.535761       -0.116667        0.419093
   3 H       -0.149646        0.050371       -0.259934       -0.209562
   4 C        0.299266        0.535755       -0.116662        0.419093
   5 H       -0.149625        0.050372       -0.259913       -0.209541
   6 H       -0.149638        0.050370       -0.259914       -0.209544
  --------------------------------------------------------------------
  Sum:        0.000000        1.272999       -1.272999        0.000000
  
  Multipole moment analysis of the density matrix
    Molecular charge:                      0.000000
    Number of electrons:                   16.000000
      Center of electronic charge [Ang]: [ -1.561339,  -0.065288,   0.002128]
    Total nuclear charge:                  16.000000
      Center of nuclear charge [Ang]:    [ -1.561339,  -0.065286,   0.002127]
    Dipole moment [D]:                     0.000165
      Cartesian components [D]:          [  0.000059,   0.000150,  -0.000036]
    RMS size of the density [Ang]:         1.300825
      Cartesian components [Ang]:        [  0.872456,   0.857971,   0.441423]
  
  Exciton analysis of the difference density matrix
    <r_h> [Ang]:                  [ -1.561337,  -0.065290,   0.002122]
    <r_e> [Ang]:                  [ -1.561348,  -0.065314,   0.002135]
    |<r_e - r_h>| [Ang]:            0.000029
    Hole size [Ang]:                1.433066
      Cartesian components [Ang]: [  0.848587,   0.833588,   0.799193]
    Electron size [Ang]:            2.081317
      Cartesian components [Ang]: [  1.377490,   1.383270,   0.721780]

  Transition density matrix analysis:
  -----------------------------------
  
  CT numbers (Mulliken)
    omega =     0.9223
    <Phe> =    -0.0119
  
  Exciton analysis of the transition density matrix
    Trans. dipole moment [D]:             0.420595
      Cartesian components [D]:         [  0.020078,   0.025392,  -0.419348]
    <r_h> [Ang]:                        [ -1.561335,  -0.065289,   0.002118]
    <r_e> [Ang]:                        [ -1.561351,  -0.065323,   0.002138]
    |<r_e - r_h>| [Ang]:                  0.000043
    Hole size [Ang]:                      1.253470
      Cartesian components [Ang]:       [  0.667660,   0.653284,   0.835845]
    Electron size [Ang]:                  2.288191
      Cartesian components [Ang]:       [  1.512958,   1.521964,   0.793979]
    RMS electron-hole separation [Ang]:   2.596741
      Cartesian components [Ang]:       [  1.644245,   1.647436,   1.151292]
    Covariance(r_h, r_e) [Ang^2]:         0.031973
    Correlation coefficient:              0.011147
    Center-of-mass size [Ang]:            1.310625
      Cartesian components [Ang]:       [  0.831577,   0.832506,   0.577193]

  Decomposition into state-averaged NTOs
    H- 0 -> L+ 1:  0.6784 ( 92.0%)
                   omega =  92.2%
  ----------------------------------------------------------------------------


  Excited state 3 (singlet, A)                                     [converged]
  ----------------------------------------------------------------------------
  Term symbol:  4 (1) A                                     R^2 =  7.65696e-13

  Total energy:                                            -77.9806741388 a.u.
  Excitation energy:                                               9.007460 eV

  Osc. strength:                                                      0.000000
  Trans. dip. moment [a.u.]:           [  -0.000110,    0.000091,   -0.000003]
  <i|r^2|0> [a.u.]:                    [  -0.066047,   -0.086374,    0.151797]
  Two-photon absorption cross-section (SoS) [a.u.]:                   8.686451
  Two-photon absorption matrix (SoS) [a.u.]:
                                       |   -0.068600   -0.079171    0.709463 |
                                       |   -0.079171   -0.090670    0.746360 |
                                       |    0.709463    0.746360    0.159271 |
  Two-photon absorption cross-section [a.u.]:                         0.003053
  Two-photon absorption matrix [a.u.]:
                                       |    0.000690    0.001449   -0.012907 |
                                       |    0.001449    0.002300   -0.014340 |
                                       |   -0.012907   -0.014340   -0.002991 |

  Dip. moment [a.u.]:                  [  -0.000061,    0.000033,    0.000035]
  Total dipole [Debye]:                                               0.000197
  <r^2> [a.u.]:                        [ 176.699593,   35.981110,   13.274200]
  Total <r^2> [a.u.]:                                               225.954903

  V1^2 = 0.9501, V2^2 = 0.0499

  Important amplitudes:
      occ i     occ j     vir a      vir b          v   
    -----------------------------------------------------
     7 (A) A              9 (A) A                 0.6624
     8 (A) A             11 (A) A                -0.1715
     7 (A) A             20 (A) A                 0.0731
     5 (A) A   8 (A) B    9 (A) A    9 (A) B     -0.0353
     8 (A) A             16 (A) A                -0.0279
     8 (A) A             21 (A) A                 0.0208
     5 (A) A             27 (A) A                 0.0142
     4 (A) A   7 (A) B    9 (A) A   19 (A) B      0.0130
     5 (A) A   7 (A) B    9 (A) A   16 (A) B      0.0129
     5 (A) A   6 (A) A    9 (A) A   14 (A) A     -0.0112
     5 (A) A   6 (A) B    9 (A) A   19 (A) B     -0.0110
     7 (A) A   8 (A) B   20 (A) A   17 (A) B      0.0102
     7 (A) A   8 (A) A    9 (A) A   27 (A) A     -0.0098
     5 (A) A   8 (A) B    9 (A) A   20 (A) B     -0.0095
     4 (A) A   6 (A) B    9 (A) A   16 (A) B     -0.0091
     5 (A) A   6 (A) B    9 (A) A   14 (A) B     -0.0090
     5 (A) A   6 (A) A    9 (A) A   23 (A) A     -0.0089
     4 (A) A   5 (A) A    9 (A) A   10 (A) A     -0.0088
     8 (A) A   7 (A) B    9 (A) A   27 (A) B      0.0086
     7 (A) A   8 (A) B   17 (A) A    9 (A) B      0.0084
     7 (A) A   8 (A) B   17 (A) A   20 (A) B      0.0079
     4 (A) A   8 (A) B    9 (A) A   25 (A) B     -0.0078
     5 (A) A   7 (A) A    9 (A) A   16 (A) A      0.0077
     3 (A) A   7 (A) B    9 (A) A   18 (A) B      0.0076
     5 (A) A   6 (A) B    9 (A) A   23 (A) B     -0.0074
     4 (A) A   7 (A) B   19 (A) A    9 (A) B      0.0071
     5 (A) A   5 (A) B    9 (A) A   13 (A) B     -0.0071
     4 (A) A   5 (A) B    9 (A) A   15 (A) B     -0.0069
     6 (A) A   7 (A) B    9 (A) A   18 (A) B     -0.0069
     5 (A) A   8 (A) A    9 (A) A   20 (A) A     -0.0068
     7 (A) A   8 (A) B   19 (A) A   18 (A) B      0.0068
     5 (A) A   6 (A) A    9 (A) A   19 (A) A     -0.0065
     5 (A) A             17 (A) A                 0.0064
     6 (A) A   7 (A) A   19 (A) A   27 (A) A      0.0064
     7 (A) A   7 (A) B   20 (A) A   22 (A) B     -0.0063
     8 (A) A   8 (A) B    9 (A) A   13 (A) B     -0.0062
     4 (A) A   5 (A) B   10 (A) A    9 (A) B      0.0061
     4 (A) A   7 (A) A    9 (A) A   19 (A) A      0.0059
     7 (A) A   8 (A) A    9 (A) A   17 (A) A     -0.0059
     4 (A) A   7 (A) B    9 (A) A   14 (A) B     -0.0058
    -----------------------------------------------------

  Density matrix analysis:
  ------------------------
  NOs
    Occupation of frontier NOs:
       0.9468   1.0721
    Number of electrons: 16.000000
    Number of unpaired electrons: n_u =  2.37407, n_u,nl =  2.07967
    NO participation ratio (PR_NO):  3.160260
  
  
  Mulliken Population Analysis
  Atom      Charge (e)              h+              e-           Del q
  --------------------------------------------------------------------
   1 H        0.151131        0.120283       -0.029059        0.091224
   2 C       -0.302465        0.276133       -0.458779       -0.182646
   3 H        0.151327        0.120507       -0.029097        0.091410
   4 C       -0.302472        0.276149       -0.458795       -0.182645
   5 H        0.151334        0.120517       -0.029099        0.091418
   6 H        0.151144        0.120294       -0.029056        0.091238
  --------------------------------------------------------------------
  Sum:        0.000000        1.033883       -1.033883       -0.000000
  
  Multipole moment analysis of the density matrix
    Molecular charge:                      -0.000000
    Number of electrons:                   16.000000
      Center of electronic charge [Ang]: [ -1.561337,  -0.065288,   0.002126]
    Total nuclear charge:                  16.000000
      Center of nuclear charge [Ang]:    [ -1.561339,  -0.065286,   0.002127]
    Dipole moment [D]:                     0.000197
      Cartesian components [D]:          [ -0.000156,   0.000083,   0.000088]
    RMS size of the density [Ang]:         1.229868
      Cartesian components [Ang]:        [  0.809188,   0.790867,   0.481993]
  
  Exciton analysis of the difference density matrix
    <r_h> [Ang]:                  [ -1.561369,  -0.065261,   0.002129]
    <r_e> [Ang]:                  [ -1.561340,  -0.065277,   0.002120]
    |<r_e - r_h>| [Ang]:            0.000034
    Hole size [Ang]:                1.494050
      Cartesian components [Ang]: [  1.010572,   0.998401,   0.462738]
    Electron size [Ang]:            1.502761
      Cartesian components [Ang]: [  0.907986,   0.885963,   0.805557]

  Transition density matrix analysis:
  -----------------------------------
  
  CT numbers (Mulliken)
    omega =     0.9135
    <Phe> =    -0.0136
  
  Exciton analysis of the transition density matrix
    Trans. dipole moment [D]:             0.000181
      Cartesian components [D]:         [ -0.000139,   0.000115,  -0.000003]
    <r_h> [Ang]:                        [ -1.561374,  -0.065258,   0.002131]
    <r_e> [Ang]:                        [ -1.561334,  -0.065280,   0.002117]
    |<r_e - r_h>| [Ang]:                  0.000047
    Hole size [Ang]:                      1.517324
      Cartesian components [Ang]:       [  1.030289,   1.018225,   0.451659]
    Electron size [Ang]:                  1.499513
      Cartesian components [Ang]:       [  0.899404,   0.876649,   0.819206]
    RMS electron-hole separation [Ang]:   2.114066
      Cartesian components [Ang]:       [  1.352295,   1.329238,   0.934719]
    Covariance(r_h, r_e) [Ang^2]:         0.040769
    Correlation coefficient:              0.017918
    Center-of-mass size [Ang]:            1.076145
      Cartesian components [Ang]:       [  0.691401,   0.678918,   0.468105]

  Decomposition into state-averaged NTOs
    H- 2 -> L+ 0: -0.6530 ( 85.3%)
    H- 0 -> L+ 2:  0.1710 (  5.8%)
                   omega =  91.4%
  ----------------------------------------------------------------------------


  Excited state 4 (singlet, A)                                     [converged]
  ----------------------------------------------------------------------------
  Term symbol:  5 (1) A                                     R^2 =  2.16705e-12

  Total energy:                                            -77.9738048060 a.u.
  Excitation energy:                                               9.194384 eV

  Osc. strength:                                                      0.000000
  Trans. dip. moment [a.u.]:           [   0.000030,   -0.000021,    0.000005]
  <i|r^2|0> [a.u.]:                    [   0.084312,   -0.100340,    0.016204]
  Two-photon absorption cross-section (SoS) [a.u.]:                  12.128864
  Two-photon absorption matrix (SoS) [a.u.]:
                                       |    0.085800    0.013150   -0.891272 |
                                       |    0.013150   -0.101831    0.844137 |
                                       |   -0.891272    0.844137    0.016422 |
  Two-photon absorption cross-section [a.u.]:                         1.340843
  Two-photon absorption matrix [a.u.]:
                                       |   -0.028186   -0.004248    0.295985 |
                                       |   -0.004248    0.034218   -0.281037 |
                                       |    0.295985   -0.281037   -0.005620 |

  Dip. moment [a.u.]:                  [   0.000008,   -0.000018,    0.000031]
  Total dipole [Debye]:                                               0.000093
  <r^2> [a.u.]:                        [ 176.958667,   36.317695,   13.114861]
  Total <r^2> [a.u.]:                                               226.391224

  V1^2 = 0.9617, V2^2 = 0.0383

  Important amplitudes:
      occ i     occ j     vir a      vir b          v   
    -----------------------------------------------------
     6 (A) A              9 (A) A                -0.6747
     8 (A) A             12 (A) A                -0.1216
     6 (A) A             20 (A) A                -0.0887
     3 (A) A              9 (A) A                -0.0438
     8 (A) A             19 (A) A                -0.0228
     4 (A) A   8 (A) B    9 (A) A    9 (A) B     -0.0207
     3 (A) A             20 (A) A                -0.0146
     6 (A) A   8 (A) A    9 (A) A   17 (A) A      0.0130
     4 (A) A   6 (A) B    9 (A) A   19 (A) B     -0.0127
     8 (A) A   6 (A) B    9 (A) A   27 (A) B     -0.0117
     8 (A) A             23 (A) A                 0.0113
     4 (A) A   6 (A) A    9 (A) A   19 (A) A     -0.0102
     4 (A) A   7 (A) B    9 (A) A   16 (A) B      0.0099
     6 (A) A   8 (A) B   20 (A) A   17 (A) B     -0.0097
     3 (A) A   6 (A) B    9 (A) A   18 (A) B     -0.0092
     4 (A) A   6 (A) A    9 (A) A   14 (A) A     -0.0092
     4 (A) A   6 (A) B    9 (A) A   14 (A) B     -0.0089
     6 (A) A   8 (A) B   17 (A) A   20 (A) B     -0.0082
     6 (A) A   8 (A) A    9 (A) A   27 (A) A      0.0079
     6 (A) A   6 (A) B    9 (A) A   15 (A) B     -0.0078
     3 (A) A   8 (A) B    9 (A) A   27 (A) B     -0.0076
     6 (A) A             33 (A) A                -0.0072
     6 (A) A   8 (A) B   17 (A) A    9 (A) B     -0.0071
     6 (A) A   8 (A) B   19 (A) A   18 (A) B     -0.0068
     3 (A) A   6 (A) B    9 (A) A   34 (A) B     -0.0068
     4 (A) A             27 (A) A                 0.0067
     3 (A) A   5 (A) B    9 (A) A   16 (A) B      0.0066
     6 (A) A   6 (A) B   17 (A) A   23 (A) B     -0.0063
     3 (A) A   8 (A) B    9 (A) A   17 (A) B      0.0063
     4 (A) A   4 (A) B    9 (A) A   10 (A) B      0.0060
     6 (A) A   8 (A) B    9 (A) A   17 (A) B      0.0059
     3 (A) A   5 (A) B    9 (A) A   11 (A) B      0.0056
     4 (A) A   8 (A) B    9 (A) A   20 (A) B     -0.0056
     3 (A) A   6 (A) B    9 (A) A   15 (A) B     -0.0056
     4 (A) A   6 (A) B    9 (A) A   23 (A) B     -0.0056
     3 (A) A   6 (A) B   18 (A) A    9 (A) B     -0.0055
     4 (A) A   6 (A) A    9 (A) A   23 (A) A     -0.0054
     3 (A) A   8 (A) A    9 (A) A   17 (A) A      0.0053
     4 (A) A   7 (A) B   16 (A) A    9 (A) B      0.0052
     6 (A) A   7 (A) B   20 (A) A   22 (A) B      0.0052
    -----------------------------------------------------

  Density matrix analysis:
  ------------------------
  NOs
    Occupation of frontier NOs:
       0.9686   1.0265
    Number of electrons: 16.000000
    Number of unpaired electrons: n_u =  2.32608, n_u,nl =  2.04203
    NO participation ratio (PR_NO):  2.851182
  
  
  Mulliken Population Analysis
  Atom      Charge (e)              h+              e-           Del q
  --------------------------------------------------------------------
   1 H        0.104074        0.059213       -0.015047        0.044166
   2 C       -0.207981        0.427411       -0.515573       -0.088162
   3 H        0.103915        0.058996       -0.014998        0.043999
   4 C       -0.207988        0.427410       -0.515572       -0.088162
   5 H        0.103910        0.058994       -0.015000        0.043995
   6 H        0.104070        0.059213       -0.015049        0.044164
  --------------------------------------------------------------------
  Sum:       -0.000000        1.091238       -1.091238       -0.000000
  
  Multipole moment analysis of the density matrix
    Molecular charge:                      0.000000
    Number of electrons:                   16.000000
      Center of electronic charge [Ang]: [ -1.561339,  -0.065286,   0.002126]
    Total nuclear charge:                  16.000000
      Center of nuclear charge [Ang]:    [ -1.561339,  -0.065286,   0.002127]
    Dipole moment [D]:                     0.000093
      Cartesian components [D]:          [  0.000021,  -0.000045,   0.000078]
    RMS size of the density [Ang]:         1.232965
      Cartesian components [Ang]:        [  0.811981,   0.794583,   0.479092]
  
  Exciton analysis of the difference density matrix
    <r_h> [Ang]:                  [ -1.561333,  -0.065293,   0.002126]
    <r_e> [Ang]:                  [ -1.561340,  -0.065284,   0.002119]
    |<r_e - r_h>| [Ang]:            0.000013
    Hole size [Ang]:                1.355235
      Cartesian components [Ang]: [  0.906147,   0.880961,   0.489357]
    Electron size [Ang]:            1.404728
      Cartesian components [Ang]: [  0.837261,   0.813468,   0.781360]

  Transition density matrix analysis:
  -----------------------------------
  
  CT numbers (Mulliken)
    omega =     0.9209
    <Phe> =    -0.0144
  
  Exciton analysis of the transition density matrix
    Trans. dipole moment [D]:             0.000047
      Cartesian components [D]:         [  0.000038,  -0.000027,   0.000006]
    <r_h> [Ang]:                        [ -1.561332,  -0.065294,   0.002125]
    <r_e> [Ang]:                        [ -1.561341,  -0.065282,   0.002117]
    |<r_e - r_h>| [Ang]:                  0.000018
    Hole size [Ang]:                      1.279062
      Cartesian components [Ang]:       [  0.866579,   0.840656,   0.422300]
    Electron size [Ang]:                  1.442879
      Cartesian components [Ang]:       [  0.857404,   0.832194,   0.808833]
    RMS electron-hole separation [Ang]:   1.907525
      Cartesian components [Ang]:       [  1.202961,   1.167937,   0.909648]
    Covariance(r_h, r_e) [Ang^2]:         0.039624
    Correlation coefficient:              0.021470
    Center-of-mass size [Ang]:            0.974314
      Cartesian components [Ang]:       [  0.617472,   0.598837,   0.457612]

  Decomposition into state-averaged NTOs
    H- 1 -> L+ 0: -0.6666 ( 88.9%)
    H- 0 -> L+ 3: -0.1206 (  2.9%)
                   omega =  92.1%
  ----------------------------------------------------------------------------


  Excited state 5 (singlet, A)                                     [converged]
  ----------------------------------------------------------------------------
  Term symbol:  6 (1) A                                     R^2 =  1.89966e-12

  Total energy:                                            -77.9568635128 a.u.
  Excitation energy:                                               9.655380 eV

  Osc. strength:                                                      0.000000
  Trans. dip. moment [a.u.]:           [  -0.000085,    0.000080,    0.000004]
  <i|r^2|0> [a.u.]:                    [   0.016652,    0.022612,   -0.039747]
  Two-photon absorption cross-section (SoS) [a.u.]:                 187.303431
  Two-photon absorption matrix (SoS) [a.u.]:
                                       |    0.319620    0.367698   -3.295183 |
                                       |    0.367698    0.419950   -3.465076 |
                                       |   -3.295183   -3.465076   -0.739571 |
  Two-photon absorption cross-section [a.u.]:                       136.933739
  Two-photon absorption matrix [a.u.]:
                                       |    0.273541    0.314406   -2.817373 |
                                       |    0.314406    0.358819   -2.962862 |
                                       |   -2.817373   -2.962862   -0.632359 |

  Dip. moment [a.u.]:                  [  -0.000039,   -0.000022,   -0.000026]
  Total dipole [Debye]:                                               0.000132
  <r^2> [a.u.]:                        [ 183.272342,   42.690462,   11.027852]
  Total <r^2> [a.u.]:                                               236.990656

  V1^2 = 0.9626, V2^2 = 0.0374

  Important amplitudes:
      occ i     occ j     vir a      vir b          v   
    -----------------------------------------------------
     8 (A) A             11 (A) A                 0.6650
     7 (A) A              9 (A) A                 0.1728
     8 (A) A             21 (A) A                -0.0769
     8 (A) A             16 (A) A                 0.0549
     8 (A) A   8 (A) B    9 (A) A   13 (A) B      0.0191
     7 (A) A             20 (A) A                 0.0162
[...]
    16   -1.565864741974e-03
    17   -1.876510837819e-03
    18    2.055863094219e-04
    19   -4.317255134332e-03
    20    1.782364799099e-02
    21    9.190969280968e-01
    22   -1.182635440597e-03
    23    1.431012191773e-02
    24    8.087778028186e-04
    25    7.213687439261e-02
    26   -5.892388374613e-02
    27   -1.377266743954e+00
    28    9.384152519268e-02
    29   -8.912802520820e-02
    30   -8.970218793168e-04
    31    3.444640987643e-01
    32   -3.271319357555e-01
    33   -3.300324699973e-03
    34    1.570488799199e-02
    35   -1.563592921373e-03
    36   -1.875307097678e-03
    37    2.056646763681e-04
    38   -4.316623130221e-03
    39    1.781901975575e-02
    40    9.190898657024e-01
    41    1.182541707917e-03
    42   -1.430979785851e-02
    43   -8.083413379735e-04
    44    1.782219955529e-02
    45    9.191282044977e-01
    46    1.436015951738e-02
    47   -4.500239741433e-04
    48    6.609942681443e-04
Sym=X
Ene= 0.236058
Spin=Alpha
Occup=0
     1   -1.489149195590e-02
     2   -1.218748428454e+00
     3    1.466593522230e-02
     4    4.909233957882e-03
     5    1.000940657785e-03
     6    6.522734574371e-05
     7   -6.003511325702e-05
     8   -1.147285155467e-03
     9    1.490355729363e-01
    10    1.568352274318e-01
    11    1.664095891778e-02
    12    5.724080037778e-01
    13    6.022736019687e-01
    14    6.391567598733e-02
    15    7.908968377999e-06
    16    3.593977208919e-04
    17   -4.151597354702e-04
    18    7.090845218419e-03
    19    3.532285693820e-04
    20    1.493014548565e-02
    21    1.220218111186e+00
    22    4.166699542445e-03
    23    1.491207590921e-02
    24    1.102018639569e-03
    25   -6.634142552732e-05
    26    6.116034635115e-05
    27    1.175933626732e-03
    28    1.490330394256e-01
    29    1.568389799345e-01
    30    1.662353396796e-02
    31    5.723686224006e-01
    32    6.022605094163e-01
    33    6.383076858663e-02
    34   -7.852006632456e-06
    35   -3.579542521980e-04
    36    4.149718820690e-04
    37   -7.092150006285e-03
    38   -3.534802686531e-04
    39   -1.493021795052e-02
    40   -1.220192726689e+00
    41    4.166377101917e-03
    42    1.491228867655e-02
    43    1.101012201129e-03
    44    1.489129496773e-02
    45    1.218686602207e+00
    46    1.466566582238e-02
    47    4.908879331128e-03
    48    9.997644216439e-04
Sym=X
Ene= 0.238776
Spin=Alpha
Occup=0
     1    2.084654026437e-02
     2    1.067639639024e+00
     3   -1.636171386675e-02
     4   -8.725062254736e-03
     5   -1.312602299765e-03
     6    9.092506114141e-02
     7   -8.360623802481e-02
     8   -1.668678803332e+00
     9   -4.749297699638e-02
    10    4.489250307716e-02
    11    4.361101769151e-04
    12   -1.458251881552e-01
    13    1.376419346740e-01
    14    1.326414414592e-03
    15    2.145009093352e-02
    16   -2.615218095202e-03
    17   -2.978992499502e-03
    18    6.903504888359e-04
    19   -1.404225622285e-02
    20    2.083077973224e-02
    21    1.065799316246e+00
    22    7.878042835580e-03
    23    1.675285503844e-02
    24    1.391084234720e-03
    25   -9.092436527421e-02
    26    8.360374170996e-02
    27    1.668680822436e+00
    28   -4.749406488610e-02
    29    4.489599369937e-02
    30    4.475567694582e-04
    31   -1.458226624334e-01
    32    1.376690498811e-01
    33    1.374315809400e-03
    34   -2.145023069860e-02
    35    2.613101004982e-03
    36    2.978908668142e-03
    37   -6.914469925717e-04
    38    1.404187597029e-02
    39   -2.082970924845e-02
    40   -1.065826412047e+00
    41    7.878424801268e-03
    42    1.675317289377e-02
    43    1.391553785813e-03
    44   -2.084468618165e-02
    45   -1.067614545004e+00
    46   -1.636099279526e-02
    47   -8.725820708378e-03
    48   -1.311386630656e-03
Sym=X
Ene= 0.297180
Spin=Alpha
Occup=0
     1   -1.454944306664e-02
     2    1.666799790920e+00
     3   -2.176527130222e-02
     4   -2.227383423264e-03
     5   -1.181214211359e-03
     6   -2.311343468026e-07
     7   -6.375859210074e-07
     8   -5.859114572994e-05
     9   -1.348882939270e-01
    10   -1.418827854418e-01
    11   -1.505652125711e-02
    12   -1.081565420172e+00
    13   -1.137613027867e+00
    14   -1.206937775012e-01
    15    2.871029082695e-05
    16   -1.540787960865e-03
    17    1.745992443087e-03
    18   -3.012861589681e-02
    19   -1.541219265723e-03
    20    1.453754982461e-02
    21   -1.666721794230e+00
    22   -1.114192882537e-03
    23   -2.183913289952e-02
    24   -1.372550171258e-03
    25    1.692150529356e-06
    26   -3.869621962319e-07
    27   -1.204235835412e-04
    28    1.348932532751e-01
    29    1.418874771341e-01
    30    1.504290904652e-02
    31    1.081543613750e+00
    32    1.137633861712e+00
    33    1.206420825456e-01
    34    3.023072943702e-05
    35   -1.537926226068e-03
    36    1.747217086567e-03
    37   -3.012785868390e-02
    38   -1.542130146414e-03
    39    1.453455190800e-02
    40   -1.666719110925e+00
    41    1.113247687557e-03
    42    2.183891848235e-02
    43    1.372023240984e-03
    44   -1.454546067780e-02
    45    1.666836802746e+00
    46    2.176623744797e-02
    47    2.227186973648e-03
    48    1.179581251331e-03
Sym=X
Ene= 0.433001
Spin=Alpha
Occup=0
     1   -1.156962666721e-01
     2   -6.296948241075e-01
     3   -8.793791516857e-03
     4   -1.080375432296e-02
     5   -1.075726641049e-03
     6    6.038729512682e-02
     7    2.214858255694e-04
     8   -2.444483194301e+00
     9    1.365413466129e-01
    10   -1.296752528637e-01
    11   -1.282911415358e-03
    12    1.980149485525e+00
    13   -1.880516173774e+00
    14   -1.839166386266e-02
    15    3.883326701156e-02
    16   -2.873427071242e-03
    17   -3.751582303162e-03
    18   -3.664492119572e-04
    19    6.523460367896e-03
    20   -1.157241033262e-01
    21   -6.295724664333e-01
    22    1.034357692946e-02
    23    9.330619249579e-03
    24    1.060956109023e-03
    25   -6.038833806027e-02
    26   -2.188042127872e-04
    27    2.444478900949e+00
    28    1.365503408831e-01
    29   -1.296791073988e-01
    30   -1.290099039942e-03
    31    1.980144334152e+00
    32   -1.880495982595e+00
    33   -1.842177319882e-02
    34   -3.882918911519e-02
    35    2.869879997770e-03
    36    3.746273066213e-03
    37    3.658487153070e-04
    38   -6.528598606138e-03
    39    1.156945693838e-01
    40    6.296057513073e-01
    41    1.034349934825e-02
    42    9.329402276405e-03
    43    1.059290414422e-03
    44    1.156723850728e-01
    45    6.297206925668e-01
    46   -8.792268641068e-03
    47   -1.080220468459e-02
    48   -1.074648705414e-03
Sym=X
Ene= 0.585318
Spin=Alpha
Occup=0
     1    3.430563735372e-01
     2   -1.585117180619e-02
     3   -5.257258482854e-03
     4    2.896283571043e-02
     5    1.498626659629e-03
     6    5.858114875012e-03
     7   -6.122758279091e-02
     8   -5.000131501350e-01
     9    2.682371590884e-01
    10   -2.547548445358e-01
    11   -2.491707468973e-03
    12   -6.581686004750e-01
    13    6.250260479452e-01
    14    6.167922606042e-03
    15   -2.485609921175e-02
    16    7.091105741247e-03
    17    7.043732131698e-03
    18   -4.379557077198e-03
    19    8.601226955727e-02
    20    3.430911600969e-01
    21   -1.597471461758e-02
    22   -2.921141490845e-02
    23    3.769874652040e-03
    24   -1.174560237205e-03
    25    5.851396386082e-03
    26   -6.122997149521e-02
    27   -4.998065726424e-01
    28   -2.682253735576e-01
    29    2.547368002069e-01
    30    2.491468842612e-03
    31    6.583570142527e-01
    32   -6.251810617211e-01
    33   -6.179197792899e-03
    34   -2.485420221126e-02
    35    7.088272563640e-03
    36    7.041771163326e-03
    37   -4.377503294137e-03
    38    8.601197248793e-02
    39    3.430653837729e-01
    40   -1.587619705417e-02
    41    2.921571837793e-02
    42   -3.774292753515e-03
    43    1.172944213577e-03
    44    3.430597899833e-01
    45   -1.577174112038e-02
    46    5.258991647203e-03
    47   -2.896410689277e-02
    48   -1.498520579012e-03
Sym=X
Ene= 0.619704
Spin=Alpha
Occup=0
     1   -5.063082765174e-01
     2    1.040116151780e-01
     3   -5.824968587014e-02
     4    4.088625588069e-02
     5   -3.267059909123e-04
     6   -2.099508429788e-06
     7   -1.734502454921e-05
     8    1.247742554931e-05
     9   -5.322418436878e-02
    10   -5.597103953896e-02
    11   -5.932566687350e-03
    12    3.588528496786e-01
    13    3.772570521470e-01
    14    4.005343420802e-02
    15    1.364364118325e-04
    16   -7.564118712838e-03
    17    8.570411706905e-03
    18   -1.479309501239e-01
    19   -7.556894143041e-03
    20    5.062822834901e-01
    21   -1.041418880929e-01
    22    4.383273813965e-02
    23   -5.605442254342e-02
    24   -1.280050424758e-03
    25    4.341762243089e-07
    26    7.109898866736e-06
    27    2.491824808277e-05
    28   -5.322724412350e-02
    29   -5.597192972418e-02
    30   -5.942478613596e-03
    31    3.588545065002e-01
    32    3.772981656342e-01
    33    3.999876643334e-02
    34   -1.329245564254e-04
    35    7.557477362558e-03
    36   -8.576780273554e-03
    37    1.479371889108e-01
    38    7.556278864347e-03
    39   -5.063268335467e-01
    40    1.041737817825e-01
    41    4.382834378080e-02
    42   -5.605578656523e-02
    43   -1.284370761922e-03
    44    5.063066286202e-01
    45   -1.040402535244e-01
    46   -5.824878741544e-02
    47    4.088654304854e-02
    48   -3.265367003538e-04
Sym=X
Ene= 0.707726
Spin=Alpha
Occup=0
     1   -6.074328947373e-05
     2    5.116445029518e-06
     3   -1.198570929717e-03
     4   -1.508181549916e-03
     5    2.484709501969e-02
     6   -7.174046885408e-06
     7    5.725082214682e-06
     8    5.185723648117e-05
     9   -3.334906344027e-02
    10   -4.194597876303e-02
    11    6.940943521471e-01
    12    2.965408933166e-02
    13    3.724016314376e-02
    14   -6.164988509701e-01
    15    1.276607564771e-03
    16   -7.858642474969e-02
    17    7.455103856697e-02
    18    8.276768409973e-03
    19    1.147837422607e-03
    20   -5.694493378936e-05
    21   -8.525014731549e-06
    22   -1.190579318526e-03
    23   -1.496157429782e-03
    24    2.483963744668e-02
    25    4.759068053802e-06
    26   -4.039381001172e-05
    27   -3.312694234795e-05
    28   -3.333570929953e-02
    29   -4.190147734950e-02
    30    6.940958701722e-01
    31    2.962936728357e-02
    32    3.718269942236e-02
    33   -6.165003284603e-01
    34   -1.262177150401e-03
    35    7.858507286329e-02
    36   -7.455288589773e-02
    37   -8.282355076140e-03
    38   -1.152487985090e-03
    39    3.415527474623e-05
    40    1.564794453987e-05
    41   -1.188818774718e-03
    42   -1.504501472308e-03
    43    2.483939659129e-02
    44    3.035355989475e-05
    45    2.931986122903e-05
    46   -1.188260856050e-03
    47   -1.500463573123e-03
    48    2.484797089560e-02
Sym=X
Ene= 0.711592
Spin=Alpha
Occup=0
     1   -4.090274673498e-01
     2    1.877430193800e-01
     3   -8.754474016399e-02
     4   -4.067101383171e-02
     5   -6.667814845156e-03
     6   -4.593488601328e-02
     7   -3.097488107261e-01
     8    2.971268016063e-01
     9    2.807032722384e-01
    10   -2.666148013458e-01
    11   -2.645171200025e-03
    12   -2.360935099604e-01
    13    2.242916676885e-01
    14    2.185557340747e-03
    15    1.970843451373e-01
    16   -1.992601549154e-02
    17   -2.375355443059e-02
    18    2.819923170403e-03
    19   -5.863576224161e-02
    20   -4.090848907729e-01
    21    1.878637574154e-01
    22    3.616956683298e-02
    23    8.946516857963e-02
    24    7.139495304774e-03
    25   -4.593302179421e-02
    26   -3.097462979348e-01
    27    2.969874902369e-01
    28   -2.806954794437e-01
    29    2.666091855895e-01
    30    2.595671019794e-03
    31    2.359675864141e-01
    32   -2.242004937472e-01
    33   -2.136220561378e-03
    34    1.970909794110e-01
    35   -1.991714622573e-02
    36   -2.374135685565e-02
    37    2.814985834107e-03
    38   -5.862649762780e-02
    39   -4.090715898592e-01
    40    1.878309407903e-01
    41   -3.616816859564e-02
    42   -8.946496568481e-02
    43   -7.137811925731e-03
    44   -4.090485486001e-01
    45    1.877114758738e-01
    46    8.754807858374e-02
    47    4.066924500547e-02
    48    6.661222597324e-03
Sym=X
Ene= 0.745734
Spin=Alpha
Occup=0
     1    5.052363183437e-01
     2   -3.388424246454e-01
     3    9.423981555750e-02
     4    1.498570054003e-02
     5    5.436384018650e-03
     6    8.625456897884e-02
     7   -2.241801899447e-01
     8   -2.016630478431e-01
     9    2.079237301173e-01
    10   -1.974277854708e-01
    11   -1.885879810844e-03
    12   -3.038824432660e-02
    13    2.876477868318e-02
    14    2.331888368058e-04
    15   -1.970491042206e-01
    16    1.572927165134e-02
    17    2.005814636698e-02
    18    8.524664028400e-04
    19   -1.328838534721e-02
    20    5.052645230432e-01
    21   -3.389857353661e-01
    22   -1.017222399331e-02
    23   -9.483944648788e-02
    24   -6.217240601945e-03
    25   -8.625497105355e-02
    26    2.241860079658e-01
    27    2.017109761914e-01
    28    2.079418136661e-01
    29   -1.974327018883e-01
    30   -1.895829462642e-03
    31   -3.044145069968e-02
    32    2.878974232914e-02
    33    2.731248230832e-04
    34    1.970493166363e-01
    35   -1.571052505673e-02
    36   -2.004405308442e-02
    37   -8.486759476953e-04
    38    1.328978267412e-02
    39   -5.052809509185e-01
    40    3.389807935521e-01
    41   -1.017259580112e-02
    42   -9.483850386027e-02
    43   -6.212141248664e-03
    44   -5.052466316157e-01
    45    3.388153944377e-01
    46    9.423431311748e-02
    47    1.498823015398e-02
    48    5.432408178751e-03
Sym=X
Ene= 0.798275
Spin=Alpha
Occup=0
     1    7.855051085306e-07
     2    2.283086866878e-05
     3    1.620803028539e-03
     4    2.042887636423e-03
     5   -3.385249104205e-02
     6    1.789146015188e-06
     7   -2.297292951301e-05
     8    3.103552484789e-05
     9    3.657754381869e-02
    10    4.596130186213e-02
    11   -7.608592524508e-01
    12   -5.181107181363e-02
    13   -6.508142448398e-02
    14    1.077579229167e+00
    15    6.678821463688e-04
    16   -4.169315259118e-02
    17    3.955431350395e-02
    18    4.387114697266e-03
    19    6.082950685962e-04
    20    6.182721944512e-06
    21   -7.738994193630e-06
    22    1.624635028130e-03
    23    2.047768479405e-03
    24   -3.384593964057e-02
    25    1.313652635048e-06
    26   -2.155640449293e-05
    27   -1.936390435418e-05
    28   -3.652646768904e-02
    29   -4.594726210079e-02
    30    7.608649826695e-01
    31    5.173758362321e-02
    32    6.507202005055e-02
    33   -1.077584287776e+00
    34    6.742900995079e-04
    35   -4.169236913372e-02
    36    3.955312433988e-02
    37    4.398079075449e-03
    38    6.155131312312e-04
    39    1.173249851054e-06
    40    2.456105451473e-05
    41   -1.623657465540e-03
    42   -2.054133712049e-03
    43    3.384356279139e-02
    44    6.575084333879e-06
    45   -6.010147988562e-06
    46   -1.617948352212e-03
    47   -2.049110501199e-03
    48    3.385158691390e-02
Sym=X
Ene= 0.877218
Spin=Alpha
Occup=0
     1    4.401035722426e-02
     2   -1.097884038507e+00
     3    1.531999220502e-01
     4    6.967769641771e-02
     5    1.156501020174e-02
     6    5.336262504017e-06
     7    1.179824393279e-05
     8    1.882652786572e-04
     9   -4.145048710493e-01
    10   -4.361759382636e-01
    11   -4.628134887968e-02
    12    9.470861748219e-01
    13    9.966878327746e-01
    14    1.057568356950e-01
    15   -2.410673626134e-04
    16    1.240442422725e-02
    17   -1.406149750325e-02
    18    2.426400814173e-01
    19    1.235127642824e-02
    20   -4.402777853926e-02
    21    1.098109573823e+00
    22    6.183275441485e-02
    23    1.564882673247e-01
    24    1.243253064746e-02
    25   -4.921187797129e-06
    26   -6.136347800455e-06
    27   -1.908120919024e-04
    28   -4.145212240998e-01
    29   -4.361994663312e-01
    30   -4.623470315776e-02
    31    9.471242010648e-01
    32    9.967547821198e-01
    33    1.056407564198e-01
    34    2.401208500090e-04
    35   -1.239925599728e-02
    36    1.406107088506e-02
    37   -2.426515751228e-01
    38   -1.235652277752e-02
    39    4.402500773196e-02
    40   -1.098138445222e+00
    41    6.182500888613e-02
    42    1.564966759434e-01
    43    1.242765868670e-02
    44   -4.400660127242e-02
    45    1.097912687659e+00
    46    1.532086850061e-01
    47    6.967443612041e-02
    48    1.155539535038e-02
Sym=X
Ene= 0.923288
Spin=Alpha
Occup=0
     1   -1.151511292688e-01
     2    1.256151698403e+00
     3   -1.758187843781e-01
     4   -3.800591921857e-03
     5   -8.684506724116e-03
     6    1.211655081296e-04
     7   -4.339562400602e-03
     8   -3.110850247951e-02
     9    4.467989610602e-01
    10    5.027307489658e-01
    11    5.184377551127e-02
    12   -1.357708239064e+00
    13   -1.539428674159e+00
    14   -1.582402153306e-01
    15    3.424245148748e-04
    16   -5.830508096869e-03
    17    7.765215484377e-03
    18   -1.257699215928e-01
    19    3.998053301813e-03
    20    1.271574161377e-01
    21   -1.321556363417e+00
    22   -1.010755756822e-03
    23   -1.827056879265e-01
    24   -1.108255700182e-02
    25   -1.288652931999e-04
    26    4.054331847566e-03
    27    3.150368076529e-02
    28   -4.795022658923e-01
    29   -4.716553863427e-01
    30   -5.150570409609e-02
    31    1.468841920505e+00
    32    1.433821316420e+00
    33    1.571233654708e-01
    34   -8.732215210603e-05
    35   -6.984166086106e-03
    36    6.736643125736e-03
    37   -1.247061255744e-01
    38   -1.677194079199e-02
    39    1.151482170508e-01
    40   -1.256245690385e+00
    41   -5.168501928874e-03
    42    1.757092406805e-01
    43    1.035890302702e-02
    44   -1.271643925761e-01
    45    1.321411642360e+00
    46    1.824883663378e-01
    47    1.031377422495e-02
    48    9.387181638406e-03
Sym=X
Ene= 0.923295
Spin=Alpha
Occup=0
     1   -1.765051631600e-01
     2    9.817857198793e-01
     3   -1.019894697906e-01
     4   -9.376523762792e-02
     5   -1.055970033587e-02
     6   -3.576944668404e-03
     7    1.204093127807e-01
     8    8.986224301366e-01
     9    4.856499964852e-01
    10   -4.288001424054e-01
    11   -2.571124446176e-03
    12   -1.644702002383e+00
    13    1.463079875555e+00
    14    9.338720204193e-03
    15   -6.239702668516e-03
    16   -1.704088686992e-02
    17   -1.444509316994e-02
    18    1.081602745422e-02
    19   -2.981821076516e-01
    20   -1.680457663337e-01
    21    8.915499112478e-01
    22    8.861783626641e-02
    23    9.403735993564e-02
    24    9.944164674907e-03
    25    3.577528810278e-03
    26   -1.203774403096e-01
    27   -8.986740815501e-01
    28    4.533756210369e-01
    29   -4.627518790976e-01
    30   -6.197936689740e-03
    31   -1.546206429835e+00
    32    1.566700559390e+00
    33    2.038390152082e-02
    34    6.242531010170e-03
    35    1.658594951419e-02
    36    1.494473982187e-02
    37   -1.954599784008e-02
    38    2.977279535900e-01
    39    1.764933780063e-01
    40   -9.813702049428e-01
    41    8.846769008809e-02
    42    1.065274051998e-01
    43    1.068976694434e-02
    44    1.680753916547e-01
    45   -8.919466280109e-01
    46   -8.950253032700e-02
    47   -9.327247816589e-02
    48   -9.923437752278e-03
[5D]

======= END OF MOLDEN-FORMATTED INPUT FILE =======


        *************************************************************
        *                                                           *
        *  Thank you very much for using Q-Chem.  Have a nice day.  *
        *                                                           *
        *************************************************************


