                  Welcome to Q-Chem
     A Quantum Leap Into The Future Of Chemistry


 Q-Chem 5.4 (devel), Q-Chem, Inc., Pleasanton, CA (2021)

 E. Epifanovsky,  A. T. B. Gilbert,  Xintian Feng,  Joonho Lee,  Yuezhi Mao,  
 N. Mardirossian,  P. Pokhilko,  A. White,  M. Wormit,  M. P. Coons,  
 A. L. Dempwolff,  Zhengting Gan,  D. Hait,  P. R. Horn,  L. D. Jacobson,  
 I. Kaliman,  J. Kussmann,  A. W. Lange,  Ka Un Lao,  D. S. Levine,  Jie Liu,  
 S. C. McKenzie,  A. F. Morrison,  K. Nanda,  F. Plasser,  D. R. Rehn,  
 M. L. Vidal,  Zhi-Qiang You,  Ying Zhu,  B. Alam,  B. Albrecht,  
 A. Aldossary,  E. Alguire,  J. H. Andersen,  D. Barton,  K. Begam,  A. Behn,  
 Y. A. Bernard,  E. J. Berquist,  H. Burton,  A. Carreras,  K. Carter-Fenk,  
 R. Chakraborty,  A. D. Chien,  K. D. Closser,  V. Cofer-Shabica,  
 S. Dasgupta,  Jia Deng,  M. de Wergifosse,  M. Diedenhofen,  Hainam Do,  
 S. Ehlert,  Po-Tung Fang,  S. Fatehi,  Qingguo Feng,  T. Friedhoff,  
 J. Gayvert,  Qinghui Ge,  G. Gidofalvi,  M. Goldey,  J. Gomes,  
 C. Gonzalez-Espinoza,  S. Gulania,  A. Gunina,  M. W. D. Hanson-Heine,  
 P. H. P. Harbach,  A. W. Hauser,  M. F. Herbst,  M. Hernandez Vera,  
 M. Hodecker,  Z. C. Holden,  S. Houck,  Xunkun Huang,  Kerwin Hui,  
 B. C. Huynh,  M. Ivanov,  Hyunjun Ji,  Hanjie Jiang,  B. Kaduk,  S. Kaehler,  
 K. Khistyaev,  Jaehoon Kim,  P. Klunzinger,  Z. Koczor-Benda,  
 Joong Hoon Koh,  D. Kosenkov,  L. Koulias,  T. Kowalczyk,  C. M. Krauter,  
 K. Kue,  A. Kunitsa,  T. Kus,  A. Landau,  K. V. Lawler,  D. Lefrancois,  
 S. Lehtola,  Rain Li,  Yi-Pei Li,  Jiashu Liang,  M. Liebenthal,  
 Hung-Hsuan Lin,  You-Sheng Lin,  Fenglai Liu,  Kuan-Yu Liu,  
 M. Loipersberger,  A. Luenser,  A. Manjanath,  P. Manohar,  E. Mansoor,  
 S. F. Manzer,  Shan-Ping Mao,  A. V. Marenich,  T. Markovich,  S. Mason,  
 S. A. Maurer,  P. F. McLaughlin,  M. F. S. J. Menger,  J.-M. Mewes,  
 S. A. Mewes,  P. Morgante,  J. W. Mullinax,  K. J. Oosterbaan,  G. Paran,  
 Alexander C. Paul,  Suranjan K. Paul,  F. Pavosevic,  Zheng Pei,  S. Prager,  
 E. I. Proynov,  E. Ramos,  B. Rana,  A. E. Rask,  A. Rettig,  R. M. Richard,  
 F. Rob,  E. Rossomme,  T. Scheele,  M. Scheurer,  M. Schneider,  
 N. Sergueev,  S. M. Sharada,  W. Skomorowski,  D. W. Small,  C. J. Stein,  
 Yu-Chuan Su,  E. J. Sundstrom,  Zhen Tao,  J. Thirman,  T. Tsuchimochi,  
 N. M. Tubman,  S. P. Veccham,  O. Vydrov,  J. Wenzel,  J. Witte,  A. Yamada,  
 Kun Yao,  S. Yeganeh,  S. R. Yost,  A. Zech,  Igor Ying Zhang,  Xing Zhang,  
 Yu Zhang,  D. Zuev,  A. Aspuru-Guzik,  A. T. Bell,  N. A. Besley,  
 K. B. Bravaya,  B. R. Brooks,  D. Casanova,  Jeng-Da Chai,  S. Coriani,  
 C. J. Cramer,  A. E. DePrince, III,  R. A. DiStasio Jr.,  A. Dreuw,  
 B. D. Dunietz,  T. R. Furlani,  W. A. Goddard III,  S. Grimme,  
 S. Hammes-Schiffer,  T. Head-Gordon,  W. J. Hehre,  Chao-Ping Hsu,  
 T.-C. Jagau,  Yousung Jung,  A. Klamt,  Jing Kong,  D. S. Lambrecht,  
 WanZhen Liang,  N. J. Mayhall,  C. W. McCurdy,  J. B. Neaton,  
 C. Ochsenfeld,  J. A. Parkhill,  R. Peverati,  V. A. Rassolov,  Yihan Shao,  
 L. V. Slipchenko,  T. Stauch,  R. P. Steele,  J. E. Subotnik,  
 A. J. W. Thom,  A. Tkatchenko,  D. G. Truhlar,  T. Van Voorhis,  
 T. A. Wesolowski,  K. B. Whaley,  H. L. Woodcock III,  P. M. Zimmerman,  
 S. Faraji,  P. M. W. Gill,  M. Head-Gordon,  J. M. Herbert,  A. I. Krylov

 Additional authors for Version 5.4.1: 
 S. Kotaru,  Shaozhi Li,  Xiangyuan Li,  F. Matz,  A. Molle,  Haisheng Ren,  
 Yingli Su,  Hung-Yi Tsai,  C. Utku,  Fang Wang

 Contributors to earlier versions of Q-Chem not listed above: 
 R. D. Adamson,  B. Austin,  R. Baer,  J. Baker,  G. J. O. Beran,  
 K. Brandhorst,  S. T. Brown,  E. F. C. Byrd,  A. K. Chakraborty,  
 G. K. L. Chan,  Chun-Min Chang,  Yunqing Chen,  C.-L. Cheng,  
 Siu Hung Chien,  D. M. Chipman,  D. L. Crittenden,  H. Dachsel,  
 R. J. Doerksen,  A. D. Dutoi,  R. G. Edgar,  J. Fosso-Tande,  
 L. Fusti-Molnar,  D. Ghosh,  A. Ghysels,  A. Golubeva-Zadorozhnaya,  
 J. Gonthier,  M. S. Gordon,  S. R. Gwaltney,  G. Hawkins,  J. E. Herr,  
 A. Heyden,  S. Hirata,  E. G. Hohenstein,  G. Kedziora,  F. J. Keil,  
 C. Kelley,  Jihan Kim,  R. A. King,  R. Z. Khaliullin,  P. P. Korambath,  
 W. Kurlancheek,  A. Laurent,  A. M. Lee,  M. S. Lee,  S. V. Levchenko,  
 Ching Yeh Lin,  D. Liotard,  E. Livshits,  R. C. Lochan,  I. Lotan,  
 L. A. Martinez-Martinez,  P. E. Maslen,  N. Nair,  D. P. O'Neill,  
 D. Neuhauser,  E. Neuscamman,  C. M. Oana,  R. Olivares-Amaya,  R. Olson,  
 T. M. Perrine,  B. Peters,  P. A. Pieniazek,  A. Prociuk,  Y. M. Rhee,  
 J. Ritchie,  M. A. Rohrdanz,  E. Rosta,  N. J. Russ,  H. F. Schaefer III,  
 M. W. Schmidt,  N. E. Schultz,  S. Sharma,  N. Shenvi,  C. D. Sherrill,  
 A. C. Simmonett,  A. Sodt,  T. Stein,  D. Stuck,  K. S. Thanthiriwatte,  
 V. Vanovschi,  L. Vogt,  Tao Wang,  A. Warshel,  M. A. Watson,  
 C. F. Williams,  Q. Wu,  X. Xu,  Jun Yang,  W. Zhang,  Yan Zhao

 Please cite Q-Chem as follows:
 Y. Shao et al., Mol. Phys. 113, 184-215 (2015)
 DOI: 10.1080/00268976.2014.952696

 Q-Chem 5.4.1 for Intel X86 EM64T Linux

 Parts of Q-Chem use Armadillo 9.800.1 (Horizon Scraper).
 http://arma.sourceforge.net/

 Q-Chem begins on Thu Nov 17 00:22:07 2022  

 Host: cpu316.baobab
0

     Scratch files written to /scratch/fum/qchem15132//
 Processing $rem in /home/share/wesolowski/qc5.aug2021.FDE/config/preferences:
 Processing $rem in /home/fum/.qchemrc:

 Checking the input file for inconsistencies... 	...done.

--------------------------------------------------------------
User input:
--------------------------------------------------------------
$comment
generated from CCJob.Templates
$end

$rem
sym_ignore = true
method = adc(2)
ee_states = 10
basis = cc-pVDZ
mem_static = 1024
mem_total = 30000
adc_davidson_maxiter = 900
adc_davidson_conv = 6
adc_print = 3
adc_prop_es = true
adc_prop_es2es = true
adc_prop_tpa = true
molden_format = True
state_analysis = true
print_orbitals = 15
gen_scfman = false
fde_export_density = true
fde_details = 3
$end

$molecule
0 1
H -0.0348278765 -0.2442097827 0.0636489606
C -1.0765972949 -0.5242748755 -0.0023551776
H -1.313264467 -1.5767591607 -0.07072769259999999
C -2.043634118 0.3926884087 0.0061254933
H -1.8137616575 1.4459188338 0.0804456828
H -3.085977293 0.114931858 -0.0593381042                     
$end
--------------------------------------------------------------
 ----------------------------------------------------------------
             Standard Nuclear Orientation (Angstroms)
    I     Atom           X                Y                Z
 ----------------------------------------------------------------
    1      H      -0.0348278765    -0.2442097827     0.0636489606
    2      C      -1.0765972949    -0.5242748755    -0.0023551776
    3      H      -1.3132644670    -1.5767591607    -0.0707276926
    4      C      -2.0436341180     0.3926884087     0.0061254933
    5      H      -1.8137616575     1.4459188338     0.0804456828
    6      H      -3.0859772930     0.1149318580    -0.0593381042
 ----------------------------------------------------------------
 Nuclear Repulsion Energy =          33.42475083 hartrees
 There are        8 alpha and        8 beta electrons
 Requested basis set is cc-pVDZ
 There are 24 shells and 48 basis functions
 Total memory of 30000 MB is distributed as follows: 
   MEM_STATIC is set to 1024 MB
   QALLOC/CCMAN JOB total memory use is  28976 MB
 Warning: actual memory use might exceed 30000 MB

 Total QAlloc Memory Limit  30000 MB
 Mega-Array Size      1001 MB
 MEM_STATIC part      1024 MB

                       Distance Matrix (Angstroms)
             H (  1)   C (  2)   H (  3)   C (  4)   H (  5)
   C (  2)  1.080776
   H (  3)  1.851525  1.080930
   C (  4)  2.108139  1.332687  2.101921
   H (  5)  2.453859  2.105215  3.067561  1.080583
   H (  6)  3.074674  2.109370  2.450400  1.080700  1.846510

 A cutoff of  1.0D-11 yielded    300 shell pairs
 There are      1220 function pairs (      1329 Cartesian)
 Smallest overlap matrix eigenvalue = 4.80E-03

 Scale SEOQF with 1.000000e-01/1.000000e-01/1.000000e+00

 Standard Electronic Orientation quadrupole field applied
 Nucleus-field energy     =     0.0000000022 hartrees
 Guess from superposition of atomic densities
 Warning:  Energy on first SCF cycle will be non-variational
 SAD guess density has 16.000000 electrons
 A restricted Hartree-Fock SCF calculation will be
 performed using Pulay DIIS extrapolation
 SCF converges when DIIS error is below 1.0E-08
 using 8 threads for integral computing
 -------------------------------------------------------
 OpenMP Integral computing Module                
 Release: version 1.0, May 2013, Q-Chem Inc. Pittsburgh 
 -------------------------------------------------------
 ---------------------------------------
  Cycle       Energy         DIIS Error
 ---------------------------------------
    1     -78.4390578975      1.01E-01
    2     -78.0176855982      7.21E-03
    3     -78.0383185846      1.84E-03
    4     -78.0398015462      5.73E-04
    5     -78.0399231806      5.79E-05
    6     -78.0399250563      9.30E-06
    7     -78.0399251169      2.17E-06
    8     -78.0399251197      8.34E-07
    9     -78.0399251199      9.20E-08
   10     -78.0399251199      9.72E-09 Convergence criterion met
 ---------------------------------------
 SCF time:  CPU 1.45 s  wall 2.01 s
 SCF   energy in the final basis set = -78.03992512
 Total energy in the final basis set = -78.03992512
Exporting Density Matrix to file 'Densmat_SCF.txt'.
Export successful
================================================================================
|                                                                              |
|                                 A D C  M A N                                 |
|                                                                              |
 ------------------------------------------------------------------------------ 
|                                                                              |
| Components:                                                                  |
|                                                                              |
| - libvmm - 1.3-trunk                                                         |
|   Authors:                                                                   |
|   Evgeny Epifanovsky, Ilya Kaliman                                           |
|                                                                              |
| - libtensor - 2.5-trunk                                                      |
|   Authors:                                                                   |
|   Evgeny Epifanovsky, Michael Wormit, Dmitry Zuev, Sam Manzer,               |
|   Ilya Kaliman                                                               |
|                                                                              |
| - libwfa - 1.1-trunk                                                         |
|   Authors:                                                                   |
|   Felix Plasser, Stefanie Mewes (Baeppler), Benjamin Thomitzni,              |
|   Michael Wormit, Feng Chen, Anna I. Krylov, Pavel Pokhilko                  |
|                                                                              |
| - libadc - 1.1-trunk                                                         |
|   Authors:                                                                   |
|   Michael Wormit, Adrian L. Dempwolff, Philipp H. P. Harbach,                |
|   Caroline Krauter, Dirk Rehn, Matthias Schneider, Jan Wenzel                |
|                                                                              |
| - adcman - 2.6-trunk                                                         |
|   Authors:                                                                   |
|   Michael Wormit, Adrian L. Dempwolff, Philipp H. P. Harbach,                |
|   Caroline Krauter, Daniel Lefrancois, Jan-Michael Mewes, Dirk Rehn,         |
|   Matthias Schneider, Jan Wenzel, Andreas Dreuw                              |
|                                                                              |
| Authors of earlier versions of ADCMAN:                                       |
| Andreas Dreuw, Jan Hendrik Starcke, Dirk Rehn, Michael Wormit                |
|                                                                              |
================================================================================

 Created directory /scratch/fum/qchem15132/plots
  Import QC data ...  CPU 0.00 s  wall 0.00 s

 Alpha MOs, Restricted
 -- Occupied --                  
-11.235 -11.233  -1.032  -0.790  -0.641  -0.582  -0.505  -0.374
  1 A     2 A     3 A     4 A     5 A     6 A     7 A     8 A                  
 -- Virtual --                   
  0.168   0.204   0.233   0.239   0.303   0.462   0.578   0.615
  9 A    10 A    11 A    12 A    13 A    14 A    15 A    16 A                  
  0.689   0.709   0.785   0.808   0.862   0.936   0.972   1.010
 17 A    18 A    19 A    20 A    21 A    22 A    23 A    24 A                  
  1.130   1.235   1.254   1.266   1.293   1.601   1.727   1.750
 25 A    26 A    27 A    28 A    29 A    30 A    31 A    32 A                  
  1.819   1.859   1.867   1.922   1.977   1.978   2.222   2.258
 33 A    34 A    35 A    36 A    37 A    38 A    39 A    40 A                  
  2.376   2.454   2.506   2.634   2.721   2.822   3.140   3.399
 41 A    42 A    43 A    44 A    45 A    46 A    47 A    48 A                  

 Beta MOs, Restricted
 -- Occupied --                  
-11.235 -11.233  -1.032  -0.790  -0.641  -0.582  -0.505  -0.374
  1 A     2 A     3 A     4 A     5 A     6 A     7 A     8 A                  
 -- Virtual --                   
  0.168   0.204   0.233   0.239   0.303   0.462   0.578   0.615
  9 A    10 A    11 A    12 A    13 A    14 A    15 A    16 A                  
  0.689   0.709   0.785   0.808   0.862   0.936   0.972   1.010
 17 A    18 A    19 A    20 A    21 A    22 A    23 A    24 A                  
  1.130   1.235   1.254   1.266   1.293   1.601   1.727   1.750
 25 A    26 A    27 A    28 A    29 A    30 A    31 A    32 A                  
  1.819   1.859   1.867   1.922   1.977   1.978   2.222   2.258
 33 A    34 A    35 A    36 A    37 A    38 A    39 A    40 A                  
  2.376   2.454   2.506   2.634   2.721   2.822   3.140   3.399
 41 A    42 A    43 A    44 A    45 A    46 A    47 A    48 A                  
  Import AO data ...  CPU 0.00 s  wall 0.00 s
  Using point group: C1
  Irreducible representations in point group: A
  Molecular orbitals: 
  Occupied MOs:
  Block   0:   1 (  A) A   2 (  A) A   3 (  A) A   4 (  A) A   5 (  A) A
                  -11.24      -11.23      -1.032     -0.7898     -0.6412
               6 (  A) A   7 (  A) A   8 (  A) A
                 -0.5819     -0.5046      -0.374
  Block   1:   1 (  A) B   2 (  A) B   3 (  A) B   4 (  A) B   5 (  A) B
                  -11.24      -11.23      -1.032     -0.7898     -0.6412
               6 (  A) B   7 (  A) B   8 (  A) B
                 -0.5819     -0.5046      -0.374
  Virtual MOs:
  Block   0:   9 (  A) A  10 (  A) A  11 (  A) A  12 (  A) A  13 (  A) A
                  0.1684      0.2037       0.233      0.2394      0.3033
              14 (  A) A  15 (  A) A  16 (  A) A  17 (  A) A  18 (  A) A
                  0.4621      0.5775      0.6151      0.6892      0.7089
              19 (  A) A  20 (  A) A  21 (  A) A  22 (  A) A
                  0.7846       0.808      0.8623       0.936
  Block   1:  23 (  A) A  24 (  A) A  25 (  A) A  26 (  A) A  27 (  A) A
                  0.9725        1.01        1.13       1.235       1.254
              28 (  A) A  29 (  A) A  30 (  A) A  31 (  A) A  32 (  A) A
                   1.266       1.293       1.601       1.727        1.75
              33 (  A) A  34 (  A) A  35 (  A) A  36 (  A) A
                   1.819       1.859       1.867       1.922
  Block   2:  37 (  A) A  38 (  A) A  39 (  A) A  40 (  A) A  41 (  A) A
                   1.977       1.978       2.222       2.258       2.376
              42 (  A) A  43 (  A) A  44 (  A) A  45 (  A) A  46 (  A) A
                   2.454       2.506       2.634       2.721       2.822
              47 (  A) A  48 (  A) A
                    3.14       3.399
  Block   3:   9 (  A) B  10 (  A) B  11 (  A) B  12 (  A) B  13 (  A) B
                  0.1684      0.2037       0.233      0.2394      0.3033
              14 (  A) B  15 (  A) B  16 (  A) B  17 (  A) B  18 (  A) B
                  0.4621      0.5775      0.6151      0.6892      0.7089
              19 (  A) B  20 (  A) B  21 (  A) B  22 (  A) B
                  0.7846       0.808      0.8623       0.936
  Block   4:  23 (  A) B  24 (  A) B  25 (  A) B  26 (  A) B  27 (  A) B
                  0.9725        1.01        1.13       1.235       1.254
              28 (  A) B  29 (  A) B  30 (  A) B  31 (  A) B  32 (  A) B
                   1.266       1.293       1.601       1.727        1.75
              33 (  A) B  34 (  A) B  35 (  A) B  36 (  A) B
                   1.819       1.859       1.867       1.922
  Block   5:  37 (  A) B  38 (  A) B  39 (  A) B  40 (  A) B  41 (  A) B
                   1.977       1.978       2.222       2.258       2.376
              42 (  A) B  43 (  A) B  44 (  A) B  45 (  A) B  46 (  A) B
                   2.454       2.506       2.634       2.721       2.822
              47 (  A) B  48 (  A) B
                    3.14       3.399
  Import MO data ...  CPU 0.09 s  wall 0.04 s
  Import HF data ...  CPU 2.20 s  wall 0.75 s
  Import 2e integrals ...  CPU 0.60 s  wall 0.09 s

--------------------------------------------------------------------------------
                                   HF Summary                                   
--------------------------------------------------------------------------------
  Energy:                                                  -78.0399251199 a.u.
  Dip. moment [a.u.]:                  [  -0.000767,    0.000527,    0.001826]
  Total dipole [Debye]:                                               0.005209
  <r^2> [a.u.]:                        [ 175.319731,   34.917973,   11.623543]
  Total <r^2> [a.u.]:                                               221.861247
--------------------------------------------------------------------------------
  HF properties ...  CPU 0.05 s  wall 0.02 s
  MP(1) calculation ...  CPU 0.08 s  wall 0.02 s
  N^6 prerequesite intermediates ...  CPU 0.60 s  wall 0.12 s
  Difference density matrix of state mp2_gs printed to ASCII file 'State_mp2_gs_Difference.txt'
Exporting MP density matrix to file 'Densmat_MP.txt'.
Export successful
  Total density matrix of state mp2_gs printed to ASCII file 'State_mp2_gs_Total.txt'
Exporting MP density matrix to file 'Densmat_MP.txt'.
Export successful

--------------------------------------------------------------------------------
                                 MP(2) Summary                                  
--------------------------------------------------------------------------------
  MP energy contribution:                                   -0.2796997215 a.u.
  Total energy:                                            -78.3196248414 a.u.
  Dip. moment [a.u.]:                  [  -0.000747,    0.000434,    0.001798]
  Total dipole [Debye]:                                               0.005069
  <r^2> [a.u.]:                        [ 175.366493,   34.958648,   11.455372]
  Total <r^2> [a.u.]:                                               221.780512

  Density matrix analysis:
  ------------------------
  NOs
    Occupation of frontier NOs:
       0.0453   1.9383
    Number of electrons: 16.000000
    Number of unpaired electrons: n_u =  0.40340, n_u,nl =  0.04507
    NO participation ratio (PR_NO): 13.857247
  
  
  Mulliken Population Analysis
  Atom      Charge (e)              h+              e-           Del q
  --------------------------------------------------------------------
   1 H        0.050933        0.014033       -0.011201        0.002833
   2 C       -0.100610        0.093200       -0.098837       -0.005637
   3 H        0.050458        0.014079       -0.011189        0.002890
   4 C       -0.101463        0.092986       -0.098899       -0.005914
   5 H        0.050130        0.014121       -0.011184        0.002937
   6 H        0.050554        0.014083       -0.011192        0.002891
  --------------------------------------------------------------------
  Sum:       -0.000000        0.242502       -0.242502        0.000000
  
  Multipole moment analysis of the density matrix
    Molecular charge:                      -0.000000
    Number of electrons:                   16.000000
      Center of electronic charge [Ang]: [ -1.560552,  -0.065617,   0.002231]
    Total nuclear charge:                  16.000000
      Center of nuclear charge [Ang]:    [ -1.560576,  -0.065602,   0.002291]
    Dipole moment [D]:                     0.005069
      Cartesian components [D]:          [ -0.001899,   0.001102,   0.004569]
    RMS size of the density [Ang]:         1.200801
      Cartesian components [Ang]:        [  0.796182,   0.779444,   0.447755]
  
  Exciton analysis of the difference density matrix
    <r_h> [Ang]:                  [ -1.560421,  -0.065813,   0.001933]
    <r_e> [Ang]:                  [ -1.560465,  -0.065609,   0.001994]
    |<r_e - r_h>| [Ang]:            0.000218
    Hole size [Ang]:                1.393661
      Cartesian components [Ang]: [  0.846657,   0.834085,   0.727850]
    Electron size [Ang]:            1.359762
      Cartesian components [Ang]: [  0.877889,   0.861796,   0.579284]
--------------------------------------------------------------------------------
  MP(2) calculation ...  CPU 0.86 s  wall 0.31 s
  Start ADC(2)-s ...  CPU 0.07 s  wall 0.03 s
  ADC(2) intermediates ...  CPU 0.08 s  wall 0.02 s
  Starting Davidson for singlet states of irrep A ... 
--------------------------------------------------------------------------------
   It NVec Conv  Avg. Norm  Max. Norm  Conv. states           Remark
--------------------------------------------------------------------------------
        10    0  1.330e-01  4.687e-01  0.4119 n n n n n n n n Guess.
    1   20    0  2.303e-02  1.109e-01  0.3262 n n n n n n n n 
    2   30    0  5.847e-03  2.541e-02  0.3215 n n n n n n n n 
    3   40    0  1.998e-03  1.341e-02  0.3211 n n n n n n n n 
    4   50    0  6.005e-04  4.303e-03  0.3211 n n n n n n n n 
    5   20    0  2.710e-04  1.955e-03  0.3211 n n n n n n n n Subspace collapsed.
    6   30    0  1.656e-04  1.431e-03  0.3211 n n n n n n n n 
    7   40    0  8.897e-05  7.304e-04  0.3211 n n n n n n n n 
    8   50    0  1.256e-04  1.207e-03  0.3211 n n n n n n n n 
    9   20    1  6.165e-05  5.633e-04  0.3211 n y n n n n n n Subspace collapsed.
   10   30    3  6.366e-05  6.083e-04  0.3211 n y y y n n n n 
   11   40    5  5.427e-05  5.354e-04  0.3211 n y y y y y n n 
   12   50    6  7.361e-05  7.343e-04  0.3211 y y y y y y n n 
   13   20    6  3.066e-05  3.057e-04  0.3211 y y y y y y n n Subspace collapsed.
   14   30    6  3.041e-05  3.034e-04  0.3211 y y y y y y n n 
   15   40    6  1.853e-05  1.849e-04  0.3211 y y y y y y n n 
   16   50    6  3.093e-05  3.091e-04  0.3211 y y y y y y n n 
   17   20    6  1.233e-05  1.232e-04  0.3211 y y y y y y n n Subspace collapsed.
   18   30    6  1.694e-05  1.693e-04  0.3211 y y y y y y n n 
   19   40    7  1.325e-05  1.324e-04  0.3211 y y y y y y y n 
   20   50    8  2.021e-05  2.021e-04  0.3211 y y y y y y y y 
   21   20    8  8.593e-06  8.591e-05  0.3211 y y y y y y y y Subspace collapsed.
   22   30    8  9.296e-06  9.295e-05  0.3211 y y y y y y y y 
   23   40    9  4.497e-06  4.497e-05  0.3211 y y y y y y y y 
   24   49    8  9.491e-06  9.490e-05  0.3211 y y y y y y y y 
   25   50    8  9.480e-06  9.480e-05  0.3211 y y y y y y y y 
   26   16    9  3.439e-06  3.439e-05  0.3211 y y y y y y y y Subspace collapsed.
   27   22    9  5.136e-06  5.135e-05  0.3211 y y y y y y y y 
   28   28    9  4.234e-06  4.234e-05  0.3211 y y y y y y y y 
   29   33    9  5.682e-06  5.682e-05  0.3211 y y y y y y y y 
   30   38    9  4.566e-06  4.566e-05  0.3211 y y y y y y y y 
   31   38    9  4.566e-06  4.566e-05  0.3211 y y y y y y y y 
   32   48    9  1.825e-06  1.825e-05  0.3211 y y y y y y y y 
   33   48    9  1.825e-06  1.825e-05  0.3211 y y y y y y y y 
   34   50    9  1.894e-06  1.894e-05  0.3211 y y y y y y y y 
   35   14    9  9.358e-07  9.357e-06  0.3211 y y y y y y y y Subspace collapsed.
   36   18    9  5.466e-07  5.466e-06  0.3211 y y y y y y y y 
   37   22    9  3.273e-07  3.273e-06  0.3211 y y y y y y y y 
   38   26    9  2.675e-07  2.675e-06  0.3211 y y y y y y y y 
   39   30    9  1.685e-07  1.685e-06  0.3211 y y y y y y y y 
   40   34    9  1.685e-07  1.685e-06  0.3211 y y y y y y y y 
   41   38    9  1.218e-07  1.218e-06  0.3211 y y y y y y y y 
   42   42    9  1.158e-07  1.158e-06  0.3211 y y y y y y y y 
   43   46    9  1.132e-07  1.132e-06  0.3211 y y y y y y y y 
   44   50   10  5.829e-08  5.829e-07  0.3211 y y y y y y y y Converged.
--------------------------------------------------------------------------------
  Davidson Summary: 
 ------------------------------------------------------------
  State  0: excitation energy =   0.3211 a.u.   (converged)
  State  1: excitation energy =   0.3328 a.u.   (converged)
  State  2: excitation energy =   0.3370 a.u.   (converged)
  State  3: excitation energy =   0.3614 a.u.   (converged)
  State  4: excitation energy =   0.3753 a.u.   (converged)
  State  5: excitation energy =   0.3872 a.u.   (converged)
  State  6: excitation energy =   0.4247 a.u.   (converged)
  State  7: excitation energy =   0.4471 a.u.   (converged)
  State  8: excitation energy =   0.4563 a.u.   (converged)
  State  9: excitation energy =   0.4648 a.u.   (converged)
 ------------------------------------------------------------

  Singlet states of irrep A ...  CPU 190.44 s  wall 69.40 s
  TDMs ...  CPU 3.48 s  wall 0.95 s
  SDMs ...  CPU 10.68 s  wall 2.70 s
  Starting TPA DIIS iterations ... 
------------------------------------ 
   It     Res. Norm  Remark
------------------------------------
                       Guess.
    1     4.406e+00  
    2     5.841e+00  
    3     1.077e+00  
    4     2.567e-01  
    5     6.576e-02  
    6     2.675e-02  
    7     8.238e-03  
    8     1.440e-03  
    9     5.336e-04  
   10     9.060e-05  
   11     2.840e-05  
   12     4.933e-06  
   13     1.806e-06  
   14     8.022e-07  Converged.
   ... Converged in 14 steps (norm: 8.02191e-07)
------------------------------------
  Starting TPA DIIS iterations ... 
------------------------------------ 
   It     Res. Norm  Remark
------------------------------------
                       Guess.
    1     4.184e+00  
    2     5.540e+00  
    3     1.029e+00  
    4     2.554e-01  
    5     6.535e-02  
    6     2.672e-02  
    7     8.115e-03  
    8     1.456e-03  
    9     5.374e-04  
   10     9.094e-05  
   11     2.863e-05  
   12     5.066e-06  
   13     1.663e-06  
   14     8.554e-07  Converged.
   ... Converged in 14 steps (norm: 8.55408e-07)
------------------------------------
  Starting TPA DIIS iterations ... 
------------------------------------ 
   It     Res. Norm  Remark
------------------------------------
                       Guess.
    1     6.881e-01  
    2     4.838e-01  
    3     1.708e-01  
    4     6.623e-02  
    5     1.820e-02  
    6     6.515e-03  
    7     1.035e-03  
    8     4.475e-04  
    9     1.234e-04  
   10     3.010e-05  
   11     4.909e-06  
   12     1.550e-06  
   13     8.306e-07  Converged.
   ... Converged in 13 steps (norm: 8.30552e-07)
------------------------------------
  Starting TPA DIIS iterations ... 
------------------------------------ 
   It     Res. Norm  Remark
------------------------------------
                       Guess.
    1     4.694e+00  
    2     6.359e+00  
    3     1.158e+00  
    4     2.853e-01  
    5     7.410e-02  
    6     3.040e-02  
    7     9.346e-03  
    8     1.630e-03  
    9     6.089e-04  
   10     1.040e-04  
   11     3.295e-05  
   12     5.855e-06  
   13     2.183e-06  
   14     9.968e-07  Converged.
   ... Converged in 14 steps (norm: 9.96814e-07)
------------------------------------
  Starting TPA DIIS iterations ... 
------------------------------------ 
   It     Res. Norm  Remark
------------------------------------
                       Guess.
    1     4.457e+00  
    2     6.030e+00  
    3     1.107e+00  
    4     2.837e-01  
    5     7.366e-02  
    6     3.039e-02  
    7     9.209e-03  
    8     1.650e-03  
    9     6.134e-04  
   10     1.045e-04  
   11     3.323e-05  
   12     6.043e-06  
   13     2.000e-06  
   14     1.078e-06  
   15     2.861e-07  Converged.
   ... Converged in 15 steps (norm: 2.86145e-07)
------------------------------------
  Starting TPA DIIS iterations ... 
------------------------------------ 
   It     Res. Norm  Remark
------------------------------------
                       Guess.
    1     7.002e-01  
    2     5.014e-01  
    3     1.807e-01  
    4     7.509e-02  
    5     1.957e-02  
    6     7.140e-03  
    7     1.169e-03  
    8     5.278e-04  
    9     1.493e-04  
   10     3.458e-05  
   11     5.547e-06  
   12     1.825e-06  
   13     1.037e-06  
   14     3.380e-07  Converged.
   ... Converged in 14 steps (norm: 3.37999e-07)
------------------------------------
  Starting TPA DIIS iterations ... 
------------------------------------ 
   It     Res. Norm  Remark
------------------------------------
                       Guess.
    1     4.807e+00  
    2     6.565e+00  
    3     1.190e+00  
    4     2.969e-01  
    5     7.748e-02  
    6     3.189e-02  
    7     9.795e-03  
    8     1.708e-03  
    9     6.395e-04  
   10     1.095e-04  
   11     3.482e-05  
   12     6.242e-06  
   13     2.344e-06  
   14     1.081e-06  
   15     3.367e-07  Converged.
   ... Converged in 15 steps (norm: 3.36702e-07)
------------------------------------
  Starting TPA DIIS iterations ... 
------------------------------------ 
   It     Res. Norm  Remark
------------------------------------
                       Guess.
    1     4.564e+00  
    2     6.226e+00  
    3     1.137e+00  
    4     2.951e-01  
    5     7.702e-02  
    6     3.188e-02  
    7     9.652e-03  
    8     1.729e-03  
    9     6.444e-04  
   10     1.100e-04  
   11     3.513e-05  
   12     6.456e-06  
   13     2.144e-06  
   14     1.176e-06  
   15     3.124e-07  Converged.
   ... Converged in 15 steps (norm: 3.12366e-07)
------------------------------------
  Starting TPA DIIS iterations ... 
------------------------------------ 
   It     Res. Norm  Remark
------------------------------------
                       Guess.
    1     7.048e-01  
    2     5.081e-01  
    3     1.846e-01  
    4     7.872e-02  
    5     2.011e-02  
    6     7.392e-03  
    7     1.224e-03  
    8     5.613e-04  
    9     1.601e-04  
   10     3.606e-05  
   11     5.798e-06  
   12     1.941e-06  
   13     1.126e-06  
   14     3.615e-07  Converged.
   ... Converged in 14 steps (norm: 3.61522e-07)
------------------------------------
  Starting TPA DIIS iterations ... 
------------------------------------ 
   It     Res. Norm  Remark
------------------------------------
                       Guess.
    1     5.548e+00  
    2     7.946e+00  
    3     1.398e+00  
    4     3.770e-01  
    5     1.008e-01  
    6     4.227e-02  
    7     1.290e-02  
    8     2.240e-03  
    9     8.533e-04  
   10     1.480e-04  
   11     4.823e-05  
   12     9.123e-06  
   13     3.574e-06  
   14     1.752e-06  
   15     5.101e-07  Converged.
   ... Converged in 15 steps (norm: 5.10081e-07)
------------------------------------
  Starting TPA DIIS iterations ... 
------------------------------------ 
   It     Res. Norm  Remark
------------------------------------
                       Guess.
    1     5.265e+00  
    2     7.534e+00  
    3     1.334e+00  
    4     3.741e-01  
    5     1.003e-01  
    6     4.233e-02  
    7     1.272e-02  
    8     2.272e-03  
    9     8.603e-04  
   10     1.490e-04  
   11     4.870e-05  
   12     9.574e-06  
   13     3.256e-06  
   14     1.975e-06  
   15     5.360e-07  Converged.
   ... Converged in 15 steps (norm: 5.35974e-07)
------------------------------------
  Starting TPA DIIS iterations ... 
------------------------------------ 
   It     Res. Norm  Remark
------------------------------------
                       Guess.
    1     7.318e-01  
    2     5.499e-01  
    3     2.092e-01  
    4     1.045e-01  
    5     2.364e-02  
    6     9.147e-03  
    7     1.621e-03  
    8     7.994e-04  
    9     2.357e-04  
   10     4.179e-05  
   11     7.469e-06  
   12     2.788e-06  
   13     1.824e-06  
   14     5.320e-07  Converged.
   ... Converged in 14 steps (norm: 5.32e-07)
------------------------------------
  Starting TPA DIIS iterations ... 
------------------------------------ 
   It     Res. Norm  Remark
------------------------------------
                       Guess.
    1     6.058e+00  
    2     8.931e+00  
    3     1.540e+00  
    4     4.365e-01  
    5     1.182e-01  
    6     5.006e-02  
    7     1.520e-02  
    8     2.633e-03  
    9     1.013e-03  
   10     1.769e-04  
   11     5.855e-05  
   12     1.147e-05  
   13     4.609e-06  
   14     2.345e-06  
   15     6.458e-07  Converged.
   ... Converged in 15 steps (norm: 6.45818e-07)
------------------------------------
  Starting TPA DIIS iterations ... 
------------------------------------ 
   It     Res. Norm  Remark
------------------------------------
                       Guess.
    1     5.748e+00  
    2     8.468e+00  
    3     1.470e+00  
    4     4.325e-01  
    5     1.175e-01  
    6     5.018e-02  
    7     1.500e-02  
    8     2.674e-03  
    9     1.022e-03  
   10     1.783e-04  
   11     5.919e-05  
   12     1.217e-05  
   13     4.216e-06  
   14     2.707e-06  
   15     7.550e-07  Converged.
   ... Converged in 15 steps (norm: 7.54961e-07)
------------------------------------
  Starting TPA DIIS iterations ... 
------------------------------------ 
   It     Res. Norm  Remark
------------------------------------
                       Guess.
    1     7.482e-01  
    2     5.768e-01  
    3     2.256e-01  
    4     1.240e-01  
    5     2.614e-02  
    6     1.046e-02  
    7     1.932e-03  
    8     9.713e-04  
    9     2.892e-04  
   10     4.293e-05  
   11     8.686e-06  
   12     3.452e-06  
   13     2.413e-06  
   14     6.646e-07  Converged.
   ... Converged in 14 steps (norm: 6.64622e-07)
------------------------------------
  Starting TPA DIIS iterations ... 
------------------------------------ 
   It     Res. Norm  Remark
------------------------------------
                       Guess.
    1     6.558e+00  
    2     9.920e+00  
    3     1.678e+00  
    4     4.976e-01  
    5     1.360e-01  
    6     5.814e-02  
    7     1.757e-02  
    8     3.036e-03  
    9     1.179e-03  
   10     2.070e-04  
   11     6.941e-05  
   12     1.407e-05  
   13     5.772e-06  
   14     3.039e-06  
   15     7.894e-07  Converged.
   ... Converged in 15 steps (norm: 7.89385e-07)
------------------------------------
  Starting TPA DIIS iterations ... 
------------------------------------ 
   It     Res. Norm  Remark
------------------------------------
                       Guess.
    1     6.221e+00  
    2     9.406e+00  
    3     1.601e+00  
    4     4.926e-01  
    5     1.353e-01  
    6     5.833e-02  
    7     1.734e-02  
    8     3.087e-03  
    9     1.190e-03  
   10     2.089e-04  
   11     7.027e-05  
   12     1.509e-05  
   13     5.328e-06  
   14     3.588e-06  
   15     1.033e-06  
   16     7.301e-07  Converged.
   ... Converged in 16 steps (norm: 7.30096e-07)
------------------------------------
  Starting TPA DIIS iterations ... 
------------------------------------ 
   It     Res. Norm  Remark
------------------------------------
                       Guess.
    1     7.628e-01  
    2     6.018e-01  
    3     2.413e-01  
    4     1.443e-01  
    5     2.867e-02  
    6     1.181e-02  
    7     2.265e-03  
    8     1.135e-03  
    9     3.407e-04  
   10     4.329e-05  
   11     9.950e-06  
   12     4.153e-06  
   13     3.063e-06  
   14     8.047e-07  Converged.
   ... Converged in 14 steps (norm: 8.04678e-07)
------------------------------------
  Starting TPA DIIS iterations ... 
------------------------------------ 
   It     Res. Norm  Remark
------------------------------------
                       Guess.
    1     8.667e+00  
    2     1.433e+01  
    3     2.252e+00  
    4     7.830e-01  
    5     2.192e-01  
    6     9.668e-02  
    7     2.865e-02  
    8     4.909e-03  
    9     1.968e-03  
   10     3.509e-04  
   11     1.217e-04  
   12     2.842e-05  
   13     1.226e-05  
   14     7.410e-06  
   15     1.527e-06  
   16     1.127e-06  
   17     2.559e-07  Converged.
   ... Converged in 17 steps (norm: 2.55919e-07)
------------------------------------
  Starting TPA DIIS iterations ... 
------------------------------------ 
   It     Res. Norm  Remark
------------------------------------
                       Guess.
    1     8.218e+00  
    2     1.359e+01  
    3     2.147e+00  
    4     7.722e-01  
    5     2.183e-01  
    6     9.727e-02  
    7     2.830e-02  
    8     5.009e-03  
    9     1.990e-03  
   10     3.561e-04  
   11     1.245e-04  
   12     3.193e-05  
   13     1.240e-05  
   14     9.425e-06  
   15     3.087e-06  
   16     1.929e-06  
   17     4.812e-07  Converged.
   ... Converged in 17 steps (norm: 4.8116e-07)
------------------------------------
  Starting TPA DIIS iterations ... 
------------------------------------ 
   It     Res. Norm  Remark
------------------------------------
                       Guess.
    1     8.134e-01  
    2     6.971e-01  
    3     3.036e-01  
    4     2.374e-01  
    5     4.014e-02  
    6     1.807e-02  
    7     3.929e-03  
    8     1.655e-03  
    9     5.386e-04  
   10     5.133e-05  
   11     1.616e-05  
   12     7.500e-06  
   13     6.482e-06  
   14     1.482e-06  
   15     5.979e-07  Converged.
   ... Converged in 15 steps (norm: 5.97898e-07)
------------------------------------
  Starting TPA DIIS iterations ... 
------------------------------------ 
   It     Res. Norm  Remark
------------------------------------
                       Guess.
    1     1.049e+01  
    2     1.843e+01  
    3     2.735e+00  
    4     1.057e+00  
    5     3.000e-01  
    6     1.350e-01  
    7     3.940e-02  
    8     6.715e-03  
    9     2.748e-03  
   10     4.938e-04  
   11     1.728e-04  
   12     4.571e-05  
   13     1.988e-05  
   14     1.348e-05  
   15     2.517e-06  
   16     2.228e-06  
   17     4.931e-07  Converged.
   ... Converged in 17 steps (norm: 4.93067e-07)
------------------------------------
  Starting TPA DIIS iterations ... 
------------------------------------ 
   It     Res. Norm  Remark
------------------------------------
                       Guess.
    1     9.945e+00  
    2     1.747e+01  
    3     2.606e+00  
    4     1.040e+00  
    5     2.989e-01  
    6     1.360e-01  
    7     3.893e-02  
    8     6.868e-03  
    9     2.783e-03  
   10     5.037e-04  
   11     1.790e-04  
   12     5.311e-05  
   13     2.287e-05  
   14     1.769e-05  
   15     6.238e-06  
   16     3.414e-06  
   17     9.116e-07  Converged.
   ... Converged in 17 steps (norm: 9.11634e-07)
------------------------------------
  Starting TPA DIIS iterations ... 
------------------------------------ 
   It     Res. Norm  Remark
------------------------------------
                       Guess.
    1     8.474e-01  
    2     7.697e-01  
    3     3.535e-01  
    4     3.185e-01  
    5     5.087e-02  
    6     2.378e-02  
    7     5.608e-03  
    8     1.868e-03  
    9     6.903e-04  
   10     6.891e-05  
   11     2.253e-05  
   12     1.074e-05  
   13     1.019e-05  
   14     2.150e-06  
   15     9.038e-07  Converged.
   ... Converged in 15 steps (norm: 9.03783e-07)
------------------------------------
  Starting TPA DIIS iterations ... 
------------------------------------ 
   It     Res. Norm  Remark
------------------------------------
                       Guess.
    1     1.143e+01  
    2     2.063e+01  
    3     2.979e+00  
    4     1.206e+00  
    5     3.443e-01  
    6     1.562e-01  
    7     4.529e-02  
    8     7.701e-03  
    9     3.179e-03  
   10     5.730e-04  
   11     2.007e-04  
   12     5.654e-05  
   13     2.459e-05  
   14     1.759e-05  
   15     3.272e-06  
   16     3.061e-06  
   17     6.433e-07  Converged.
   ... Converged in 17 steps (norm: 6.43317e-07)
------------------------------------
  Starting TPA DIIS iterations ... 
------------------------------------ 
   It     Res. Norm  Remark
------------------------------------
                       Guess.
    1     1.083e+01  
    2     1.956e+01  
    3     2.838e+00  
    4     1.185e+00  
    5     3.431e-01  
    6     1.576e-01  
    7     4.475e-02  
    8     7.886e-03  
    9     3.224e-03  
   10     5.861e-04  
   11     2.096e-04  
   12     6.662e-05  
   13     3.031e-05  
   14     2.318e-05  
   15     8.359e-06  
   16     4.319e-06  
   17     1.165e-06  
   18     3.912e-07  Converged.
   ... Converged in 18 steps (norm: 3.91232e-07)
------------------------------------
  Starting TPA DIIS iterations ... 
------------------------------------ 
   It     Res. Norm  Remark
------------------------------------
                       Guess.
    1     8.626e-01  
    2     8.046e-01  
    3     3.780e-01  
    4     3.577e-01  
    5     5.661e-02  
    6     2.668e-02  
    7     6.523e-03  
    8     1.925e-03  
    9     7.641e-04  
   10     7.964e-05  
   11     2.612e-05  
   12     1.256e-05  
   13     1.239e-05  
   14     2.522e-06  
   15     1.102e-06  
   16     4.889e-07  Converged.
   ... Converged in 16 steps (norm: 4.88923e-07)
------------------------------------
  Starting TPA DIIS iterations ... 
------------------------------------ 
   It     Res. Norm  Remark
------------------------------------
                       Guess.
    1     1.240e+01  
    2     2.298e+01  
    3     3.230e+00  
    4     1.365e+00  
    5     3.920e-01  
    6     1.794e-01  
    7     5.164e-02  
    8     8.763e-03  
    9     3.648e-03  
   10     6.591e-04  
   11     2.308e-04  
   12     6.925e-05  
   13     3.014e-05  
   14     2.263e-05  
   15     4.299e-06  
   16     4.179e-06  
   17     8.262e-07  Converged.
   ... Converged in 17 steps (norm: 8.26167e-07)
------------------------------------
  Starting TPA DIIS iterations ... 
------------------------------------ 
   It     Res. Norm  Remark
------------------------------------
                       Guess.
    1     1.176e+01  
    2     2.178e+01  
    3     3.076e+00  
    4     1.340e+00  
    5     3.907e-01  
    6     1.810e-01  
    7     5.103e-02  
    8     8.984e-03  
    9     3.704e-03  
   10     6.761e-04  
   11     2.434e-04  
   12     8.259e-05  
   13     3.962e-05  
   14     2.977e-05  
   15     1.086e-05  
   16     5.367e-06  
   17     1.439e-06  
   18     5.089e-07  Converged.
   ... Converged in 18 steps (norm: 5.08909e-07)
------------------------------------
  Starting TPA DIIS iterations ... 
------------------------------------ 
   It     Res. Norm  Remark
------------------------------------
                       Guess.
    1     8.770e-01  
    2     8.395e-01  
    3     4.028e-01  
    4     3.957e-01  
    5     6.268e-02  
    6     2.960e-02  
    7     7.497e-03  
    8     1.969e-03  
    9     8.386e-04  
   10     9.124e-05  
   11     3.006e-05  
   12     1.461e-05  
   13     1.492e-05  
   14     2.937e-06  
   15     1.351e-06  
   16     6.107e-07  Converged.
   ... Converged in 16 steps (norm: 6.10744e-07)
------------------------------------
  Two-photon absorbption ...  CPU 171.15 s  wall 50.72 s
  Transition density matrix of state singlet_A_1 printed to ASCII file 'State_singlet_A_1_Transition.txt'
  Transition density matrix of state singlet_A_2 printed to ASCII file 'State_singlet_A_2_Transition.txt'
  Transition density matrix of state singlet_A_3 printed to ASCII file 'State_singlet_A_3_Transition.txt'
  Transition density matrix of state singlet_A_4 printed to ASCII file 'State_singlet_A_4_Transition.txt'
  Transition density matrix of state singlet_A_5 printed to ASCII file 'State_singlet_A_5_Transition.txt'
  Transition density matrix of state singlet_A_6 printed to ASCII file 'State_singlet_A_6_Transition.txt'
  Transition density matrix of state singlet_A_7 printed to ASCII file 'State_singlet_A_7_Transition.txt'
  Transition density matrix of state singlet_A_8 printed to ASCII file 'State_singlet_A_8_Transition.txt'
  Transition density matrix of state singlet_A_9 printed to ASCII file 'State_singlet_A_9_Transition.txt'
  Transition density matrix of state singlet_A_10 printed to ASCII file 'State_singlet_A_10_Transition.txt'
  Transition properties ...  CPU 0.21 s  wall 0.42 s
  Difference density matrix of state singlet_A_1 printed to ASCII file 'State_singlet_A_1_Difference.txt'
  Total density matrix of state singlet_A_1 printed to ASCII file 'State_singlet_A_1_Total.txt'
  Difference density matrix of state singlet_A_2 printed to ASCII file 'State_singlet_A_2_Difference.txt'
  Total density matrix of state singlet_A_2 printed to ASCII file 'State_singlet_A_2_Total.txt'
  Difference density matrix of state singlet_A_3 printed to ASCII file 'State_singlet_A_3_Difference.txt'
  Total density matrix of state singlet_A_3 printed to ASCII file 'State_singlet_A_3_Total.txt'
  Difference density matrix of state singlet_A_4 printed to ASCII file 'State_singlet_A_4_Difference.txt'
  Total density matrix of state singlet_A_4 printed to ASCII file 'State_singlet_A_4_Total.txt'
  Difference density matrix of state singlet_A_5 printed to ASCII file 'State_singlet_A_5_Difference.txt'
  Total density matrix of state singlet_A_5 printed to ASCII file 'State_singlet_A_5_Total.txt'
  Difference density matrix of state singlet_A_6 printed to ASCII file 'State_singlet_A_6_Difference.txt'
  Total density matrix of state singlet_A_6 printed to ASCII file 'State_singlet_A_6_Total.txt'
  Difference density matrix of state singlet_A_7 printed to ASCII file 'State_singlet_A_7_Difference.txt'
  Total density matrix of state singlet_A_7 printed to ASCII file 'State_singlet_A_7_Total.txt'
  Difference density matrix of state singlet_A_8 printed to ASCII file 'State_singlet_A_8_Difference.txt'
  Total density matrix of state singlet_A_8 printed to ASCII file 'State_singlet_A_8_Total.txt'
  Difference density matrix of state singlet_A_9 printed to ASCII file 'State_singlet_A_9_Difference.txt'
  Total density matrix of state singlet_A_9 printed to ASCII file 'State_singlet_A_9_Total.txt'
  Difference density matrix of state singlet_A_10 printed to ASCII file 'State_singlet_A_10_Difference.txt'
  Total density matrix of state singlet_A_10 printed to ASCII file 'State_singlet_A_10_Total.txt'
  Properties ...  CPU 0.74 s  wall 0.80 s
  ISR TDMS ...  CPU 40.69 s  wall 11.78 s
  ISR transition properties ...  CPU 0.86 s  wall 0.26 s
  Sum-over-states TPA ...  CPU 0.00 s  wall 0.00 s

--------------------------------------------------------------------------------
                   State-averaged natural transition orbitals
--------------------------------------------------------------------------------
--------------------------------------------------------------------------------
  SA-NTO decomposition ...  CPU 0.01 s  wall 0.02 s

--------------------------------------------------------------------------------
                             Excited State Summary
--------------------------------------------------------------------------------
--------------------------------------------------------------------------------

  Excited state 1 (singlet, A)                                     [converged]
  ----------------------------------------------------------------------------
  Term symbol:  2 (1) A                                     R^2 =  6.50178e-14

  Total energy:                                            -77.9985503455 a.u.
  Excitation energy:                                               8.736881 eV

  Osc. strength:                                                      0.445377
  Trans. dip. moment [a.u.]:           [  -1.045381,    0.993884,    0.009532]
  <i|r^2|0> [a.u.]:                    [  -6.165798,    0.245637,    0.003056]
  Two-photon absorption cross-section (SoS) [a.u.]:                   0.000456
  Two-photon absorption matrix (SoS) [a.u.]:
                                       |   -0.005289    0.001184    0.001486 |
                                       |    0.001184   -0.001715   -0.000765 |
                                       |    0.001486   -0.000765   -0.003901 |
  Two-photon absorption cross-section [a.u.]:                         0.002379
  Two-photon absorption matrix [a.u.]:
                                       |    0.000920    0.003481   -0.007676 |
                                       |    0.003481    0.007171   -0.013588 |
                                       |   -0.007676   -0.013588   -0.005200 |

  Dip. moment [a.u.]:                  [  -0.000684,    0.000253,    0.002234]
  Total dipole [Debye]:                                               0.005973
  <r^2> [a.u.]:                        [ 176.119851,   35.647537,   11.866066]
  Total <r^2> [a.u.]:                                               223.633454

  V1^2 = 0.9715, V2^2 = 0.0285

  Important amplitudes:
      occ i     occ j     vir a      vir b          v   
    -----------------------------------------------------
     8 (A) A              9 (A) A                 0.6810
     6 (A) A             14 (A) A                 0.0623
     4 (A) A             10 (A) A                 0.0606
     7 (A) A             16 (A) A                -0.0569
     5 (A) A             13 (A) A                 0.0513
     6 (A) A             23 (A) A                 0.0486
     8 (A) A             20 (A) A                -0.0350
     6 (A) A             19 (A) A                 0.0309
     3 (A) A             12 (A) A                -0.0281
     5 (A) A             22 (A) A                -0.0215
     7 (A) A             11 (A) A                -0.0209
     4 (A) A             24 (A) A                 0.0187
     3 (A) A             26 (A) A                 0.0185
     8 (A) A   8 (A) B   17 (A) A   20 (A) B      0.0184
     8 (A) A   8 (A) B    9 (A) A   28 (A) B      0.0168
     6 (A) A             26 (A) A                 0.0163
     7 (A) A             21 (A) A                -0.0148
     3 (A) A             14 (A) A                 0.0139
     7 (A) A              9 (A) A                -0.0136
     6 (A) A             12 (A) A                 0.0132
     3 (A) A   4 (A) B    9 (A) A    9 (A) B     -0.0129
     3 (A) A             19 (A) A                 0.0119
     8 (A) A   8 (A) B   18 (A) A   19 (A) B     -0.0113
     7 (A) A             32 (A) A                -0.0096
     7 (A) A             36 (A) A                -0.0086
     3 (A) A             23 (A) A                 0.0080
     8 (A) A   8 (A) B   25 (A) A   29 (A) B     -0.0076
     6 (A) A             35 (A) A                 0.0072
     6 (A) A             40 (A) A                 0.0068
     3 (A) A   6 (A) B    9 (A) A   28 (A) B      0.0065
     6 (A) A   8 (A) A   19 (A) A   28 (A) A     -0.0061
     5 (A) A   7 (A) B    9 (A) A    9 (A) B      0.0060
     5 (A) A   8 (A) B   11 (A) A   20 (A) B      0.0059
     7 (A) A   8 (A) B   13 (A) A   20 (A) B     -0.0059
     5 (A) A   8 (A) B   16 (A) A    9 (A) B     -0.0059
     5 (A) A   8 (A) B   11 (A) A    9 (A) B      0.0059
     3 (A) A   5 (A) B    9 (A) A   25 (A) B     -0.0058
     3 (A) A             40 (A) A                 0.0057
     7 (A) A   8 (A) B   22 (A) A   20 (A) B      0.0057
     6 (A) A   8 (A) A    9 (A) A   18 (A) A     -0.0057
    -----------------------------------------------------

  Density matrix analysis:
  ------------------------
  NOs
    Occupation of frontier NOs:
       0.9495   1.0217
    Number of electrons: 16.000000
    Number of unpaired electrons: n_u =  2.31339, n_u,nl =  2.03263
    NO participation ratio (PR_NO):  2.863786
  
  
  Mulliken Population Analysis
  Atom      Charge (e)              h+              e-           Del q
  --------------------------------------------------------------------
   1 H        0.058730        0.020337       -0.012540        0.007797
   2 C       -0.115933        0.490765       -0.506087       -0.015322
   3 H        0.058084        0.020222       -0.012596        0.007626
   4 C       -0.117123        0.490607       -0.506267       -0.015660
   5 H        0.057838        0.020260       -0.012552        0.007708
   6 H        0.058405        0.020365       -0.012514        0.007851
  --------------------------------------------------------------------
  Sum:       -0.000000        1.062558       -1.062558        0.000000
  
  Multipole moment analysis of the density matrix
    Molecular charge:                      -0.000000
    Number of electrons:                   16.000000
      Center of electronic charge [Ang]: [ -1.560554,  -0.065611,   0.002217]
    Total nuclear charge:                  16.000000
      Center of nuclear charge [Ang]:    [ -1.560576,  -0.065602,   0.002291]
    Dipole moment [D]:                     0.005973
      Cartesian components [D]:          [ -0.001738,   0.000644,   0.005678]
    RMS size of the density [Ang]:         1.214227
      Cartesian components [Ang]:        [  0.804415,   0.787141,   0.455711]
  
  Exciton analysis of the difference density matrix
    <r_h> [Ang]:                  [ -1.560196,  -0.065747,   0.001325]
    <r_e> [Ang]:                  [ -1.560227,  -0.065658,   0.001107]
    |<r_e - r_h>| [Ang]:            0.000237
    Hole size [Ang]:                1.285539
      Cartesian components [Ang]: [  0.728597,   0.712785,   0.783385]
    Electron size [Ang]:            1.463165
      Cartesian components [Ang]: [  0.853989,   0.830437,   0.849664]

  Transition density matrix analysis:
  -----------------------------------
  
  CT numbers (Mulliken)
    omega =     0.9535
    <Phe> =    -0.1606
  
  Exciton analysis of the transition density matrix
    Trans. dipole moment [D]:             1.833195
      Cartesian components [D]:         [ -1.328547,   1.263100,   0.012114]
    <r_h> [Ang]:                        [ -1.560057,  -0.065883,   0.001508]
    <r_e> [Ang]:                        [ -1.560243,  -0.065641,   0.000968]
    |<r_e - r_h>| [Ang]:                  0.000620
    Hole size [Ang]:                      1.214319
      Cartesian components [Ang]:       [  0.649790,   0.636675,   0.804356]
    Electron size [Ang]:                  1.485994
      Cartesian components [Ang]:       [  0.864421,   0.839318,   0.869770]
    RMS electron-hole separation [Ang]:   1.936776
      Cartesian components [Ang]:       [  1.106831,   1.075212,   1.170447]
    Covariance(r_h, r_e) [Ang^2]:        -0.034176
    Correlation coefficient:             -0.018940
    Center-of-mass size [Ang]:            0.950578
      Cartesian components [Ang]:       [  0.527690,   0.515640,   0.599381]

  Decomposition into state-averaged NTOs
    H- 0 -> L+ 0: -0.6698 ( 89.7%)
    H- 2 -> L+ 5:  0.0836 (  1.4%)
                   omega =  95.4%
  ----------------------------------------------------------------------------


  Excited state 2 (singlet, A)                                     [converged]
  ----------------------------------------------------------------------------
  Term symbol:  3 (1) A                                     R^2 =  3.00697e-13

  Total energy:                                            -77.9868648422 a.u.
  Excitation energy:                                               9.054860 eV

  Osc. strength:                                                      0.000233
  Trans. dip. moment [a.u.]:           [  -0.022449,    0.023311,   -0.001745]
  <i|r^2|0> [a.u.]:                    [  -0.071245,    0.092374,   -0.147740]
  Two-photon absorption cross-section (SoS) [a.u.]:                   4.893016
  Two-photon absorption matrix (SoS) [a.u.]:
                                       |    0.047684    0.057522   -0.541342 |
                                       |    0.057522    0.067387   -0.552433 |
                                       |   -0.541342   -0.552433   -0.115563 |
  Two-photon absorption cross-section [a.u.]:                         0.076599
  Two-photon absorption matrix [a.u.]:
                                       |   -0.014653   -0.007342    0.058495 |
                                       |   -0.007342    0.000247    0.076731 |
                                       |    0.058495    0.076731    0.014436 |

  Dip. moment [a.u.]:                  [  -0.004885,    0.008918,    0.004416]
  Total dipole [Debye]:                                               0.028177
  <r^2> [a.u.]:                        [ 174.513943,   33.972575,   13.170597]
  Total <r^2> [a.u.]:                                               221.657115

  V1^2 = 0.9542, V2^2 = 0.0458

  Important amplitudes:
      occ i     occ j     vir a      vir b          v   
    -----------------------------------------------------
     7 (A) A              9 (A) A                 0.6691
     8 (A) A             11 (A) A                -0.1481
     7 (A) A             20 (A) A                -0.0759
     5 (A) A   8 (A) B    9 (A) A    9 (A) B      0.0316
     8 (A) A             16 (A) A                 0.0273
     8 (A) A             21 (A) A                -0.0176
     5 (A) A             28 (A) A                -0.0150
     4 (A) A   7 (A) B    9 (A) A   19 (A) B     -0.0135
     5 (A) A   7 (A) B    9 (A) A   16 (A) B      0.0134
     8 (A) A              9 (A) A                 0.0133
     7 (A) A   8 (A) B   20 (A) A   17 (A) B      0.0105
     7 (A) A   8 (A) A    9 (A) A   28 (A) A     -0.0097
     5 (A) A   8 (A) B    9 (A) A   20 (A) B     -0.0096
     4 (A) A   6 (A) B    9 (A) A   16 (A) B      0.0091
     5 (A) A   6 (A) A    9 (A) A   23 (A) A     -0.0091
     5 (A) A   6 (A) A    9 (A) A   14 (A) A     -0.0089
     5 (A) A   6 (A) B    9 (A) A   19 (A) B     -0.0087
     8 (A) A   7 (A) B    9 (A) A   28 (A) B      0.0085
     4 (A) A   5 (A) A    9 (A) A   10 (A) A      0.0085
     6 (A) A   7 (A) B    9 (A) A   18 (A) B     -0.0083
     5 (A) A   6 (A) B    9 (A) A   23 (A) B     -0.0080
     3 (A) A   7 (A) B    9 (A) A   18 (A) B      0.0080
     5 (A) A   7 (A) A    9 (A) A   16 (A) A      0.0079
     4 (A) A   8 (A) B    9 (A) A   25 (A) B      0.0077
     7 (A) A   8 (A) B   17 (A) A   20 (A) B      0.0074
     4 (A) A   7 (A) B   19 (A) A    9 (A) B     -0.0074
     5 (A) A   5 (A) B    9 (A) A   13 (A) B     -0.0072
     7 (A) A   8 (A) B   19 (A) A   18 (A) B     -0.0072
     5 (A) A   8 (A) A    9 (A) A   20 (A) A     -0.0069
     4 (A) A   5 (A) B    9 (A) A   18 (A) B     -0.0068
     7 (A) A   7 (A) B   20 (A) A   22 (A) B      0.0065
     7 (A) A   8 (A) B   17 (A) A    9 (A) B     -0.0065
     5 (A) A   6 (A) B    9 (A) A   14 (A) B     -0.0063
     4 (A) A   7 (A) A    9 (A) A   19 (A) A     -0.0061
     4 (A) A   5 (A) B   10 (A) A    9 (A) B     -0.0061
     5 (A) A             38 (A) A                 0.0060
     5 (A) A   7 (A) B   11 (A) A   20 (A) B      0.0060
     4 (A) A   7 (A) B    9 (A) A   14 (A) B      0.0060
     4 (A) A   8 (A) A    9 (A) A   25 (A) A      0.0057
     6 (A) A   7 (A) A   19 (A) A   28 (A) A     -0.0057
    -----------------------------------------------------

  Density matrix analysis:
  ------------------------
  NOs
    Occupation of frontier NOs:
       0.9580   1.0537
    Number of electrons: 16.000000
    Number of unpaired electrons: n_u =  2.35528, n_u,nl =  2.06271
    NO participation ratio (PR_NO):  3.027017
  
  
  Mulliken Population Analysis
  Atom      Charge (e)              h+              e-           Del q
  --------------------------------------------------------------------
   1 H        0.148856        0.121604       -0.023681        0.097923
   2 C       -0.301724        0.270900       -0.472014       -0.201114
   3 H        0.152014        0.126875       -0.025318        0.101557
   4 C       -0.302451        0.273241       -0.474229       -0.200988
   5 H        0.154291        0.127878       -0.023716        0.104161
   6 H        0.149014        0.123457       -0.024997        0.098460
  --------------------------------------------------------------------
  Sum:       -0.000000        1.043956       -1.043956       -0.000000
  
  Multipole moment analysis of the density matrix
    Molecular charge:                      -0.000000
    Number of electrons:                   16.000000
      Center of electronic charge [Ang]: [ -1.560415,  -0.065897,   0.002145]
    Total nuclear charge:                  16.000000
      Center of nuclear charge [Ang]:    [ -1.560576,  -0.065602,   0.002291]
    Dipole moment [D]:                     0.028177
      Cartesian components [D]:          [ -0.012417,   0.022667,   0.011224]
    RMS size of the density [Ang]:         1.200064
      Cartesian components [Ang]:        [  0.787027,   0.768270,   0.480109]
  
  Exciton analysis of the difference density matrix
    <r_h> [Ang]:                  [ -1.565036,  -0.062691,   0.002483]
    <r_e> [Ang]:                  [ -1.562938,  -0.066992,   0.001155]
    |<r_e - r_h>| [Ang]:            0.004966
    Hole size [Ang]:                1.486185
      Cartesian components [Ang]: [  0.999455,   1.001642,   0.454476]
    Electron size [Ang]:            1.477042
      Cartesian components [Ang]: [  0.881354,   0.859201,   0.816481]

  Transition density matrix analysis:
  -----------------------------------
  
  CT numbers (Mulliken)
    omega =     0.9218
    <Phe> =    -0.0122
  
  Exciton analysis of the transition density matrix
    Trans. dipole moment [D]:             0.041188
      Cartesian components [D]:         [ -0.028529,   0.029625,  -0.002218]
    <r_h> [Ang]:                        [ -1.565719,  -0.062092,   0.002725]
    <r_e> [Ang]:                        [ -1.562479,  -0.067565,   0.000867]
    |<r_e - r_h>| [Ang]:                  0.006626
    Hole size [Ang]:                      1.514792
      Cartesian components [Ang]:       [  1.022072,   1.026035,   0.444091]
    Electron size [Ang]:                  1.474127
      Cartesian components [Ang]:       [  0.871983,   0.848523,   0.832289]
    RMS electron-hole separation [Ang]:   2.093879
      Cartesian components [Ang]:       [  1.327642,   1.316509,   0.942604]
    Covariance(r_h, r_e) [Ang^2]:         0.041680
    Correlation coefficient:              0.018665
    Center-of-mass size [Ang]:            1.066654
      Cartesian components [Ang]:       [  0.679586,   0.673110,   0.472056]

  Decomposition into state-averaged NTOs
    H- 1 -> L+ 0: -0.6615 ( 87.5%)
    H- 0 -> L+ 2:  0.1481 (  4.4%)
                   omega =  92.2%
  ----------------------------------------------------------------------------


  Excited state 3 (singlet, A)                                     [converged]
  ----------------------------------------------------------------------------
  Term symbol:  4 (1) A                                     R^2 =  7.24539e-14

  Total energy:                                            -77.9825907396 a.u.
  Excitation energy:                                               9.171164 eV

  Osc. strength:                                                      0.025207
  Trans. dip. moment [a.u.]:           [  -0.017377,   -0.017742,    0.334020]
  <i|r^2|0> [a.u.]:                    [  -0.112936,    0.009574,   -0.004347]
  Two-photon absorption cross-section (SoS) [a.u.]:                   0.055552
  Two-photon absorption matrix (SoS) [a.u.]:
                                       |   -0.083538   -0.004923    0.007845 |
                                       |   -0.004923    0.077828    0.010920 |
                                       |    0.007845    0.010920   -0.015054 |
  Two-photon absorption cross-section [a.u.]:                         0.031437
  Two-photon absorption matrix [a.u.]:
                                       |   -0.067561   -0.001478    0.011210 |
                                       |   -0.001478    0.050343    0.006836 |
                                       |    0.011210    0.006836   -0.008688 |

  Dip. moment [a.u.]:                  [   0.002396,    0.010483,   -0.001739]
  Total dipole [Debye]:                                               0.027688
  <r^2> [a.u.]:                        [ 180.879170,   40.608213,   11.024224]
  Total <r^2> [a.u.]:                                               232.511607

  V1^2 = 0.9587, V2^2 = 0.0413

  Important amplitudes:
      occ i     occ j     vir a      vir b          v   
    -----------------------------------------------------
     8 (A) A             10 (A) A                -0.6891
     8 (A) A             24 (A) A                -0.0507
     8 (A) A             18 (A) A                 0.0312
     4 (A) A              9 (A) A                -0.0238
     8 (A) A   8 (A) B    9 (A) A   12 (A) B      0.0219
     8 (A) A   8 (A) B   10 (A) A   17 (A) B     -0.0173
     8 (A) A             15 (A) A                -0.0169
     5 (A) A   8 (A) B   11 (A) A   10 (A) B     -0.0165
     7 (A) A   8 (A) B   13 (A) A   10 (A) B      0.0141
     4 (A) A   8 (A) B   12 (A) A   10 (A) B      0.0111
     6 (A) A   8 (A) A   10 (A) A   15 (A) A      0.0110
     7 (A) A   8 (A) B   22 (A) A   10 (A) B     -0.0108
     6 (A) A   8 (A) B   15 (A) A   10 (A) B     -0.0108
     4 (A) A   8 (A) A   10 (A) A   12 (A) A     -0.0106
     7 (A) A   8 (A) A   10 (A) A   22 (A) A      0.0099
     7 (A) A   8 (A) A   10 (A) A   13 (A) A     -0.0097
     5 (A) A   8 (A) B   21 (A) A   10 (A) B     -0.0094
     5 (A) A   8 (A) A   10 (A) A   11 (A) A      0.0094
     6 (A) A   8 (A) A   10 (A) A   18 (A) A      0.0088
     6 (A) A   8 (A) B   10 (A) A   10 (A) B      0.0087
     7 (A) A   8 (A) A   12 (A) A   16 (A) A     -0.0082
     5 (A) A   8 (A) A   10 (A) A   21 (A) A      0.0080
     3 (A) A   4 (A) B   10 (A) A    9 (A) B      0.0079
     4 (A) A   8 (A) B   19 (A) A   10 (A) B     -0.0075
     8 (A) A   8 (A) B    9 (A) A   23 (A) B      0.0075
     8 (A) A   8 (A) B   10 (A) A   28 (A) B     -0.0073
     3 (A) A   8 (A) B   10 (A) A   10 (A) B     -0.0072
     5 (A) A   8 (A) B   10 (A) A   11 (A) B     -0.0071
     3 (A) A   8 (A) A   10 (A) A   24 (A) A      0.0071
     7 (A) A   8 (A) B   16 (A) A   12 (A) B      0.0070
     3 (A) A   8 (A) B   10 (A) A   18 (A) B      0.0069
     8 (A) A   8 (A) B    9 (A) A   19 (A) B     -0.0068
     6 (A) A   8 (A) B   18 (A) A   10 (A) B     -0.0067
     3 (A) A   6 (A) B   10 (A) A   28 (A) B     -0.0062
     7 (A) A   8 (A) B   12 (A) A   11 (A) B     -0.0058
     6 (A) A             28 (A) A                 0.0057
     3 (A) A   5 (A) B   10 (A) A   25 (A) B      0.0056
     5 (A) A   8 (A) A   10 (A) A   16 (A) A     -0.0056
     3 (A) A   8 (A) A   10 (A) A   18 (A) A      0.0056
     4 (A) A   8 (A) A   10 (A) A   23 (A) A     -0.0055
    -----------------------------------------------------

  Density matrix analysis:
  ------------------------
  NOs
    Occupation of frontier NOs:
       0.9815   0.9850
    Number of electrons: 16.000000
    Number of unpaired electrons: n_u =  2.28525, n_u,nl =  2.02440
    NO participation ratio (PR_NO):  2.691900
  
  
  Mulliken Population Analysis
  Atom      Charge (e)              h+              e-           Del q
  --------------------------------------------------------------------
   1 H       -0.162596        0.053893       -0.267422       -0.213529
   2 C        0.327899        0.538769       -0.110260        0.428510
   3 H       -0.165952        0.053746       -0.270155       -0.216409
   4 C        0.326903        0.537697       -0.109331        0.428366
   5 H       -0.162761        0.053961       -0.266852       -0.212891
   6 H       -0.163493        0.053880       -0.267927       -0.214047
  --------------------------------------------------------------------
  Sum:       -0.000000        1.291945       -1.291945        0.000000
  
  Multipole moment analysis of the density matrix
    Molecular charge:                      -0.000000
    Number of electrons:                   16.000000
      Center of electronic charge [Ang]: [ -1.560655,  -0.065949,   0.002348]
    Total nuclear charge:                  16.000000
      Center of nuclear charge [Ang]:    [ -1.560576,  -0.065602,   0.002291]
    Dipole moment [D]:                     0.027688
      Cartesian components [D]:          [  0.006091,   0.026645,  -0.004420]
    RMS size of the density [Ang]:         1.276467
      Cartesian components [Ang]:        [  0.854437,   0.840456,   0.439247]
  
  Exciton analysis of the difference density matrix
    <r_h> [Ang]:                  [ -1.560152,  -0.065968,   0.001728]
    <r_e> [Ang]:                  [ -1.561440,  -0.070084,   0.003177]
    |<r_e - r_h>| [Ang]:            0.004550
    Hole size [Ang]:                1.410248
      Cartesian components [Ang]: [  0.834007,   0.819768,   0.788170]
    Electron size [Ang]:            2.076095
      Cartesian components [Ang]: [  1.373469,   1.376953,   0.726467]

  Transition density matrix analysis:
  -----------------------------------
  
  CT numbers (Mulliken)
    omega =     0.9259
    <Phe> =    -0.0109
  
  Exciton analysis of the transition density matrix
    Trans. dipole moment [D]:             0.425668
      Cartesian components [D]:         [ -0.022084,  -0.022547,   0.424497]
    <r_h> [Ang]:                        [ -1.559767,  -0.065696,   0.001269]
    <r_e> [Ang]:                        [ -1.561643,  -0.071644,   0.003541]
    |<r_e - r_h>| [Ang]:                  0.006637
    Hole size [Ang]:                      1.212945
      Cartesian components [Ang]:       [  0.636476,   0.623443,   0.823075]
    Electron size [Ang]:                  2.296525
      Cartesian components [Ang]:       [  1.518154,   1.524518,   0.803167]
    RMS electron-hole separation [Ang]:   2.587267
      Cartesian components [Ang]:       [  1.638684,   1.640097,   1.148368]
    Covariance(r_h, r_e) [Ang^2]:         0.025677
    Correlation coefficient:              0.009218
    Center-of-mass size [Ang]:            1.303516
      Cartesian components [Ang]:       [  0.826817,   0.827012,   0.575829]

  Decomposition into state-averaged NTOs
    H- 0 -> L+ 1: -0.6798 ( 92.4%)
                   omega =  92.6%
  ----------------------------------------------------------------------------


  Excited state 4 (singlet, A)                                     [converged]
  ----------------------------------------------------------------------------
  Term symbol:  5 (1) A                                     R^2 =  1.71041e-13

  Total energy:                                            -77.9582364156 a.u.
  Excitation energy:                                               9.833879 eV

  Osc. strength:                                                      0.000036
  Trans. dip. moment [a.u.]:           [   0.008694,   -0.008604,    0.000992]
  <i|r^2|0> [a.u.]:                    [   0.068238,    0.016548,   -0.035666]
  Two-photon absorption cross-section (SoS) [a.u.]:                 149.684907
  Two-photon absorption matrix (SoS) [a.u.]:
                                       |    0.271996    0.318591   -3.018251 |
                                       |    0.318591    0.366065   -3.031742 |
                                       |   -3.018251   -3.031742   -0.638477 |
  Two-photon absorption cross-section [a.u.]:                        91.940057
  Two-photon absorption matrix [a.u.]:
                                       |    0.205568    0.249215   -2.361430 |
                                       |    0.249215    0.294181   -2.380005 |
                                       |   -2.361430   -2.380005   -0.500448 |

  Dip. moment [a.u.]:                  [  -0.011727,   -0.006902,   -0.003541]
  Total dipole [Debye]:                                               0.035738
  <r^2> [a.u.]:                        [ 181.249204,   40.515869,   10.761257]
  Total <r^2> [a.u.]:                                               232.526330

  V1^2 = 0.9635, V2^2 = 0.0365

  Important amplitudes:
      occ i     occ j     vir a      vir b          v   
    -----------------------------------------------------
     8 (A) A             11 (A) A                -0.6697
     7 (A) A              9 (A) A                -0.1502
     8 (A) A             21 (A) A                -0.0781
     8 (A) A             16 (A) A                 0.0645
     8 (A) A   8 (A) B    9 (A) A   13 (A) B     -0.0167
     5 (A) A   8 (A) B   11 (A) A   11 (A) B     -0.0155
     8 (A) A   8 (A) B   11 (A) A   17 (A) B     -0.0140
     7 (A) A             20 (A) A                 0.0137
     7 (A) A   8 (A) B   13 (A) A   11 (A) B      0.0127
     8 (A) A             12 (A) A                -0.0120
     5 (A) A   8 (A) A   11 (A) A   21 (A) A      0.0110
     4 (A) A   8 (A) B   12 (A) A   11 (A) B      0.0110
     8 (A) A   8 (A) B    9 (A) A   22 (A) B      0.0107
     7 (A) A   8 (A) A   11 (A) A   22 (A) A      0.0096
     6 (A) A   8 (A) B   15 (A) A   11 (A) B     -0.0090
     6 (A) A   8 (A) B   10 (A) A   11 (A) B      0.0090
     7 (A) A   8 (A) B   22 (A) A   11 (A) B     -0.0089
     3 (A) A   4 (A) B   11 (A) A    9 (A) B      0.0083
     3 (A) A   8 (A) B   11 (A) A   18 (A) B      0.0081
     6 (A) A   8 (A) A   11 (A) A   15 (A) A      0.0080
     7 (A) A   8 (A) A   13 (A) A   16 (A) A      0.0078
     6 (A) A              9 (A) A                 0.0078
     7 (A) A   8 (A) A   11 (A) A   13 (A) A     -0.0077
     5 (A) A   8 (A) B   21 (A) A   11 (A) B     -0.0071
     4 (A) A   8 (A) B   19 (A) A   11 (A) B     -0.0070
     5 (A) A   8 (A) B    9 (A) A    9 (A) B     -0.0068
     4 (A) A   8 (A) A   11 (A) A   12 (A) A     -0.0062
     6 (A) A   8 (A) A   11 (A) A   18 (A) A      0.0062
     3 (A) A   6 (A) B   11 (A) A   28 (A) B     -0.0060
     6 (A) A   8 (A) B   18 (A) A   11 (A) B     -0.0060
     7 (A) A   8 (A) B   16 (A) A   13 (A) B     -0.0057
     3 (A) A   8 (A) A   11 (A) A   18 (A) A      0.0056
     5 (A) A   8 (A) B   10 (A) A   10 (A) B     -0.0056
     3 (A) A   8 (A) B   11 (A) A   30 (A) B      0.0055
     3 (A) A   5 (A) B   11 (A) A   25 (A) B      0.0055
     6 (A) A   8 (A) B   11 (A) A   10 (A) B      0.0054
     7 (A) A   8 (A) B   12 (A) A   10 (A) B     -0.0054
     8 (A) A   8 (A) B   20 (A) A   22 (A) B     -0.0053
     3 (A) A   8 (A) A   11 (A) A   24 (A) A      0.0053
     5 (A) A   8 (A) A   11 (A) A   16 (A) A     -0.0048
    -----------------------------------------------------

  Density matrix analysis:
  ------------------------
  NOs
    Occupation of frontier NOs:
       0.9408   1.0277
    Number of electrons: 16.000000
    Number of unpaired electrons: n_u =  2.31912, n_u,nl =  2.04907
    NO participation ratio (PR_NO):  2.914140
  
  
  Mulliken Population Analysis
  Atom      Charge (e)              h+              e-           Del q
  --------------------------------------------------------------------
   1 H       -0.147151        0.045758       -0.243842       -0.198084
   2 C        0.275137        0.497145       -0.121397        0.375747
   3 H       -0.128101        0.046945       -0.225504       -0.178559
   4 C        0.273233        0.496875       -0.122179        0.374696
   5 H       -0.130426        0.047072       -0.227627       -0.180555
   6 H       -0.142691        0.045822       -0.239067       -0.193245
  --------------------------------------------------------------------
  Sum:       -0.000000        1.179616       -1.179616        0.000000
  
  Multipole moment analysis of the density matrix
    Molecular charge:                      -0.000000
    Number of electrons:                   16.000000
      Center of electronic charge [Ang]: [ -1.560188,  -0.065374,   0.002408]
    Total nuclear charge:                  16.000000
      Center of nuclear charge [Ang]:    [ -1.560576,  -0.065602,   0.002291]
    Dipole moment [D]:                     0.035738
      Cartesian components [D]:          [ -0.029807,  -0.017543,  -0.008999]
    RMS size of the density [Ang]:         1.277168
      Cartesian components [Ang]:        [  0.859067,   0.839539,   0.433976]
  
  Exciton analysis of the difference density matrix
    <r_h> [Ang]:                  [ -1.560111,  -0.065386,   0.001683]
    <r_e> [Ang]:                  [ -1.555185,  -0.062096,   0.004078]
    |<r_e - r_h>| [Ang]:            0.006389
    Hole size [Ang]:                1.394822
      Cartesian components [Ang]: [  0.818295,   0.806792,   0.790573]
    Electron size [Ang]:            2.124199
      Cartesian components [Ang]: [  1.442722,   1.403766,   0.678393]

  Transition density matrix analysis:
  -----------------------------------
  
  CT numbers (Mulliken)
    omega =     0.9298
    <Phe> =    -0.0135
  
  Exciton analysis of the transition density matrix
    Trans. dipole moment [D]:             0.015596
      Cartesian components [D]:         [  0.011048,  -0.010935,   0.001261]
    <r_h> [Ang]:                        [ -1.560402,  -0.065600,   0.001322]
    <r_e> [Ang]:                        [ -1.554303,  -0.061300,   0.004438]
    |<r_e - r_h>| [Ang]:                  0.008087
    Hole size [Ang]:                      1.227932
      Cartesian components [Ang]:       [  0.657814,   0.650211,   0.807666]
    Electron size [Ang]:                  2.262311
      Cartesian components [Ang]:       [  1.537198,   1.495225,   0.720678]
    RMS electron-hole separation [Ang]:   2.563402
      Cartesian components [Ang]:       [  1.663483,   1.622702,   1.081985]
    Covariance(r_h, r_e) [Ang^2]:         0.027452
    Correlation coefficient:              0.009882
    Center-of-mass size [Ang]:            1.292360
      Cartesian components [Ang]:       [  0.840276,   0.819115,   0.541461]

  Decomposition into state-averaged NTOs
    H- 0 -> L+ 2:  0.6650 ( 88.4%)
    H- 1 -> L+ 0:  0.1481 (  4.4%)
                   omega =  93.0%
  ----------------------------------------------------------------------------


  Excited state 5 (singlet, A)                                     [converged]
  ----------------------------------------------------------------------------
  Term symbol:  6 (1) A                                     R^2 =  9.97382e-14

  Total energy:                                            -77.9443224537 a.u.
  Excitation energy:                                              10.212497 eV

  Osc. strength:                                                      0.000001
  Trans. dip. moment [a.u.]:           [   0.000997,    0.001388,    0.000533]
  <i|r^2|0> [a.u.]:                    [   0.092364,   -0.101253,    0.014405]
  Two-photon absorption cross-section (SoS) [a.u.]:                 178.488564
  Two-photon absorption matrix (SoS) [a.u.]:
                                       |    0.304597    0.043935   -3.348681 |
                                       |    0.043935   -0.394576    3.311896 |
[...]
    16   -1.487889662335e-03
    17   -1.604657360128e-03
    18   -8.361103000129e-05
    19   -3.320719504764e-03
    20    1.075494439671e-02
    21    9.347878426571e-01
    22   -2.651731798067e-04
    23    1.399507911516e-02
    24    7.366763286600e-04
    25    7.027630031002e-02
    26   -5.228143230293e-02
    27   -1.399421001386e+00
    28    9.785812422000e-02
    29   -9.276211733687e-02
    30   -6.913767939572e-04
    31    3.847230740198e-01
    32   -3.628855035137e-01
    33   -2.580648370626e-03
    34    1.563302326966e-02
    35   -1.516518399544e-03
    36   -1.779150988012e-03
    37   -4.954486023887e-05
    38   -3.137467540731e-03
    39    9.909056692472e-03
    40    9.326577633359e-01
    41    2.377601853690e-04
    42   -1.393762405884e-02
    43   -8.227417296563e-04
    44    1.005121963969e-02
    45    9.397168135256e-01
    46    1.412039871363e-02
    47    3.721352374069e-04
    48    7.076878252745e-04
Sym=X
Ene= 0.232980
Spin=Alpha
Occup=0
     1    2.622820869798e-02
     2    1.235746056790e+00
     3   -1.434753434149e-02
     4   -3.835087829195e-03
     5   -8.655910894113e-04
     6    3.195051672547e-03
     7   -3.603549157455e-03
     8   -5.048150976741e-02
     9   -1.549530957484e-01
    10   -1.585088521072e-01
    11   -1.572387438986e-02
    12   -5.568747511907e-01
    13   -5.580342176476e-01
    14   -5.541800008148e-02
    15    5.435482609820e-04
    16   -9.860937202109e-05
    17   -1.521574435908e-04
    18   -2.154446828180e-04
    19   -3.588601316558e-04
    20   -2.498277115492e-02
    21   -1.158730316352e+00
    22   -2.483658236427e-03
    23   -1.355452561220e-02
    24   -8.499952319698e-04
    25   -2.934028626750e-03
    26    3.372309517219e-03
    27    4.373623081847e-02
    28   -1.540796803889e-01
    29   -1.588855940619e-01
    30   -1.719709432245e-02
    31   -5.485842309991e-01
    32   -5.549165990264e-01
    33   -6.102861106406e-02
    34   -5.298639262784e-04
    35    1.271849742755e-04
    36    2.524591567099e-05
    37    3.878998972057e-04
    38    3.652832548861e-04
    39    2.500578099267e-02
    40    1.156225517076e+00
    41   -2.444051279955e-03
    42   -1.359025306235e-02
    43   -9.400006784508e-04
    44   -2.623825568967e-02
    45   -1.224663085184e+00
    46   -1.427047309477e-02
    47   -3.780492630309e-03
    48   -9.365332878825e-04
Sym=X
Ene= 0.239419
Spin=Alpha
Occup=0
     1   -1.590857520393e-02
     2   -1.048978095521e+00
     3    1.649476282313e-02
     4    9.103963525320e-03
     5    1.352354047642e-03
     6   -8.650736135944e-02
     7    7.972666963307e-02
     8    1.593654225210e+00
     9    5.287642226864e-02
    10   -6.097021333956e-02
    11   -1.203181748298e-04
    12    2.099616478754e-01
    13   -2.372181005325e-01
    14   -1.421245753053e-04
    15   -2.258058562973e-02
    16    2.610821844003e-03
    17    2.815001601470e-03
    18   -5.329705944870e-04
    19    1.287393966464e-02
    20   -1.700468266587e-02
    21   -1.127716870887e+00
    22   -8.552179792383e-03
    23   -1.782241574546e-02
    24   -1.355018720114e-03
    25    8.641021565056e-02
    26   -7.927752304339e-02
    27   -1.595716784438e+00
    28    5.307914487111e-02
    29   -6.144516621875e-02
    30   -1.673547120977e-03
    31    2.101266091918e-01
    32   -2.417739540081e-01
    33   -6.853889286328e-03
    34    2.261229296508e-02
    35   -2.519565296752e-03
    36   -3.030189741371e-03
    37    7.295338615813e-04
    38   -1.278693466765e-02
    39    1.684015584459e-02
    40    1.132708790897e+00
    41   -8.627472503624e-03
    42   -1.792281073401e-02
    43   -1.496784958503e-03
    44    1.560290769699e-02
    45    1.046148619450e+00
    46    1.640463476502e-02
    47    9.263863617771e-03
    48    1.283812089192e-03
Sym=X
Ene= 0.303264
Spin=Alpha
Occup=0
     1   -2.073571560818e-02
     2    1.691573719365e+00
     3   -2.291473018179e-02
     4    2.836599487762e-04
     5   -1.060267466061e-03
     6   -2.067864268964e-04
     7    1.782172565538e-04
     8    2.588690637809e-03
     9   -1.339365165172e-01
    10   -1.396210441975e-01
    11   -1.394085491471e-02
    12   -1.144390661497e+00
    13   -1.194198019126e+00
    14   -1.214688811566e-01
    15   -1.641549787975e-04
    16   -1.741432406914e-03
    17    1.657610644207e-03
    18   -3.267465580572e-02
    19   -1.559192750243e-03
    20    2.000532804464e-02
    21   -1.690706128162e+00
    22    1.428881556214e-03
    23   -2.291474955918e-02
    24   -1.195465465628e-03
    25    8.034177630522e-05
    26    2.705636508346e-04
    27   -8.540336596259e-03
    28    1.346663029248e-01
    29    1.402351258894e-01
    30    1.490160050374e-02
    31    1.139892369730e+00
    32    1.197608718165e+00
    33    1.244653848004e-01
    34    7.325613506692e-05
    35   -1.550238158868e-03
    36    1.927971845522e-03
    37   -3.250535244907e-02
    38   -1.694107232152e-03
    39    1.957063210793e-02
    40   -1.692063212593e+00
    41   -1.616460337332e-03
    42    2.283533524840e-02
    43    1.322549801010e-03
    44   -2.010672726851e-02
    45    1.698471810003e+00
    46    2.304519288937e-02
    47   -3.603548409908e-04
    48    1.051517099374e-03
Sym=X
Ene= 0.462064
Spin=Alpha
Occup=0
     1   -1.155077273288e-01
     2   -7.143287179286e-01
     3   -1.567760196403e-02
     4   -1.032329351459e-02
     5   -1.260547459456e-03
     6    6.080393389011e-02
     7    1.734857908861e-02
     8   -3.591820712423e+00
     9    1.029935094172e-01
    10   -9.905122434752e-02
    11   -1.448197356645e-04
    12    2.426131090336e+00
    13   -2.303687681003e+00
    14   -1.909920855575e-02
    15    5.367043600759e-02
    16   -3.200258623748e-03
    17   -4.413395461933e-03
    18   -7.759488320613e-04
    19    1.798780276952e-02
    20   -1.210056774424e-01
    21   -7.031415256415e-01
    22    8.724046337033e-03
    23    1.637952166865e-02
    24    1.333500692063e-03
    25   -6.095180672442e-02
    26   -1.625798693966e-02
    27    3.591659189398e+00
    28    1.051489960833e-01
    29   -1.004389143977e-01
    30   -1.026878845971e-03
    31    2.423169800810e+00
    32   -2.298476900681e+00
    33   -2.302465311868e-02
    34   -5.270384234611e-02
    35    3.416787948319e-03
    36    4.482771700152e-03
    37    6.539869479201e-04
    38   -1.903804208436e-02
    39    1.152172165025e-01
    40    7.092348259118e-01
    41    8.583611001763e-03
    42    1.624876572435e-02
    43    1.382624132788e-03
    44    1.108370490731e-01
    45    7.182546026536e-01
    46   -1.545609301390e-02
    47   -9.942775819533e-03
    48   -1.363554886218e-03
Sym=X
Ene= 0.577509
Spin=Alpha
Occup=0
     1    2.469118783689e-01
     2    4.098806792359e-02
     3   -1.847554958302e-02
     4    2.571547638975e-02
     5    5.598587730856e-04
     6   -4.457715258020e-03
     7   -1.571930256911e-01
     8   -4.661094939086e-01
     9    2.987981835840e-01
    10   -2.879205415597e-01
    11   -2.889627495250e-03
    12   -7.198671315647e-01
    13    6.968581074300e-01
    14    5.786532312551e-03
    15   -5.873612374889e-03
    16    3.774138880295e-03
    17    3.676746638098e-03
    18   -4.356145483537e-03
    19    6.023510455093e-02
    20    2.553378745581e-01
    21    2.978072297888e-02
    22   -2.639747011958e-02
    23    1.643958046507e-02
    24   -3.322225128565e-04
    25   -5.630786708553e-03
    26   -1.579018915602e-01
    27   -4.099705440430e-01
    28   -2.974045043684e-01
    29    2.852355296715e-01
    30    2.705865704053e-03
    31    7.623964688697e-01
    32   -7.329333135407e-01
    33   -6.862881529466e-03
    34   -5.864376281384e-03
    35    3.814313990402e-03
    36    3.670485133226e-03
    37   -3.743684801697e-03
    38    6.019284771441e-02
    39    2.506741055979e-01
    40    4.996947839790e-02
    41    2.722071907690e-02
    42   -1.702324200006e-02
    43    2.702993595855e-04
    44    2.491035225185e-01
    45    5.597212128686e-02
    46    1.842646803408e-02
    47   -2.587412410962e-02
    48   -6.729390345070e-04
Sym=X
Ene= 0.615146
Spin=Alpha
Occup=0
     1   -5.223882687550e-01
     2    2.000919903761e-01
     3   -6.134443070929e-02
     4    3.761806289663e-02
     5   -8.839090396522e-04
     6   -5.920582075882e-04
     7    2.217933742206e-04
     8   -1.675160457697e-02
     9   -4.046778569095e-02
    10   -3.863830441419e-02
    11   -4.347686632170e-03
    12    3.051058608271e-01
    13    2.800453835243e-01
    14    2.867240146965e-02
    15    1.843141134816e-03
    16   -7.844342497513e-03
    17    7.624818168270e-03
    18   -1.479716931276e-01
    19   -6.442522830869e-03
    20    5.079594026527e-01
    21   -2.040847903457e-01
    22    4.176502843733e-02
    23   -5.844684075391e-02
    24   -1.342675747992e-03
    25    4.160894894826e-04
    26   -1.009811368189e-03
    27    2.430121749436e-02
    28   -3.998229744602e-02
    29   -4.031210052312e-02
    30   -3.991810102013e-03
    31    3.032161087451e-01
    32    2.899246702621e-01
    33    3.291209906533e-02
    34   -1.454680723660e-03
    35    7.266227097978e-03
    36   -8.520050826372e-03
    37    1.491330660770e-01
    38    6.316388444321e-03
    39   -5.149123393813e-01
    40    2.071664514344e-01
    41    4.092152745470e-02
    42   -5.859084237231e-02
    43   -1.517327040799e-03
    44    5.218113747471e-01
    45   -2.043109442535e-01
    46   -6.147589730926e-02
    47    3.760744183880e-02
    48   -5.638191171981e-04
Sym=X
Ene= 0.689154
Spin=Alpha
Occup=0
     1    4.143723672828e-04
     2   -8.361047100428e-04
     3    1.330124436900e-03
     4    1.129282689359e-03
     5   -2.099991721009e-02
     6    4.381885932797e-05
     7    1.687269694831e-03
     8   -1.653027119380e-03
     9    3.045174402099e-02
    10    3.826782683474e-02
    11   -6.704824794003e-01
    12   -2.610159775583e-02
    13   -3.603478124073e-02
    14    6.137413235691e-01
    15   -1.717859807819e-03
    16    8.269899023435e-02
    17   -7.829662279578e-02
    18   -8.702519748111e-03
    19   -1.103208218543e-03
    20    7.600915073625e-04
    21   -2.345769183222e-03
    22    8.264024807298e-04
    23    7.093115112052e-04
    24   -2.102230788563e-02
    25    9.075619258918e-05
    26    1.214688496663e-03
    27   -8.012867375170e-05
    28    3.254106938081e-02
    29    3.939703316953e-02
    30   -6.701221830750e-01
    31   -2.867356846102e-02
    32   -3.776053305599e-02
    33    6.131970778530e-01
    34    7.896261372361e-04
    35   -8.272253288025e-02
    36    7.853228740129e-02
    37    8.145537718471e-03
    38    1.422128310299e-03
    39    1.554314976285e-03
    40   -8.662637991969e-04
    41    1.258709605037e-03
    42    1.624830121275e-03
    43   -2.103922607456e-02
    44    1.242491143764e-03
    45    6.498472632083e-04
    46    7.544277102821e-04
    47    1.204099127679e-03
    48   -2.106230683594e-02
Sym=X
Ene= 0.708949
Spin=Alpha
Occup=0
     1   -4.754014821780e-01
     2    1.581520565504e-01
     3   -8.069874616356e-02
     4   -4.429458197413e-02
     5   -6.256957975398e-03
     6   -4.777850152117e-02
     7   -3.201954218210e-01
     8    5.092258798240e-01
     9    2.038251014237e-01
    10   -1.920978981309e-01
    11   -3.295483011916e-03
    12   -9.762882410812e-02
    13    7.995157721768e-02
    14    3.134462895752e-03
    15    1.941260466040e-01
    16   -1.993758589597e-02
    17   -2.312460562155e-02
    18    3.149120043014e-03
    19   -7.748359970972e-02
    20   -4.780556116798e-01
    21    1.489470415610e-01
    22    4.096106769438e-02
    23    8.168302911736e-02
    24    6.528451020435e-03
    25   -4.676555804958e-02
    26   -3.210466406688e-01
    27    4.640308206381e-01
    28   -2.040856589889e-01
    29    1.918681954946e-01
    30   -6.487433103146e-05
    31    6.546556232686e-02
    32   -5.207189999751e-02
    33    1.016313854308e-03
    34    1.937505879229e-01
    35   -2.035936877872e-02
    36   -2.365915264740e-02
    37    2.408868394201e-03
    38   -7.561642821324e-02
    39   -4.724825993943e-01
    40    1.354779031584e-01
    41   -4.068827382662e-02
    42   -8.102518674186e-02
    43   -6.846130536858e-03
    44   -4.747713090883e-01
    45    1.466744211389e-01
    46    8.058087906836e-02
    47    4.401075683174e-02
    48    6.323044570557e-03
Sym=X
Ene= 0.784588
Spin=Alpha
Occup=0
     1    5.267957252856e-01
     2   -4.693900346846e-01
     3    1.103911335003e-01
     4    2.606063946491e-02
     5    6.585771808548e-03
     6    9.100279855913e-02
     7   -2.153917338355e-01
     8   -6.424545822154e-01
     9    1.101632169022e-01
    10   -1.064955718447e-01
    11    1.736840247644e-03
    12    3.178651967780e-01
    13   -2.912888397020e-01
    14   -7.987222496191e-03
    15   -2.066171866988e-01
    16    1.734092316253e-02
    17    2.027801611778e-02
    18   -1.091657431697e-03
    19    9.285849278715e-03
    20    5.362060224600e-01
    21   -4.670103086684e-01
    22   -2.027708385591e-02
    23   -1.123100464510e-01
    24   -7.205778298168e-03
    25   -9.136085860724e-02
    26    2.131951886411e-01
    27    6.555071958841e-01
    28    1.118252600222e-01
    29   -1.056280546511e-01
    30   -4.153529412218e-03
    31    3.092133427189e-01
    32   -2.877628758514e-01
    33    3.654123348844e-03
    34    2.075744958841e-01
    35   -1.761042301446e-02
    36   -2.240577841977e-02
    37    1.773710654560e-03
    38   -8.770972047670e-03
    39   -5.416161088128e-01
    40    4.663071668759e-01
    41   -2.043572814040e-02
    42   -1.128512435017e-01
    43   -7.775431412132e-03
    44   -5.311893090965e-01
    45    4.647397286570e-01
    46    1.100010630866e-01
    47    2.677963202126e-02
    48    6.805071650972e-03
Sym=X
Ene= 0.807970
Spin=Alpha
Occup=0
     1    1.928526864274e-03
     2   -4.461549098370e-03
     3    2.561996350723e-03
     4    1.996167850485e-03
     5   -3.376346154780e-02
     6    3.429208153404e-04
     7   -3.572198017838e-04
     8   -8.397995110793e-04
     9    3.552204614427e-02
    10    4.180634569566e-02
    11   -7.632179414100e-01
    12   -4.989413559686e-02
    13   -6.371186138944e-02
    14    1.127305462927e+00
    15   -1.347269070254e-04
    16   -6.513890024361e-02
    17    6.192489532275e-02
    18    7.201552636775e-03
    19    7.511695276245e-04
    20    1.867233905853e-03
    21   -3.281297806446e-04
    22    1.911525415641e-03
    23    1.426811967937e-03
    24   -3.455675265576e-02
    25   -3.786402685390e-04
    26    1.170475043060e-03
    27    4.345306598520e-04
    28   -3.591402657150e-02
    29   -4.691790074054e-02
    30    7.631544308565e-01
    31    5.548277854497e-02
    32    6.754741832029e-02
    33   -1.126907117132e+00
    34    2.050484498151e-03
    35   -6.530999362657e-02
    36    6.178261610017e-02
    37    6.091311956903e-03
    38    1.164245505869e-03
    39   -1.894459932881e-03
    40    6.667155676451e-05
    41   -1.378010422105e-03
    42   -2.361376089505e-03
    43    3.424855126250e-02
    44   -1.912035041828e-03
    45    4.245764847671e-03
    46   -8.062345479615e-04
    47   -1.871569057927e-03
    48    3.379012513746e-02
Sym=X
Ene= 0.862278
Spin=Alpha
Occup=0
     1    1.325623542581e-02
     2   -1.095793619512e+00
     3    1.483406941264e-01
     4    5.641035541510e-02
     5    1.028642972356e-02
     6    1.395699502560e-04
     7   -4.745922248933e-04
     8    1.741843188610e-03
     9   -4.069463900641e-01
    10   -4.287763633620e-01
    11   -4.166097539929e-02
    12    9.479235864171e-01
    13    9.987169251028e-01
    14    9.724962787934e-02
    15   -4.999567682206e-04
    16    1.178512108196e-02
    17   -1.298493622698e-02
    18    2.353893507737e-01
    19    9.501228643895e-03
    20   -1.373224587388e-02
    21    1.103270296469e+00
    22    5.032641707665e-02
    23    1.514225495600e-01
    24    1.074907558574e-02
    25   -6.093657490959e-05
    26    1.604579785134e-03
    27   -2.078188629582e-03
    28   -4.067864499553e-01
    29   -4.295531759096e-01
    30   -4.630114419540e-02
    31    9.470191054612e-01
    32    1.002473804769e+00
    33    1.077273644524e-01
    34    2.218866450773e-04
    35   -1.174389667680e-02
    36    1.319452492041e-02
    37   -2.365068725225e-01
    38   -1.025889000402e-02
    39    1.222844297803e-02
    40   -1.102880262734e+00
    41    4.892361442302e-02
    42    1.517239109428e-01
    43    1.128732681711e-02
    44   -1.145660425781e-02
    45    1.095173648934e+00
    46    1.487507034302e-01
    47    5.566509895148e-02
    48    1.035606549324e-02
Sym=X
Ene= 0.935978
Spin=Alpha
Occup=0
     1   -1.132391065313e-01
     2    1.280177795605e+00
     3   -1.813041996580e-01
     4    5.376664988806e-03
     5   -8.097532860226e-03
     6    2.465581010164e-05
     7   -2.177535867735e-03
     8   -1.297729037638e-03
     9    4.730939612258e-01
    10    4.995567403903e-01
    11    5.042266526962e-02
    12   -1.466506763076e+00
    13   -1.541354006934e+00
    14   -1.560673554811e-01
    15   -1.091799666966e-03
    16   -5.700663484565e-03
    17    6.299930102560e-03
    18   -1.205165659084e-01
    19   -2.303201229059e-03
    20    1.172491671439e-01
    21   -1.287426831904e+00
    22    1.159823492893e-02
    23   -1.830196141051e-01
    24   -9.701446906831e-03
    25    3.850040128645e-05
    26   -4.140317952137e-04
    27    5.883771306973e-04
    28   -4.746836338005e-01
    29   -4.971622704469e-01
    30   -5.187497230249e-02
    31    1.470339236560e+00
    32    1.531605551672e+00
    33    1.599898574876e-01
    34   -5.524014431490e-04
    35   -5.767013492598e-03
    36    7.651634206126e-03
    37   -1.205604751055e-01
    38   -4.904307381035e-03
    39    1.165818589358e-01
    40   -1.280784938303e+00
    41   -1.346369808290e-02
    42    1.818750810777e-01
    43    1.042426946409e-02
    44   -1.152246233200e-01
    45    1.286536835354e+00
    46    1.819659903295e-01
    47   -5.423419126961e-03
    48    8.176399483039e-03
Sym=X
Ene= 0.972477
Spin=Alpha
Occup=0
     1   -6.454339324188e-02
     2    9.268892722297e-01
     3   -9.105606457009e-02
     4   -9.850124974944e-02
     5   -1.027588714657e-02
     6    2.530750683480e-02
     7    2.530853120414e-01
     8    5.184207678415e-01
     9    4.813711170817e-01
    10   -4.541686928843e-01
    11   -2.576164825384e-03
    12   -1.496051684203e+00
    13    1.406672400474e+00
    14    8.337750389897e-03
    15   -5.370056067665e-02
    16   -1.286865955893e-02
    17   -9.325028386719e-03
    18    1.350714647375e-02
    19   -3.015662727337e-01
    20   -6.263518953508e-02
    21    9.091042813618e-01
    22    9.533700645544e-02
    23    9.298581903679e-02
    24    9.449659051681e-03
    25   -2.514055268931e-02
    26   -2.378720667200e-01
    27   -5.436809858612e-01
    28    4.775742841946e-01
    29   -4.554809845986e-01
    30   -5.057289528328e-03
    31   -1.482875771997e+00
    32    1.417811308760e+00
    33    1.575587042591e-02
    34    5.269992594349e-02
    35    1.259729749006e-02
    36    9.456991236123e-03
    37   -1.432007765048e-02
    38    2.990528934890e-01
    39    6.231093690740e-02
    40   -9.108337852856e-01
    41    9.423057152154e-02
    42    9.309100753899e-02
    43    9.975829491626e-03
    44    6.594672465121e-02
    45   -9.097158716357e-01
    46   -8.879841861963e-02
    47   -9.787735026845e-02
    48   -9.807817361536e-03
[5D]

======= END OF MOLDEN-FORMATTED INPUT FILE =======


        *************************************************************
        *                                                           *
        *  Thank you very much for using Q-Chem.  Have a nice day.  *
        *                                                           *
        *************************************************************


