                  Welcome to Q-Chem
     A Quantum Leap Into The Future Of Chemistry


 Q-Chem 5.4 (devel), Q-Chem, Inc., Pleasanton, CA (2021)

 E. Epifanovsky,  A. T. B. Gilbert,  Xintian Feng,  Joonho Lee,  Yuezhi Mao,  
 N. Mardirossian,  P. Pokhilko,  A. White,  M. Wormit,  M. P. Coons,  
 A. L. Dempwolff,  Zhengting Gan,  D. Hait,  P. R. Horn,  L. D. Jacobson,  
 I. Kaliman,  J. Kussmann,  A. W. Lange,  Ka Un Lao,  D. S. Levine,  Jie Liu,  
 S. C. McKenzie,  A. F. Morrison,  K. Nanda,  F. Plasser,  D. R. Rehn,  
 M. L. Vidal,  Zhi-Qiang You,  Ying Zhu,  B. Alam,  B. Albrecht,  
 A. Aldossary,  E. Alguire,  J. H. Andersen,  D. Barton,  K. Begam,  A. Behn,  
 Y. A. Bernard,  E. J. Berquist,  H. Burton,  A. Carreras,  K. Carter-Fenk,  
 R. Chakraborty,  A. D. Chien,  K. D. Closser,  V. Cofer-Shabica,  
 S. Dasgupta,  Jia Deng,  M. de Wergifosse,  M. Diedenhofen,  Hainam Do,  
 S. Ehlert,  Po-Tung Fang,  S. Fatehi,  Qingguo Feng,  T. Friedhoff,  
 J. Gayvert,  Qinghui Ge,  G. Gidofalvi,  M. Goldey,  J. Gomes,  
 C. Gonzalez-Espinoza,  S. Gulania,  A. Gunina,  M. W. D. Hanson-Heine,  
 P. H. P. Harbach,  A. W. Hauser,  M. F. Herbst,  M. Hernandez Vera,  
 M. Hodecker,  Z. C. Holden,  S. Houck,  Xunkun Huang,  Kerwin Hui,  
 B. C. Huynh,  M. Ivanov,  Hyunjun Ji,  Hanjie Jiang,  B. Kaduk,  S. Kaehler,  
 K. Khistyaev,  Jaehoon Kim,  P. Klunzinger,  Z. Koczor-Benda,  
 Joong Hoon Koh,  D. Kosenkov,  L. Koulias,  T. Kowalczyk,  C. M. Krauter,  
 K. Kue,  A. Kunitsa,  T. Kus,  A. Landau,  K. V. Lawler,  D. Lefrancois,  
 S. Lehtola,  Rain Li,  Yi-Pei Li,  Jiashu Liang,  M. Liebenthal,  
 Hung-Hsuan Lin,  You-Sheng Lin,  Fenglai Liu,  Kuan-Yu Liu,  
 M. Loipersberger,  A. Luenser,  A. Manjanath,  P. Manohar,  E. Mansoor,  
 S. F. Manzer,  Shan-Ping Mao,  A. V. Marenich,  T. Markovich,  S. Mason,  
 S. A. Maurer,  P. F. McLaughlin,  M. F. S. J. Menger,  J.-M. Mewes,  
 S. A. Mewes,  P. Morgante,  J. W. Mullinax,  K. J. Oosterbaan,  G. Paran,  
 Alexander C. Paul,  Suranjan K. Paul,  F. Pavosevic,  Zheng Pei,  S. Prager,  
 E. I. Proynov,  E. Ramos,  B. Rana,  A. E. Rask,  A. Rettig,  R. M. Richard,  
 F. Rob,  E. Rossomme,  T. Scheele,  M. Scheurer,  M. Schneider,  
 N. Sergueev,  S. M. Sharada,  W. Skomorowski,  D. W. Small,  C. J. Stein,  
 Yu-Chuan Su,  E. J. Sundstrom,  Zhen Tao,  J. Thirman,  T. Tsuchimochi,  
 N. M. Tubman,  S. P. Veccham,  O. Vydrov,  J. Wenzel,  J. Witte,  A. Yamada,  
 Kun Yao,  S. Yeganeh,  S. R. Yost,  A. Zech,  Igor Ying Zhang,  Xing Zhang,  
 Yu Zhang,  D. Zuev,  A. Aspuru-Guzik,  A. T. Bell,  N. A. Besley,  
 K. B. Bravaya,  B. R. Brooks,  D. Casanova,  Jeng-Da Chai,  S. Coriani,  
 C. J. Cramer,  A. E. DePrince, III,  R. A. DiStasio Jr.,  A. Dreuw,  
 B. D. Dunietz,  T. R. Furlani,  W. A. Goddard III,  S. Grimme,  
 S. Hammes-Schiffer,  T. Head-Gordon,  W. J. Hehre,  Chao-Ping Hsu,  
 T.-C. Jagau,  Yousung Jung,  A. Klamt,  Jing Kong,  D. S. Lambrecht,  
 WanZhen Liang,  N. J. Mayhall,  C. W. McCurdy,  J. B. Neaton,  
 C. Ochsenfeld,  J. A. Parkhill,  R. Peverati,  V. A. Rassolov,  Yihan Shao,  
 L. V. Slipchenko,  T. Stauch,  R. P. Steele,  J. E. Subotnik,  
 A. J. W. Thom,  A. Tkatchenko,  D. G. Truhlar,  T. Van Voorhis,  
 T. A. Wesolowski,  K. B. Whaley,  H. L. Woodcock III,  P. M. Zimmerman,  
 S. Faraji,  P. M. W. Gill,  M. Head-Gordon,  J. M. Herbert,  A. I. Krylov

 Additional authors for Version 5.4.1: 
 S. Kotaru,  Shaozhi Li,  Xiangyuan Li,  F. Matz,  A. Molle,  Haisheng Ren,  
 Yingli Su,  Hung-Yi Tsai,  C. Utku,  Fang Wang

 Contributors to earlier versions of Q-Chem not listed above: 
 R. D. Adamson,  B. Austin,  R. Baer,  J. Baker,  G. J. O. Beran,  
 K. Brandhorst,  S. T. Brown,  E. F. C. Byrd,  A. K. Chakraborty,  
 G. K. L. Chan,  Chun-Min Chang,  Yunqing Chen,  C.-L. Cheng,  
 Siu Hung Chien,  D. M. Chipman,  D. L. Crittenden,  H. Dachsel,  
 R. J. Doerksen,  A. D. Dutoi,  R. G. Edgar,  J. Fosso-Tande,  
 L. Fusti-Molnar,  D. Ghosh,  A. Ghysels,  A. Golubeva-Zadorozhnaya,  
 J. Gonthier,  M. S. Gordon,  S. R. Gwaltney,  G. Hawkins,  J. E. Herr,  
 A. Heyden,  S. Hirata,  E. G. Hohenstein,  G. Kedziora,  F. J. Keil,  
 C. Kelley,  Jihan Kim,  R. A. King,  R. Z. Khaliullin,  P. P. Korambath,  
 W. Kurlancheek,  A. Laurent,  A. M. Lee,  M. S. Lee,  S. V. Levchenko,  
 Ching Yeh Lin,  D. Liotard,  E. Livshits,  R. C. Lochan,  I. Lotan,  
 L. A. Martinez-Martinez,  P. E. Maslen,  N. Nair,  D. P. O'Neill,  
 D. Neuhauser,  E. Neuscamman,  C. M. Oana,  R. Olivares-Amaya,  R. Olson,  
 T. M. Perrine,  B. Peters,  P. A. Pieniazek,  A. Prociuk,  Y. M. Rhee,  
 J. Ritchie,  M. A. Rohrdanz,  E. Rosta,  N. J. Russ,  H. F. Schaefer III,  
 M. W. Schmidt,  N. E. Schultz,  S. Sharma,  N. Shenvi,  C. D. Sherrill,  
 A. C. Simmonett,  A. Sodt,  T. Stein,  D. Stuck,  K. S. Thanthiriwatte,  
 V. Vanovschi,  L. Vogt,  Tao Wang,  A. Warshel,  M. A. Watson,  
 C. F. Williams,  Q. Wu,  X. Xu,  Jun Yang,  W. Zhang,  Yan Zhao

 Please cite Q-Chem as follows:
 Y. Shao et al., Mol. Phys. 113, 184-215 (2015)
 DOI: 10.1080/00268976.2014.952696

 Q-Chem 5.4.1 for Intel X86 EM64T Linux

 Parts of Q-Chem use Armadillo 9.800.1 (Horizon Scraper).
 http://arma.sourceforge.net/

 Q-Chem begins on Wed Mar 15 16:22:01 2023  

 Host: cpu121.yggdrasil
0

     Scratch files written to /srv/beegfs/scratch/users/f/fum/qchem69539//
 Processing $rem in /home/share/wesolowski/qc5.aug2021.FDE/config/preferences:
 Processing $rem in /home/fum/.qchemrc:

 Checking the input file for inconsistencies... 	...done.

--------------------------------------------------------------
User input:
--------------------------------------------------------------
$comment
generated from CCJob.Templates
$end

$rem
sym_ignore = true
method = adc(2)
ee_states = 10
basis = cc-pVDZ
mem_static = 1024
mem_total = 40000
adc_davidson_maxiter = 900
adc_davidson_conv = 6
adc_print = 3
adc_prop_es = true
adc_prop_es2es = true
adc_prop_tpa = true
molden_format = True
state_analysis = true
print_orbitals = 15
gen_scfman = false
fde_export_density = true
fde_details = 3
$end

$molecule
0 1
H -0.0348278765 -0.2442097827 0.0636489606
C -1.0765972949 -0.5242748755 -0.0023551776
H -1.313264467 -1.5767591607 -0.0757276926
C -2.043634118 0.3926884087 0.0061254933
H -1.8137616575 1.4459188338 0.0804456828
H -3.085977293 0.114931858 -0.0993381042                     
$end
--------------------------------------------------------------
 ----------------------------------------------------------------
             Standard Nuclear Orientation (Angstroms)
    I     Atom           X                Y                Z
 ----------------------------------------------------------------
    1      H      -0.0348278765    -0.2442097827     0.0636489606
    2      C      -1.0765972949    -0.5242748755    -0.0023551776
    3      H      -1.3132644670    -1.5767591607    -0.0757276926
    4      C      -2.0436341180     0.3926884087     0.0061254933
    5      H      -1.8137616575     1.4459188338     0.0804456828
    6      H      -3.0859772930     0.1149318580    -0.0993381042
 ----------------------------------------------------------------
 Nuclear Repulsion Energy =          33.41340355 hartrees
 There are        8 alpha and        8 beta electrons
 Requested basis set is cc-pVDZ
 There are 24 shells and 48 basis functions
 Total memory of 40000 MB is distributed as follows: 
   MEM_STATIC is set to 1024 MB
   QALLOC/CCMAN JOB total memory use is  38976 MB
 Warning: actual memory use might exceed 40000 MB

 Total QAlloc Memory Limit  40000 MB
 Mega-Array Size      1001 MB
 MEM_STATIC part      1024 MB

                       Distance Matrix (Angstroms)
             H (  1)   C (  2)   H (  3)   C (  4)   H (  5)
   C (  2)  1.080776
   H (  3)  1.851895  1.081258
   C (  4)  2.108139  1.332687  2.102109
   H (  5)  2.453859  2.105215  3.067812  1.080583
   H (  6)  3.076534  2.110829  2.450487  1.083859  1.849968

 A cutoff of  1.0D-11 yielded    300 shell pairs
 There are      1220 function pairs (      1329 Cartesian)
 Smallest overlap matrix eigenvalue = 4.80E-03

 Scale SEOQF with 1.000000e-01/1.000000e-01/1.000000e+00

 Standard Electronic Orientation quadrupole field applied
 Nucleus-field energy     =     0.0000000022 hartrees
 Guess from superposition of atomic densities
 Warning:  Energy on first SCF cycle will be non-variational
 SAD guess density has 16.000000 electrons
 A restricted Hartree-Fock SCF calculation will be
 performed using Pulay DIIS extrapolation
 SCF converges when DIIS error is below 1.0E-08
 using 10 threads for integral computing
 -------------------------------------------------------
 OpenMP Integral computing Module                
 Release: version 1.0, May 2013, Q-Chem Inc. Pittsburgh 
 -------------------------------------------------------
 ---------------------------------------
  Cycle       Energy         DIIS Error
 ---------------------------------------
    1     -78.4366712132      1.01E-01
    2     -78.0176240624      7.21E-03
    3     -78.0382462517      1.84E-03
    4     -78.0397289129      5.73E-04
    5     -78.0398504617      5.79E-05
    6     -78.0398523387      9.23E-06
    7     -78.0398523993      1.98E-06
    8     -78.0398524021      3.32E-07
    9     -78.0398524021      1.30E-07
   10     -78.0398524021      1.79E-08
   11     -78.0398524021      5.33E-09 Convergence criterion met
 ---------------------------------------
 SCF time:  CPU 2.41 s  wall 8.02 s
 SCF   energy in the final basis set = -78.03985240
 Total energy in the final basis set = -78.03985240
Exporting Density Matrix to file 'Densmat_SCF.txt'.
Export successful
================================================================================
|                                                                              |
|                                 A D C  M A N                                 |
|                                                                              |
 ------------------------------------------------------------------------------ 
|                                                                              |
| Components:                                                                  |
|                                                                              |
| - libvmm - 1.3-trunk                                                         |
|   Authors:                                                                   |
|   Evgeny Epifanovsky, Ilya Kaliman                                           |
|                                                                              |
| - libtensor - 2.5-trunk                                                      |
|   Authors:                                                                   |
|   Evgeny Epifanovsky, Michael Wormit, Dmitry Zuev, Sam Manzer,               |
|   Ilya Kaliman                                                               |
|                                                                              |
| - libwfa - 1.1-trunk                                                         |
|   Authors:                                                                   |
|   Felix Plasser, Stefanie Mewes (Baeppler), Benjamin Thomitzni,              |
|   Michael Wormit, Feng Chen, Anna I. Krylov, Pavel Pokhilko                  |
|                                                                              |
| - libadc - 1.1-trunk                                                         |
|   Authors:                                                                   |
|   Michael Wormit, Adrian L. Dempwolff, Philipp H. P. Harbach,                |
|   Caroline Krauter, Dirk Rehn, Matthias Schneider, Jan Wenzel                |
|                                                                              |
| - adcman - 2.6-trunk                                                         |
|   Authors:                                                                   |
|   Michael Wormit, Adrian L. Dempwolff, Philipp H. P. Harbach,                |
|   Caroline Krauter, Daniel Lefrancois, Jan-Michael Mewes, Dirk Rehn,         |
|   Matthias Schneider, Jan Wenzel, Andreas Dreuw                              |
|                                                                              |
| Authors of earlier versions of ADCMAN:                                       |
| Andreas Dreuw, Jan Hendrik Starcke, Dirk Rehn, Michael Wormit                |
|                                                                              |
================================================================================

 Created directory /srv/beegfs/scratch/users/f/fum/qchem69539/plots
  Import QC data ...  CPU 0.00 s  wall 0.05 s

 Alpha MOs, Restricted
 -- Occupied --                  
-11.235 -11.234  -1.032  -0.789  -0.641  -0.582  -0.504  -0.374
  1 A     2 A     3 A     4 A     5 A     6 A     7 A     8 A                  
 -- Virtual --                   
  0.168   0.204   0.233   0.239   0.303   0.462   0.577   0.615
  9 A    10 A    11 A    12 A    13 A    14 A    15 A    16 A                  
  0.689   0.709   0.784   0.808   0.862   0.935   0.972   1.009
 17 A    18 A    19 A    20 A    21 A    22 A    23 A    24 A                  
  1.129   1.235   1.250   1.269   1.295   1.601   1.725   1.749
 25 A    26 A    27 A    28 A    29 A    30 A    31 A    32 A                  
  1.819   1.860   1.866   1.921   1.976   1.978   2.220   2.258
 33 A    34 A    35 A    36 A    37 A    38 A    39 A    40 A                  
  2.375   2.453   2.504   2.632   2.719   2.820   3.138   3.396
 41 A    42 A    43 A    44 A    45 A    46 A    47 A    48 A                  

 Beta MOs, Restricted
 -- Occupied --                  
-11.235 -11.234  -1.032  -0.789  -0.641  -0.582  -0.504  -0.374
  1 A     2 A     3 A     4 A     5 A     6 A     7 A     8 A                  
 -- Virtual --                   
  0.168   0.204   0.233   0.239   0.303   0.462   0.577   0.615
  9 A    10 A    11 A    12 A    13 A    14 A    15 A    16 A                  
  0.689   0.709   0.784   0.808   0.862   0.935   0.972   1.009
 17 A    18 A    19 A    20 A    21 A    22 A    23 A    24 A                  
  1.129   1.235   1.250   1.269   1.295   1.601   1.725   1.749
 25 A    26 A    27 A    28 A    29 A    30 A    31 A    32 A                  
  1.819   1.860   1.866   1.921   1.976   1.978   2.220   2.258
 33 A    34 A    35 A    36 A    37 A    38 A    39 A    40 A                  
  2.375   2.453   2.504   2.632   2.719   2.820   3.138   3.396
 41 A    42 A    43 A    44 A    45 A    46 A    47 A    48 A                  
  Import AO data ...  CPU 0.01 s  wall 0.28 s
  Using point group: C1
  Irreducible representations in point group: A
  Molecular orbitals: 
  Occupied MOs:
  Block   0:   1 (  A) A   2 (  A) A   3 (  A) A   4 (  A) A   5 (  A) A
                  -11.24      -11.23      -1.032     -0.7894      -0.641
               6 (  A) A   7 (  A) A   8 (  A) A
                 -0.5817     -0.5044      -0.374
  Block   1:   1 (  A) B   2 (  A) B   3 (  A) B   4 (  A) B   5 (  A) B
                  -11.24      -11.23      -1.032     -0.7894      -0.641
               6 (  A) B   7 (  A) B   8 (  A) B
                 -0.5817     -0.5044      -0.374
  Virtual MOs:
  Block   0:   9 (  A) A  10 (  A) A  11 (  A) A  12 (  A) A  13 (  A) A
                  0.1683      0.2036      0.2328      0.2393      0.3032
              14 (  A) A  15 (  A) A  16 (  A) A  17 (  A) A  18 (  A) A
                  0.4619      0.5774      0.6153      0.6891      0.7086
              19 (  A) A  20 (  A) A  21 (  A) A  22 (  A) A
                  0.7842      0.8079      0.8621      0.9355
  Block   1:  23 (  A) A  24 (  A) A  25 (  A) A  26 (  A) A  27 (  A) A
                  0.9722       1.009       1.129       1.235        1.25
              28 (  A) A  29 (  A) A  30 (  A) A  31 (  A) A  32 (  A) A
                   1.269       1.295       1.601       1.725       1.749
              33 (  A) A  34 (  A) A  35 (  A) A  36 (  A) A
                   1.819        1.86       1.866       1.921
  Block   2:  37 (  A) A  38 (  A) A  39 (  A) A  40 (  A) A  41 (  A) A
                   1.976       1.978        2.22       2.258       2.375
              42 (  A) A  43 (  A) A  44 (  A) A  45 (  A) A  46 (  A) A
                   2.453       2.504       2.632       2.719        2.82
              47 (  A) A  48 (  A) A
                   3.138       3.396
  Block   3:   9 (  A) B  10 (  A) B  11 (  A) B  12 (  A) B  13 (  A) B
                  0.1683      0.2036      0.2328      0.2393      0.3032
              14 (  A) B  15 (  A) B  16 (  A) B  17 (  A) B  18 (  A) B
                  0.4619      0.5774      0.6153      0.6891      0.7086
              19 (  A) B  20 (  A) B  21 (  A) B  22 (  A) B
                  0.7842      0.8079      0.8621      0.9355
  Block   4:  23 (  A) B  24 (  A) B  25 (  A) B  26 (  A) B  27 (  A) B
                  0.9722       1.009       1.129       1.235        1.25
              28 (  A) B  29 (  A) B  30 (  A) B  31 (  A) B  32 (  A) B
                   1.269       1.295       1.601       1.725       1.749
              33 (  A) B  34 (  A) B  35 (  A) B  36 (  A) B
                   1.819        1.86       1.866       1.921
  Block   5:  37 (  A) B  38 (  A) B  39 (  A) B  40 (  A) B  41 (  A) B
                   1.976       1.978        2.22       2.258       2.375
              42 (  A) B  43 (  A) B  44 (  A) B  45 (  A) B  46 (  A) B
                   2.453       2.504       2.632       2.719        2.82
              47 (  A) B  48 (  A) B
                   3.138       3.396
  Import MO data ...  CPU 0.19 s  wall 0.04 s
  Import HF data ...  CPU 0.34 s  wall 0.09 s
  Import 2e integrals ...  CPU 0.89 s  wall 0.47 s

--------------------------------------------------------------------------------
                                   HF Summary                                   
--------------------------------------------------------------------------------
  Energy:                                                  -78.0398524021 a.u.
  Dip. moment [a.u.]:                  [   0.000887,    0.001101,   -0.010420]
  Total dipole [Debye]:                                               0.026727
  <r^2> [a.u.]:                        [ 175.337771,   34.918908,   11.646704]
  Total <r^2> [a.u.]:                                               221.903382
--------------------------------------------------------------------------------
  HF properties ...  CPU 0.01 s  wall 0.01 s
  MP(1) calculation ...  CPU 0.01 s  wall 0.00 s
  N^6 prerequesite intermediates ...  CPU 0.43 s  wall 0.08 s
  Difference density matrix of state mp2_gs printed to ASCII file 'State_mp2_gs_Difference.txt'
Exporting MP density matrix to file 'Densmat_MP.txt'.
Export successful
  Total density matrix of state mp2_gs printed to ASCII file 'State_mp2_gs_Total.txt'
Exporting MP density matrix to file 'Densmat_MP.txt'.
Export successful

--------------------------------------------------------------------------------
                                 MP(2) Summary                                  
--------------------------------------------------------------------------------
  MP energy contribution:                                   -0.2797595103 a.u.
  Total energy:                                            -78.3196119124 a.u.
  Dip. moment [a.u.]:                  [   0.000765,    0.000980,   -0.010298]
  Total dipole [Debye]:                                               0.026365
  <r^2> [a.u.]:                        [ 175.382938,   34.959388,   11.478645]
  Total <r^2> [a.u.]:                                               221.820972

  Density matrix analysis:
  ------------------------
  NOs
    Occupation of frontier NOs:
       0.0453   1.9382
    Number of electrons: 16.000000
    Number of unpaired electrons: n_u =  0.40367, n_u,nl =  0.04513
    NO participation ratio (PR_NO): 13.859003
  
  
  Mulliken Population Analysis
  Atom      Charge (e)              h+              e-           Del q
  --------------------------------------------------------------------
   1 H        0.050967        0.014038       -0.011203        0.002835
   2 C       -0.100393        0.093157       -0.098866       -0.005709
   3 H        0.050578        0.014078       -0.011193        0.002885
   4 C       -0.102864        0.093244       -0.098985       -0.005741
   5 H        0.050298        0.014106       -0.011198        0.002908
   6 H        0.051414        0.014032       -0.011210        0.002822
  --------------------------------------------------------------------
  Sum:        0.000000        0.242654       -0.242654       -0.000000
  
  Multipole moment analysis of the density matrix
    Molecular charge:                      0.000000
    Number of electrons:                   16.000000
      Center of electronic charge [Ang]: [ -1.560602,  -0.065635,  -0.000181]
    Total nuclear charge:                  16.000000
      Center of nuclear charge [Ang]:    [ -1.560576,  -0.065602,  -0.000522]
    Dipole moment [D]:                     0.026365
      Cartesian components [D]:          [  0.001946,   0.002491,  -0.026175]
    RMS size of the density [Ang]:         1.201032
      Cartesian components [Ang]:        [  0.796264,   0.779451,   0.448215]
  
  Exciton analysis of the difference density matrix
    <r_h> [Ang]:                  [ -1.561174,  -0.065802,   0.001468]
    <r_e> [Ang]:                  [ -1.560908,  -0.065538,   0.001203]
    |<r_e - r_h>| [Ang]:            0.000459
    Hole size [Ang]:                1.394034
      Cartesian components [Ang]: [  0.847238,   0.834107,   0.727862]
    Electron size [Ang]:            1.359813
      Cartesian components [Ang]: [  0.877933,   0.861675,   0.579518]
--------------------------------------------------------------------------------
  MP(2) calculation ...  CPU 0.26 s  wall 0.55 s
  Start ADC(2)-s ...  CPU 0.01 s  wall 0.00 s
  ADC(2) intermediates ...  CPU 0.02 s  wall 0.01 s
  Starting Davidson for singlet states of irrep A ... 
--------------------------------------------------------------------------------
   It NVec Conv  Avg. Norm  Max. Norm  Conv. states           Remark
--------------------------------------------------------------------------------
        10    0  1.330e-01  4.686e-01  0.4118 n n n n n n n n Guess.
    1   20    0  2.323e-02  1.109e-01  0.3258 n n n n n n n n 
    2   30    0  6.111e-03  2.463e-02  0.3211 n n n n n n n n 
    3   40    0  2.079e-03  1.018e-02  0.3207 n n n n n n n n 
    4   50    0  5.351e-04  3.350e-03  0.3207 n n n n n n n n 
    5   20    0  3.042e-04  1.565e-03  0.3207 n n n n n n n n Subspace collapsed.
    6   30    0  2.425e-04  1.434e-03  0.3207 n n n n n n n n 
    7   40    0  1.732e-04  9.682e-04  0.3207 n n n n n n n n 
    8   50    0  1.083e-04  6.892e-04  0.3207 n n n n n n n n 
    9   20    0  5.307e-05  3.457e-04  0.3207 n n n n n n n n Subspace collapsed.
   10   30    2  3.744e-05  2.062e-04  0.3207 n y y n n n n n 
   11   40    3  1.623e-05  9.779e-05  0.3207 n y y y n n n n 
   12   50    5  1.037e-05  6.990e-05  0.3207 y y y y y n n n 
   13   20    6  7.877e-06  5.673e-05  0.3207 y y y y y y n n Subspace collapsed.
   14   30    6  1.076e-05  8.290e-05  0.3207 y y y y y y n n 
   15   40    6  1.062e-05  9.254e-05  0.3207 y y y y y y n n 
   16   50    6  6.472e-06  5.984e-05  0.3207 y y y y y y n n 
   17   20    6  3.549e-06  3.262e-05  0.3207 y y y y y y n n Subspace collapsed.
   18   30    6  2.075e-06  1.905e-05  0.3207 y y y y y y n n 
   19   40    7  1.271e-06  1.186e-05  0.3207 y y y y y y y n 
   20   50    7  8.956e-07  8.431e-06  0.3207 y y y y y y y n 
   21   20    8  7.010e-07  6.686e-06  0.3207 y y y y y y y y Subspace collapsed.
   22   30    8  1.137e-06  1.101e-05  0.3207 y y y y y y y y 
   23   40    8  1.046e-06  1.031e-05  0.3207 y y y y y y y y 
   24   48    9  7.088e-07  7.017e-06  0.3207 y y y y y y y y 
   25   50    9  7.059e-07  6.989e-06  0.3207 y y y y y y y y 
   26   16    9  3.546e-07  3.511e-06  0.3207 y y y y y y y y Subspace collapsed.
   27   22    9  2.403e-07  2.380e-06  0.3207 y y y y y y y y 
   28   28    9  1.274e-07  1.263e-06  0.3207 y y y y y y y y 
   29   34   10  9.536e-08  9.469e-07  0.3207 y y y y y y y y Converged.
--------------------------------------------------------------------------------
  Davidson Summary: 
 ------------------------------------------------------------
  State  0: excitation energy =   0.3207 a.u.   (converged)
  State  1: excitation energy =   0.3328 a.u.   (converged)
  State  2: excitation energy =   0.3368 a.u.   (converged)
  State  3: excitation energy =   0.3612 a.u.   (converged)
  State  4: excitation energy =   0.3751 a.u.   (converged)
  State  5: excitation energy =   0.3870 a.u.   (converged)
  State  6: excitation energy =   0.4245 a.u.   (converged)
  State  7: excitation energy =   0.4469 a.u.   (converged)
  State  8: excitation energy =   0.4562 a.u.   (converged)
  State  9: excitation energy =   0.4645 a.u.   (converged)
 ------------------------------------------------------------

  Singlet states of irrep A ...  CPU 115.63 s  wall 30.55 s
  TDMs ...  CPU 0.99 s  wall 0.35 s
  SDMs ...  CPU 2.25 s  wall 0.64 s
  Starting TPA DIIS iterations ... 
------------------------------------ 
   It     Res. Norm  Remark
------------------------------------
                       Guess.
    1     4.401e+00  
    2     5.833e+00  
    3     1.077e+00  
    4     2.573e-01  
    5     6.565e-02  
    6     2.697e-02  
    7     8.229e-03  
    8     1.546e-03  
    9     5.534e-04  
   10     1.353e-04  
   11     4.536e-05  
   12     1.807e-05  
   13     5.573e-06  
   14     3.136e-06  
   15     5.524e-07  Converged.
   ... Converged in 15 steps (norm: 5.52448e-07)
------------------------------------
  Starting TPA DIIS iterations ... 
------------------------------------ 
   It     Res. Norm  Remark
------------------------------------
                       Guess.
    1     4.176e+00  
    2     5.527e+00  
    3     1.027e+00  
    4     2.552e-01  
    5     6.529e-02  
    6     2.668e-02  
    7     8.087e-03  
    8     1.441e-03  
    9     5.152e-04  
   10     1.154e-04  
   11     3.420e-05  
   12     1.350e-05  
   13     3.917e-06  
   14     2.194e-06  
   15     4.136e-07  Converged.
   ... Converged in 15 steps (norm: 4.13641e-07)
------------------------------------
  Starting TPA DIIS iterations ... 
------------------------------------ 
   It     Res. Norm  Remark
------------------------------------
                       Guess.
    1     6.919e-01  
    2     4.933e-01  
    3     1.744e-01  
    4     1.032e-01  
    5     1.743e-02  
    6     6.208e-03  
    7     1.060e-03  
    8     4.529e-04  
    9     1.274e-04  
   10     2.834e-05  
   11     6.651e-06  
   12     2.096e-06  
   13     1.705e-06  
   14     5.961e-07  Converged.
   ... Converged in 14 steps (norm: 5.96105e-07)
------------------------------------
  Starting TPA DIIS iterations ... 
------------------------------------ 
   It     Res. Norm  Remark
------------------------------------
                       Guess.
    1     4.700e+00  
    2     6.369e+00  
    3     1.161e+00  
    4     2.872e-01  
    5     7.431e-02  
    6     3.081e-02  
    7     9.380e-03  
    8     1.772e-03  
    9     6.395e-04  
   10     1.609e-04  
   11     5.627e-05  
   12     2.271e-05  
   13     7.100e-06  
   14     3.918e-06  
   15     7.101e-07  Converged.
   ... Converged in 15 steps (norm: 7.1013e-07)
------------------------------------
  Starting TPA DIIS iterations ... 
------------------------------------ 
   It     Res. Norm  Remark
------------------------------------
                       Guess.
    1     4.458e+00  
    2     6.034e+00  
    3     1.107e+00  
    4     2.845e-01  
    5     7.391e-02  
    6     3.049e-02  
    7     9.218e-03  
    8     1.640e-03  
    9     5.889e-04  
   10     1.361e-04  
   11     4.062e-05  
   12     1.684e-05  
   13     4.779e-06  
   14     2.838e-06  
   15     5.200e-07  Converged.
   ... Converged in 15 steps (norm: 5.19956e-07)
------------------------------------
  Starting TPA DIIS iterations ... 
------------------------------------ 
   It     Res. Norm  Remark
------------------------------------
                       Guess.
    1     7.050e-01  
    2     5.128e-01  
    3     1.853e-01  
    4     1.164e-01  
    5     1.888e-02  
    6     6.872e-03  
    7     1.204e-03  
    8     5.371e-04  
    9     1.546e-04  
   10     3.219e-05  
   11     7.723e-06  
   12     2.476e-06  
   13     2.100e-06  
   14     7.532e-07  Converged.
   ... Converged in 14 steps (norm: 7.53162e-07)
------------------------------------
  Starting TPA DIIS iterations ... 
------------------------------------ 
   It     Res. Norm  Remark
------------------------------------
                       Guess.
    1     4.807e+00  
    2     6.563e+00  
    3     1.191e+00  
    4     2.981e-01  
    5     7.749e-02  
    6     3.223e-02  
    7     9.803e-03  
    8     1.856e-03  
    9     6.716e-04  
   10     1.707e-04  
   11     6.057e-05  
   12     2.453e-05  
   13     7.706e-06  
   14     4.220e-06  
   15     7.722e-07  Converged.
   ... Converged in 15 steps (norm: 7.72159e-07)
------------------------------------
  Starting TPA DIIS iterations ... 
------------------------------------ 
   It     Res. Norm  Remark
------------------------------------
                       Guess.
    1     4.559e+00  
    2     6.218e+00  
    3     1.136e+00  
    4     2.953e-01  
    5     7.708e-02  
    6     3.189e-02  
    7     9.634e-03  
    8     1.713e-03  
    9     6.160e-04  
   10     1.440e-04  
   11     4.308e-05  
   12     1.815e-05  
   13     5.113e-06  
   14     3.097e-06  
   15     5.616e-07  Converged.
   ... Converged in 15 steps (norm: 5.61571e-07)
------------------------------------
  Starting TPA DIIS iterations ... 
------------------------------------ 
   It     Res. Norm  Remark
------------------------------------
                       Guess.
    1     7.094e-01  
    2     5.196e-01  
    3     1.891e-01  
    4     1.212e-01  
    5     1.941e-02  
    6     7.115e-03  
    7     1.258e-03  
    8     5.690e-04  
    9     1.649e-04  
   10     3.335e-05  
   11     8.124e-06  
   12     2.619e-06  
   13     2.252e-06  
   14     8.153e-07  Converged.
   ... Converged in 14 steps (norm: 8.1525e-07)
------------------------------------
  Starting TPA DIIS iterations ... 
------------------------------------ 
   It     Res. Norm  Remark
------------------------------------
                       Guess.
    1     5.547e+00  
    2     7.944e+00  
    3     1.399e+00  
    4     3.787e-01  
    5     1.009e-01  
    6     4.277e-02  
    7     1.292e-02  
    8     2.481e-03  
    9     9.158e-04  
   10     2.476e-04  
   11     9.677e-05  
   12     3.964e-05  
   13     1.291e-05  
   14     6.669e-06  
   15     1.290e-06  
   16     6.303e-07  Converged.
   ... Converged in 16 steps (norm: 6.30339e-07)
------------------------------------
  Starting TPA DIIS iterations ... 
------------------------------------ 
   It     Res. Norm  Remark
------------------------------------
                       Guess.
    1     5.259e+00  
    2     7.525e+00  
    3     1.333e+00  
    4     3.743e-01  
    5     1.004e-01  
    6     4.235e-02  
    7     1.269e-02  
    8     2.249e-03  
    9     8.160e-04  
   10     2.054e-04  
   11     6.264e-05  
   12     2.910e-05  
   13     7.843e-06  
   14     5.361e-06  
   15     9.080e-07  Converged.
   ... Converged in 15 steps (norm: 9.07962e-07)
------------------------------------
  Starting TPA DIIS iterations ... 
------------------------------------ 
   It     Res. Norm  Remark
------------------------------------
                       Guess.
    1     7.379e-01  
    2     5.652e-01  
    3     2.153e-01  
    4     1.548e-01  
    5     2.314e-02  
    6     8.905e-03  
    7     1.671e-03  
    8     8.088e-04  
    9     2.409e-04  
   10     3.849e-05  
   11     1.121e-05  
   12     3.718e-06  
   13     3.458e-06  
   14     1.340e-06  
   15     4.742e-07  Converged.
   ... Converged in 15 steps (norm: 4.74242e-07)
------------------------------------
  Starting TPA DIIS iterations ... 
------------------------------------ 
   It     Res. Norm  Remark
------------------------------------
                       Guess.
    1     6.057e+00  
    2     8.928e+00  
    3     1.541e+00  
    4     4.384e-01  
    5     1.182e-01  
    6     5.067e-02  
    7     1.523e-02  
    8     2.956e-03  
    9     1.105e-03  
   10     3.099e-04  
   11     1.285e-04  
   12     5.264e-05  
   13     1.757e-05  
   14     8.708e-06  
   15     1.735e-06  
   16     8.386e-07  Converged.
   ... Converged in 16 steps (norm: 8.38572e-07)
------------------------------------
  Starting TPA DIIS iterations ... 
------------------------------------ 
   It     Res. Norm  Remark
------------------------------------
                       Guess.
    1     5.741e+00  
    2     8.457e+00  
    3     1.468e+00  
    4     4.327e-01  
    5     1.176e-01  
    6     5.019e-02  
    7     1.496e-02  
    8     2.643e-03  
    9     9.645e-04  
   10     2.547e-04  
   11     7.885e-05  
   12     3.865e-05  
   13     1.017e-05  
   14     7.423e-06  
   15     1.207e-06  
   16     9.697e-07  Converged.
   ... Converged in 16 steps (norm: 9.69703e-07)
------------------------------------
  Starting TPA DIIS iterations ... 
------------------------------------ 
   It     Res. Norm  Remark
------------------------------------
                       Guess.
    1     7.553e-01  
    2     5.950e-01  
    3     2.329e-01  
    4     1.778e-01  
    5     2.581e-02  
    6     1.023e-02  
    7     1.994e-03  
    8     9.811e-04  
    9     2.947e-04  
   10     4.022e-05  
   11     1.367e-05  
   12     4.574e-06  
   13     4.422e-06  
   14     1.798e-06  
   15     6.753e-07  Converged.
   ... Converged in 15 steps (norm: 6.75301e-07)
------------------------------------
  Starting TPA DIIS iterations ... 
------------------------------------ 
   It     Res. Norm  Remark
------------------------------------
                       Guess.
    1     6.557e+00  
    2     9.919e+00  
    3     1.679e+00  
    4     5.001e-01  
    5     1.360e-01  
    6     5.891e-02  
    7     1.761e-02  
    8     3.456e-03  
    9     1.308e-03  
   10     3.786e-04  
   11     1.654e-04  
   12     6.754e-05  
   13     2.309e-05  
   14     1.099e-05  
   15     2.245e-06  
   16     1.071e-06  
   17     1.681e-07  Converged.
   ... Converged in 17 steps (norm: 1.68096e-07)
------------------------------------
  Starting TPA DIIS iterations ... 
------------------------------------ 
   It     Res. Norm  Remark
------------------------------------
                       Guess.
    1     6.214e+00  
    2     9.395e+00  
    3     1.600e+00  
    4     4.930e-01  
    5     1.355e-01  
    6     5.837e-02  
    7     1.729e-02  
    8     3.050e-03  
    9     1.118e-03  
   10     3.088e-04  
   11     9.720e-05  
   12     4.977e-05  
   13     1.283e-05  
   14     9.869e-06  
   15     1.551e-06  
   16     1.273e-06  
   17     1.889e-07  Converged.
   ... Converged in 17 steps (norm: 1.88852e-07)
------------------------------------
  Starting TPA DIIS iterations ... 
------------------------------------ 
   It     Res. Norm  Remark
------------------------------------
                       Guess.
    1     7.711e-01  
    2     6.233e-01  
    3     2.498e-01  
    4     2.000e-01  
    5     2.850e-02  
    6     1.160e-02  
    7     2.341e-03  
    8     1.145e-03  
    9     3.469e-04  
   10     4.178e-05  
   11     1.638e-05  
   12     5.494e-06  
   13     5.456e-06  
   14     2.329e-06  
   15     9.350e-07  Converged.
   ... Converged in 15 steps (norm: 9.3498e-07)
------------------------------------
  Starting TPA DIIS iterations ... 
------------------------------------ 
   It     Res. Norm  Remark
------------------------------------
                       Guess.
    1     8.660e+00  
    2     1.432e+01  
    3     2.251e+00  
    4     7.865e-01  
    5     2.191e-01  
    6     9.809e-02  
    7     2.873e-02  
    8     5.906e-03  
    9     2.345e-03  
   10     7.485e-04  
   11     3.840e-04  
   12     1.533e-04  
   13     5.703e-05  
   14     2.360e-05  
   15     5.175e-06  
   16     2.329e-06  
   17     4.277e-07  Converged.
   ... Converged in 17 steps (norm: 4.27661e-07)
------------------------------------
  Starting TPA DIIS iterations ... 
------------------------------------ 
   It     Res. Norm  Remark
------------------------------------
                       Guess.
    1     8.203e+00  
    2     1.356e+01  
    3     2.143e+00  
    4     7.719e-01  
    5     2.184e-01  
    6     9.722e-02  
    7     2.816e-02  
    8     4.931e-03  
    9     1.840e-03  
   10     5.996e-04  
   11     2.056e-04  
   12     1.174e-04  
   13     2.816e-05  
   14     2.469e-05  
   15     3.552e-06  
   16     2.829e-06  
   17     4.507e-07  Converged.
   ... Converged in 17 steps (norm: 4.50655e-07)
------------------------------------
  Starting TPA DIIS iterations ... 
------------------------------------ 
   It     Res. Norm  Remark
------------------------------------
                       Guess.
    1     8.267e-01  
    2     7.342e-01  
    3     3.176e-01  
    4     2.829e-01  
    5     4.038e-02  
    6     1.785e-02  
    7     4.066e-03  
    8     1.668e-03  
    9     5.496e-04  
   10     5.787e-05  
   11     3.081e-05  
   12     1.037e-05  
   13     1.046e-05  
   14     5.360e-06  
   15     2.817e-06  
   16     1.269e-06  
   17     5.668e-07  Converged.
   ... Converged in 17 steps (norm: 5.6682e-07)
------------------------------------
  Starting TPA DIIS iterations ... 
------------------------------------ 
   It     Res. Norm  Remark
------------------------------------
                       Guess.
    1     1.049e+01  
    2     1.843e+01  
    3     2.737e+00  
    4     1.064e+00  
    5     3.004e-01  
    6     1.374e-01  
    7     3.962e-02  
    8     8.480e-03  
    9     3.488e-03  
   10     1.176e-03  
   11     6.581e-04  
   12     2.582e-04  
   13     1.005e-04  
   14     3.849e-05  
   15     8.761e-06  
   16     3.783e-06  
   17     8.081e-07  Converged.
   ... Converged in 17 steps (norm: 8.0811e-07)
------------------------------------
  Starting TPA DIIS iterations ... 
------------------------------------ 
   It     Res. Norm  Remark
------------------------------------
                       Guess.
    1     9.935e+00  
    2     1.746e+01  
    3     2.604e+00  
    4     1.041e+00  
    5     2.995e-01  
    6     1.361e-01  
    7     3.876e-02  
    8     6.762e-03  
    9     2.558e-03  
   10     9.380e-04  
   11     3.515e-04  
   12     2.061e-04  
   13     4.793e-05  
   14     4.327e-05  
   15     6.135e-06  
   16     4.359e-06  
   17     9.138e-07  Converged.
   ... Converged in 17 steps (norm: 9.13806e-07)
------------------------------------
  Starting TPA DIIS iterations ... 
------------------------------------ 
   It     Res. Norm  Remark
------------------------------------
                       Guess.
    1     8.661e-01  
    2     8.246e-01  
    3     3.729e-01  
    4     3.393e-01  
    5     5.134e-02  
    6     2.356e-02  
    7     5.817e-03  
    8     1.889e-03  
    9     7.087e-04  
   10     8.248e-05  
   11     4.716e-05  
   12     1.649e-05  
   13     1.573e-05  
   14     8.659e-06  
   15     5.492e-06  
   16     2.422e-06  
   17     1.112e-06  
   18     2.596e-07  Converged.
   ... Converged in 18 steps (norm: 2.59579e-07)
------------------------------------
  Starting TPA DIIS iterations ... 
------------------------------------ 
   It     Res. Norm  Remark
------------------------------------
                       Guess.
    1     1.143e+01  
    2     2.063e+01  
    3     2.981e+00  
    4     1.214e+00  
    5     3.448e-01  
    6     1.592e-01  
    7     4.559e-02  
    8     9.953e-03  
    9     4.160e-03  
   10     1.431e-03  
   11     8.282e-04  
   12     3.226e-04  
   13     1.274e-04  
   14     4.755e-05  
   15     1.095e-05  
   16     4.675e-06  
   17     1.073e-06  
   18     6.116e-07  Converged.
   ... Converged in 18 steps (norm: 6.11646e-07)
------------------------------------
  Starting TPA DIIS iterations ... 
------------------------------------ 
   It     Res. Norm  Remark
------------------------------------
                       Guess.
    1     1.082e+01  
    2     1.954e+01  
    3     2.836e+00  
    4     1.186e+00  
    5     3.438e-01  
    6     1.577e-01  
    7     4.455e-02  
    8     7.761e-03  
    9     2.959e-03  
   10     1.143e-03  
   11     4.489e-04  
   12     2.628e-04  
   13     6.124e-05  
   14     5.472e-05  
   15     7.855e-06  
   16     5.125e-06  
   17     1.282e-06  
   18     9.020e-07  Converged.
   ... Converged in 18 steps (norm: 9.01964e-07)
------------------------------------
  Starting TPA DIIS iterations ... 
------------------------------------ 
   It     Res. Norm  Remark
------------------------------------
                       Guess.
    1     8.842e-01  
    2     8.697e-01  
    3     4.001e-01  
    4     3.634e-01  
    5     5.713e-02  
    6     2.643e-02  
    7     6.768e-03  
    8     1.950e-03  
    9     7.867e-04  
   10     9.665e-05  
   11     5.681e-05  
   12     2.055e-05  
   13     1.904e-05  
   14     1.037e-05  
   15     6.925e-06  
   16     3.136e-06  
   17     1.373e-06  
   18     3.249e-07  Converged.
   ... Converged in 18 steps (norm: 3.24904e-07)
------------------------------------
  Starting TPA DIIS iterations ... 
------------------------------------ 
   It     Res. Norm  Remark
------------------------------------
                       Guess.
    1     1.239e+01  
    2     2.294e+01  
    3     3.227e+00  
    4     1.371e+00  
    5     3.918e-01  
    6     1.825e-01  
    7     5.190e-02  
    8     1.156e-02  
    9     4.901e-03  
   10     1.717e-03  
   11     1.022e-03  
   12     3.954e-04  
   13     1.576e-04  
   14     5.778e-05  
   15     1.342e-05  
   16     5.702e-06  
   17     1.399e-06  
   18     8.221e-07  Converged.
   ... Converged in 18 steps (norm: 8.22056e-07)
------------------------------------
  Starting TPA DIIS iterations ... 
------------------------------------ 
   It     Res. Norm  Remark
------------------------------------
                       Guess.
    1     1.173e+01  
    2     2.172e+01  
    3     3.070e+00  
    4     1.338e+00  
    5     3.907e-01  
    6     1.807e-01  
    7     5.067e-02  
    8     8.816e-03  
    9     3.388e-03  
   10     1.372e-03  
   11     5.654e-04  
   12     3.285e-04  
   13     7.756e-05  
   14     6.768e-05  
   15     9.951e-06  
   16     5.864e-06  
   17     1.779e-06  
   18     1.202e-06  
   19     3.688e-07  Converged.
   ... Converged in 19 steps (norm: 3.68788e-07)
------------------------------------
  Starting TPA DIIS iterations ... 
------------------------------------ 
   It     Res. Norm  Remark
------------------------------------
                       Guess.
    1     9.015e-01  
    2     9.152e-01  
    3     4.269e-01  
    4     3.852e-01  
    5     6.313e-02  
    6     2.926e-02  
    7     7.761e-03  
    8     1.996e-03  
    9     8.644e-04  
   10     1.115e-04  
   11     6.746e-05  
   12     2.542e-05  
   13     2.305e-05  
   14     1.232e-05  
   15     6.964e-06  
   16     3.669e-06  
   17     1.706e-06  
   18     3.724e-07  Converged.
   ... Converged in 18 steps (norm: 3.7237e-07)
------------------------------------
  Two-photon absorbption ...  CPU 118.34 s  wall 24.53 s
  Transition density matrix of state singlet_A_1 printed to ASCII file 'State_singlet_A_1_Transition.txt'
  Transition density matrix of state singlet_A_2 printed to ASCII file 'State_singlet_A_2_Transition.txt'
  Transition density matrix of state singlet_A_3 printed to ASCII file 'State_singlet_A_3_Transition.txt'
  Transition density matrix of state singlet_A_4 printed to ASCII file 'State_singlet_A_4_Transition.txt'
  Transition density matrix of state singlet_A_5 printed to ASCII file 'State_singlet_A_5_Transition.txt'
  Transition density matrix of state singlet_A_6 printed to ASCII file 'State_singlet_A_6_Transition.txt'
  Transition density matrix of state singlet_A_7 printed to ASCII file 'State_singlet_A_7_Transition.txt'
  Transition density matrix of state singlet_A_8 printed to ASCII file 'State_singlet_A_8_Transition.txt'
  Transition density matrix of state singlet_A_9 printed to ASCII file 'State_singlet_A_9_Transition.txt'
  Transition density matrix of state singlet_A_10 printed to ASCII file 'State_singlet_A_10_Transition.txt'
  Transition properties ...  CPU 0.18 s  wall 0.87 s
  Difference density matrix of state singlet_A_1 printed to ASCII file 'State_singlet_A_1_Difference.txt'
  Total density matrix of state singlet_A_1 printed to ASCII file 'State_singlet_A_1_Total.txt'
  Difference density matrix of state singlet_A_2 printed to ASCII file 'State_singlet_A_2_Difference.txt'
  Total density matrix of state singlet_A_2 printed to ASCII file 'State_singlet_A_2_Total.txt'
  Difference density matrix of state singlet_A_3 printed to ASCII file 'State_singlet_A_3_Difference.txt'
  Total density matrix of state singlet_A_3 printed to ASCII file 'State_singlet_A_3_Total.txt'
  Difference density matrix of state singlet_A_4 printed to ASCII file 'State_singlet_A_4_Difference.txt'
  Total density matrix of state singlet_A_4 printed to ASCII file 'State_singlet_A_4_Total.txt'
  Difference density matrix of state singlet_A_5 printed to ASCII file 'State_singlet_A_5_Difference.txt'
  Total density matrix of state singlet_A_5 printed to ASCII file 'State_singlet_A_5_Total.txt'
  Difference density matrix of state singlet_A_6 printed to ASCII file 'State_singlet_A_6_Difference.txt'
  Total density matrix of state singlet_A_6 printed to ASCII file 'State_singlet_A_6_Total.txt'
  Difference density matrix of state singlet_A_7 printed to ASCII file 'State_singlet_A_7_Difference.txt'
  Total density matrix of state singlet_A_7 printed to ASCII file 'State_singlet_A_7_Total.txt'
  Difference density matrix of state singlet_A_8 printed to ASCII file 'State_singlet_A_8_Difference.txt'
  Total density matrix of state singlet_A_8 printed to ASCII file 'State_singlet_A_8_Total.txt'
  Difference density matrix of state singlet_A_9 printed to ASCII file 'State_singlet_A_9_Difference.txt'
  Total density matrix of state singlet_A_9 printed to ASCII file 'State_singlet_A_9_Total.txt'
  Difference density matrix of state singlet_A_10 printed to ASCII file 'State_singlet_A_10_Difference.txt'
  Total density matrix of state singlet_A_10 printed to ASCII file 'State_singlet_A_10_Total.txt'
  Properties ...  CPU 0.35 s  wall 1.74 s
  ISR TDMS ...  CPU 15.86 s  wall 4.26 s
  ISR transition properties ...  CPU 0.23 s  wall 0.10 s
  Sum-over-states TPA ...  CPU 0.00 s  wall 0.00 s

--------------------------------------------------------------------------------
                   State-averaged natural transition orbitals
--------------------------------------------------------------------------------
--------------------------------------------------------------------------------
  SA-NTO decomposition ...  CPU 0.01 s  wall 0.05 s

--------------------------------------------------------------------------------
                             Excited State Summary
--------------------------------------------------------------------------------
--------------------------------------------------------------------------------

  Excited state 1 (singlet, A)                                     [converged]
  ----------------------------------------------------------------------------
  Term symbol:  2 (1) A                                     R^2 =  4.57516e-13

  Total energy:                                            -77.9989042223 a.u.
  Excitation energy:                                               8.726900 eV

  Osc. strength:                                                      0.433715
  Trans. dip. moment [a.u.]:           [   1.032015,   -0.981511,   -0.011482]
  <i|r^2|0> [a.u.]:                    [   6.099482,   -0.231352,   -0.024475]
  Two-photon absorption cross-section (SoS) [a.u.]:                   0.001293
  Two-photon absorption matrix (SoS) [a.u.]:
                                       |   -0.000051    0.002249    0.007713 |
                                       |    0.002249    0.009100   -0.003442 |
                                       |    0.007713   -0.003442    0.003327 |
  Two-photon absorption cross-section [a.u.]:                         0.102679
  Two-photon absorption matrix [a.u.]:
                                       |   -0.016764   -0.009332    0.091727 |
                                       |   -0.009332   -0.001542    0.063260 |
                                       |    0.091727    0.063260    0.019497 |

  Dip. moment [a.u.]:                  [   0.001861,    0.001199,   -0.012759]
  Total dipole [Debye]:                                               0.032914
  <r^2> [a.u.]:                        [ 176.093272,   35.610503,   11.921482]
  Total <r^2> [a.u.]:                                               223.625257

  V1^2 = 0.9711, V2^2 = 0.0289

  Important amplitudes:
      occ i     occ j     vir a      vir b          v   
    -----------------------------------------------------
     8 (A) A              9 (A) A                -0.6750
     7 (A) A              9 (A) A                 0.0912
     6 (A) A             14 (A) A                -0.0615
     4 (A) A             10 (A) A                 0.0600
     7 (A) A             16 (A) A                 0.0562
     5 (A) A             13 (A) A                 0.0507
     6 (A) A             23 (A) A                -0.0481
     8 (A) A             20 (A) A                -0.0347
     6 (A) A             19 (A) A                 0.0304
     3 (A) A             12 (A) A                 0.0278
     5 (A) A             22 (A) A                 0.0212
     7 (A) A             11 (A) A                 0.0212
     4 (A) A             24 (A) A                 0.0185
     3 (A) A             26 (A) A                -0.0183
     8 (A) A   8 (A) B   17 (A) A   20 (A) B      0.0182
     6 (A) A             26 (A) A                -0.0161
     8 (A) A   8 (A) B    9 (A) A   28 (A) B      0.0152
     7 (A) A             21 (A) A                 0.0148
     3 (A) A             14 (A) A                -0.0138
     6 (A) A             12 (A) A                -0.0131
     3 (A) A   4 (A) B    9 (A) A    9 (A) B     -0.0127
     3 (A) A             19 (A) A                 0.0118
     8 (A) A   8 (A) B   18 (A) A   19 (A) B     -0.0111
     7 (A) A             20 (A) A                 0.0105
     7 (A) A             32 (A) A                 0.0095
     7 (A) A             36 (A) A                 0.0084
     3 (A) A             23 (A) A                -0.0080
     8 (A) A   8 (A) B   25 (A) A   29 (A) B     -0.0073
     6 (A) A             35 (A) A                -0.0071
     8 (A) A   8 (A) B    9 (A) A   27 (A) B     -0.0067
     6 (A) A             40 (A) A                -0.0067
     3 (A) A   6 (A) B    9 (A) A   28 (A) B      0.0060
     5 (A) A   8 (A) B   11 (A) A   20 (A) B      0.0059
     7 (A) A   8 (A) B   13 (A) A   20 (A) B      0.0059
     5 (A) A   8 (A) B   16 (A) A    9 (A) B      0.0058
     5 (A) A   7 (A) B    9 (A) A    9 (A) B     -0.0058
     5 (A) A             27 (A) A                -0.0058
     5 (A) A   8 (A) B   11 (A) A    9 (A) B     -0.0058
     3 (A) A   5 (A) B    9 (A) A   25 (A) B      0.0057
     7 (A) A   8 (A) B   22 (A) A   20 (A) B      0.0056
    -----------------------------------------------------

  Density matrix analysis:
  ------------------------
  NOs
    Occupation of frontier NOs:
       0.9508   1.0210
    Number of electrons: 16.000000
    Number of unpaired electrons: n_u =  2.31443, n_u,nl =  2.03276
    NO participation ratio (PR_NO):  2.860973
  
  
  Mulliken Population Analysis
  Atom      Charge (e)              h+              e-           Del q
  --------------------------------------------------------------------
   1 H        0.061400        0.022876       -0.012444        0.010433
   2 C       -0.120277        0.485121       -0.505005       -0.019884
   3 H        0.060202        0.022124       -0.012500        0.009624
   4 C       -0.122948        0.485067       -0.505152       -0.020084
   5 H        0.060277        0.022669       -0.012690        0.009979
   6 H        0.061347        0.022472       -0.012540        0.009932
  --------------------------------------------------------------------
  Sum:        0.000000        1.060330       -1.060330        0.000000
  
  Multipole moment analysis of the density matrix
    Molecular charge:                      0.000000
    Number of electrons:                   16.000000
      Center of electronic charge [Ang]: [ -1.560638,  -0.065642,  -0.000100]
    Total nuclear charge:                  16.000000
      Center of nuclear charge [Ang]:    [ -1.560576,  -0.065602,  -0.000522]
    Dipole moment [D]:                     0.032914
      Cartesian components [D]:          [  0.004731,   0.003047,  -0.032429]
    RMS size of the density [Ang]:         1.214060
      Cartesian components [Ang]:        [  0.803963,   0.786726,   0.456779]
  
  Exciton analysis of the difference density matrix
    <r_h> [Ang]:                  [ -1.560278,  -0.065488,   0.004985]
    <r_e> [Ang]:                  [ -1.560825,  -0.065597,   0.006213]
    |<r_e - r_h>| [Ang]:            0.001349
    Hole size [Ang]:                1.290595
      Cartesian components [Ang]: [  0.737466,   0.719499,   0.777240]
    Electron size [Ang]:            1.463012
      Cartesian components [Ang]: [  0.854251,   0.830434,   0.849140]

  Transition density matrix analysis:
  -----------------------------------
  
  CT numbers (Mulliken)
    omega =     0.9528
    <Phe> =    -0.1578
  
  Exciton analysis of the transition density matrix
    Trans. dipole moment [D]:             1.810069
      Cartesian components [D]:         [  1.311560,  -1.247376,  -0.014592]
    <r_h> [Ang]:                        [ -1.560151,  -0.065664,   0.004081]
    <r_e> [Ang]:                        [ -1.561061,  -0.065784,   0.007035]
    |<r_e - r_h>| [Ang]:                  0.003093
    Hole size [Ang]:                      1.222066
      Cartesian components [Ang]:       [  0.662946,   0.646808,   0.797237]
    Electron size [Ang]:                  1.484904
      Cartesian components [Ang]:       [  0.864358,   0.838755,   0.868513]
    RMS electron-hole separation [Ang]:   1.940099
      Cartesian components [Ang]:       [  1.113853,   1.079867,   1.164991]
    Covariance(r_h, r_e) [Ang^2]:        -0.032795
    Correlation coefficient:             -0.018072
    Center-of-mass size [Ang]:            0.952995
      Cartesian components [Ang]:       [  0.532108,   0.519044,   0.596366]

  Decomposition into state-averaged NTOs
    H- 0 -> L+ 0:  0.6643 ( 88.3%)
    H- 1 -> L+ 0: -0.0875 (  1.5%)
    H- 2 -> L+ 5: -0.0826 (  1.4%)
                   omega =  95.3%
  ----------------------------------------------------------------------------


  Excited state 2 (singlet, A)                                     [converged]
  ----------------------------------------------------------------------------
  Term symbol:  3 (1) A                                     R^2 =  4.29347e-13

  Total energy:                                            -77.9867918889 a.u.
  Excitation energy:                                               9.056493 eV

  Osc. strength:                                                      0.010317
  Trans. dip. moment [a.u.]:           [  -0.160483,    0.143751,   -0.009017]
  <i|r^2|0> [a.u.]:                    [  -0.887121,    0.146048,   -0.169995]
  Two-photon absorption cross-section (SoS) [a.u.]:                   5.113729
  Two-photon absorption matrix (SoS) [a.u.]:
                                       |    0.040558    0.067804   -0.558697 |
                                       |    0.067804    0.088101   -0.554862 |
                                       |   -0.558697   -0.554862   -0.140470 |
  Two-photon absorption cross-section [a.u.]:                         0.110327
  Two-photon absorption matrix [a.u.]:
                                       |   -0.094518   -0.009702    0.040336 |
                                       |   -0.009702    0.076617    0.067730 |
                                       |    0.040336    0.067730    0.011972 |

  Dip. moment [a.u.]:                  [   0.007713,    0.023178,   -0.021449]
  Total dipole [Debye]:                                               0.082627
  <r^2> [a.u.]:                        [ 174.663325,   34.040325,   13.148470]
  Total <r^2> [a.u.]:                                               221.852121

  V1^2 = 0.9546, V2^2 = 0.0454

  Important amplitudes:
      occ i     occ j     vir a      vir b          v   
    -----------------------------------------------------
     7 (A) A              9 (A) A                 0.6623
     8 (A) A             11 (A) A                -0.1507
     8 (A) A              9 (A) A                 0.0889
     7 (A) A             20 (A) A                 0.0750
     5 (A) A   8 (A) B    9 (A) A    9 (A) B      0.0312
     8 (A) A             16 (A) A                 0.0279
     8 (A) A             10 (A) A                 0.0202
     8 (A) A             21 (A) A                -0.0179
     5 (A) A             28 (A) A                 0.0139
     4 (A) A   7 (A) B    9 (A) A   19 (A) B     -0.0134
     5 (A) A   7 (A) B    9 (A) A   16 (A) B      0.0132
     7 (A) A   8 (A) B   20 (A) A   17 (A) B     -0.0104
     5 (A) A   8 (A) B    9 (A) A   20 (A) B      0.0094
     6 (A) A             14 (A) A                 0.0094
     4 (A) A   6 (A) B    9 (A) A   16 (A) B     -0.0090
     4 (A) A             10 (A) A                -0.0090
     5 (A) A   6 (A) A    9 (A) A   23 (A) A     -0.0090
     5 (A) A   6 (A) A    9 (A) A   14 (A) A     -0.0088
     7 (A) A   8 (A) A    9 (A) A   28 (A) A      0.0087
     5 (A) A   6 (A) B    9 (A) A   19 (A) B      0.0085
     4 (A) A   5 (A) A    9 (A) A   10 (A) A     -0.0084
     6 (A) A   7 (A) B    9 (A) A   18 (A) B     -0.0082
     7 (A) A             16 (A) A                -0.0082
     5 (A) A   6 (A) B    9 (A) A   23 (A) B     -0.0079
     3 (A) A   7 (A) B    9 (A) A   18 (A) B      0.0078
     5 (A) A             13 (A) A                -0.0078
     5 (A) A   7 (A) A    9 (A) A   16 (A) A      0.0078
     8 (A) A   7 (A) B    9 (A) A   28 (A) B     -0.0076
     4 (A) A   8 (A) B    9 (A) A   25 (A) B     -0.0075
     7 (A) A   8 (A) B   17 (A) A   20 (A) B     -0.0073
     4 (A) A   7 (A) B   19 (A) A    9 (A) B     -0.0073
     7 (A) A   8 (A) B   19 (A) A   18 (A) B      0.0071
     5 (A) A   5 (A) B    9 (A) A   13 (A) B      0.0071
     6 (A) A             23 (A) A                 0.0070
     5 (A) A   8 (A) A    9 (A) A   20 (A) A      0.0068
     4 (A) A   5 (A) B    9 (A) A   18 (A) B      0.0067
     7 (A) A   7 (A) B   20 (A) A   22 (A) B     -0.0065
     7 (A) A   8 (A) B   17 (A) A    9 (A) B     -0.0064
     5 (A) A   6 (A) B    9 (A) A   14 (A) B     -0.0062
     4 (A) A   7 (A) A    9 (A) A   19 (A) A     -0.0061
    -----------------------------------------------------

  Density matrix analysis:
  ------------------------
  NOs
    Occupation of frontier NOs:
       0.9549   1.0554
    Number of electrons: 16.000000
    Number of unpaired electrons: n_u =  2.35456, n_u,nl =  2.06359
    NO participation ratio (PR_NO):  3.039511
  
  
  Mulliken Population Analysis
  Atom      Charge (e)              h+              e-           Del q
  --------------------------------------------------------------------
   1 H        0.147842        0.118321       -0.021447        0.096874
   2 C       -0.295334        0.273953       -0.468894       -0.194941
   3 H        0.146536        0.124413       -0.028455        0.095958
   4 C       -0.297210        0.276841       -0.471188       -0.194347
   5 H        0.153331        0.123940       -0.020907        0.103033
   6 H        0.144837        0.122437       -0.029014        0.093423
  --------------------------------------------------------------------
  Sum:        0.000000        1.039905       -1.039905       -0.000000
  
  Multipole moment analysis of the density matrix
    Molecular charge:                      0.000000
    Number of electrons:                   16.000000
      Center of electronic charge [Ang]: [ -1.560831,  -0.066369,   0.000188]
    Total nuclear charge:                  16.000000
      Center of nuclear charge [Ang]:    [ -1.560576,  -0.065602,  -0.000522]
    Dipole moment [D]:                     0.082627
      Cartesian components [D]:          [  0.019604,   0.058912,  -0.054519]
    RMS size of the density [Ang]:         1.200920
      Cartesian components [Ang]:        [  0.787861,   0.769000,   0.479710]
  
  Exciton analysis of the difference density matrix
    <r_h> [Ang]:                  [ -1.568318,  -0.064328,  -0.001897]
    <r_e> [Ang]:                  [ -1.571853,  -0.075623,   0.003777]
    |<r_e - r_h>| [Ang]:            0.013126
    Hole size [Ang]:                1.482615
      Cartesian components [Ang]: [  0.994879,   0.994744,   0.467810]
    Electron size [Ang]:            1.481162
      Cartesian components [Ang]: [  0.885948,   0.860492,   0.817613]

  Transition density matrix analysis:
  -----------------------------------
  
  CT numbers (Mulliken)
    omega =     0.9224
    <Phe> =    -0.0149
  
  Exciton analysis of the transition density matrix
    Trans. dipole moment [D]:             0.274050
      Cartesian components [D]:         [ -0.203953,   0.182689,  -0.011459]
    <r_h> [Ang]:                        [ -1.568724,  -0.063280,  -0.003458]
    <r_e> [Ang]:                        [ -1.571911,  -0.076888,   0.005213]
    |<r_e - r_h>| [Ang]:                  0.016448
    Hole size [Ang]:                      1.508204
      Cartesian components [Ang]:       [  1.015111,   1.016686,   0.458888]
    Electron size [Ang]:                  1.478778
      Cartesian components [Ang]:       [  0.877724,   0.850732,   0.832251]
    RMS electron-hole separation [Ang]:   2.093192
      Cartesian components [Ang]:       [  1.326796,   1.311491,   0.949240]
    Covariance(r_h, r_e) [Ang^2]:         0.040141
    Correlation coefficient:              0.017998
    Center-of-mass size [Ang]:            1.065569
      Cartesian components [Ang]:       [  0.678477,   0.669882,   0.475778]

  Decomposition into state-averaged NTOs
    H- 1 -> L+ 0: -0.6551 ( 85.8%)
    H- 0 -> L+ 2: -0.1512 (  4.6%)
    H- 0 -> L+ 0: -0.0836 (  1.4%)
                   omega =  92.2%
  ----------------------------------------------------------------------------


  Excited state 3 (singlet, A)                                     [converged]
  ----------------------------------------------------------------------------
  Term symbol:  4 (1) A                                     R^2 =  4.66534e-13

  Total energy:                                            -77.9827756422 a.u.
  Excitation energy:                                               9.165781 eV

  Osc. strength:                                                      0.025199
  Trans. dip. moment [a.u.]:           [   0.040569,    0.001559,   -0.332520]
  <i|r^2|0> [a.u.]:                    [   0.329889,   -0.079121,   -0.000100]
  Two-photon absorption cross-section (SoS) [a.u.]:                   2.592050
  Two-photon absorption matrix (SoS) [a.u.]:
                                       |    0.547820    0.027850    0.027863 |
                                       |    0.027850   -0.570819   -0.033424 |
                                       |    0.027863   -0.033424   -0.097394 |
  Two-photon absorption cross-section [a.u.]:                         1.415077
  Two-photon absorption matrix [a.u.]:
                                       |    0.361599    0.035722    0.005751 |
                                       |    0.035722   -0.449945   -0.035082 |
                                       |    0.005751   -0.035082   -0.063227 |

  Dip. moment [a.u.]:                  [   0.014914,    0.008376,    0.015389]
  Total dipole [Debye]:                                               0.058483
  <r^2> [a.u.]:                        [ 180.942172,   40.585490,   11.064624]
  Total <r^2> [a.u.]:                                               232.592285

  V1^2 = 0.9587, V2^2 = 0.0413

  Important amplitudes:
      occ i     occ j     vir a      vir b          v   
    -----------------------------------------------------
     8 (A) A             10 (A) A                 0.6887
     8 (A) A             24 (A) A                 0.0507
     8 (A) A             18 (A) A                -0.0313
     4 (A) A              9 (A) A                -0.0238
     8 (A) A   8 (A) B    9 (A) A   12 (A) B     -0.0219
     7 (A) A              9 (A) A                -0.0197
     8 (A) A   8 (A) B   10 (A) A   17 (A) B      0.0173
     8 (A) A             15 (A) A                 0.0169
     5 (A) A   8 (A) B   11 (A) A   10 (A) B      0.0165
     7 (A) A   8 (A) B   13 (A) A   10 (A) B      0.0141
     4 (A) A   8 (A) B   12 (A) A   10 (A) B      0.0111
     6 (A) A   8 (A) A   10 (A) A   15 (A) A     -0.0110
     7 (A) A   8 (A) B   22 (A) A   10 (A) B      0.0108
     6 (A) A   8 (A) B   15 (A) A   10 (A) B      0.0107
     4 (A) A   8 (A) A   10 (A) A   12 (A) A     -0.0106
     7 (A) A   8 (A) A   10 (A) A   22 (A) A     -0.0099
     7 (A) A   8 (A) A   10 (A) A   13 (A) A     -0.0097
     5 (A) A   8 (A) B   21 (A) A   10 (A) B      0.0094
     5 (A) A   8 (A) A   10 (A) A   11 (A) A     -0.0094
     6 (A) A   8 (A) A   10 (A) A   18 (A) A     -0.0088
     6 (A) A   8 (A) B   10 (A) A   10 (A) B     -0.0087
     7 (A) A   8 (A) A   12 (A) A   16 (A) A      0.0082
     5 (A) A   8 (A) A   10 (A) A   21 (A) A     -0.0079
     3 (A) A   4 (A) B   10 (A) A    9 (A) B      0.0079
     4 (A) A   8 (A) B   19 (A) A   10 (A) B      0.0075
     8 (A) A   8 (A) B    9 (A) A   23 (A) B     -0.0075
     3 (A) A   8 (A) B   10 (A) A   10 (A) B      0.0072
     5 (A) A   8 (A) B   10 (A) A   11 (A) B      0.0071
     3 (A) A   8 (A) A   10 (A) A   24 (A) A     -0.0071
     7 (A) A   8 (A) B   16 (A) A   12 (A) B     -0.0070
     8 (A) A              9 (A) A                -0.0070
     3 (A) A   8 (A) B   10 (A) A   18 (A) B     -0.0069
     8 (A) A   8 (A) B    9 (A) A   19 (A) B     -0.0068
     8 (A) A   8 (A) B   10 (A) A   28 (A) B     -0.0067
     6 (A) A   8 (A) B   18 (A) A   10 (A) B      0.0067
     7 (A) A   8 (A) B   12 (A) A   11 (A) B      0.0057
     3 (A) A   6 (A) B   10 (A) A   28 (A) B     -0.0057
     5 (A) A   8 (A) A   10 (A) A   16 (A) A      0.0056
     3 (A) A   5 (A) B   10 (A) A   25 (A) B     -0.0056
     3 (A) A   8 (A) A   10 (A) A   18 (A) A     -0.0055
    -----------------------------------------------------

  Density matrix analysis:
  ------------------------
  NOs
    Occupation of frontier NOs:
       0.9822   0.9842
    Number of electrons: 16.000000
    Number of unpaired electrons: n_u =  2.28713, n_u,nl =  2.02481
    NO participation ratio (PR_NO):  2.696265
  
  
  Mulliken Population Analysis
  Atom      Charge (e)              h+              e-           Del q
  --------------------------------------------------------------------
   1 H       -0.160005        0.054228       -0.265201       -0.210972
   2 C        0.325942        0.537076       -0.110740        0.426336
   3 H       -0.164507        0.053626       -0.268711       -0.215085
   4 C        0.324254        0.537349       -0.110231        0.427118
   5 H       -0.162067        0.054217       -0.266581       -0.212364
   6 H       -0.163618        0.053816       -0.268848       -0.215032
  --------------------------------------------------------------------
  Sum:        0.000000        1.290312       -1.290312        0.000000
  
  Multipole moment analysis of the density matrix
    Molecular charge:                      -0.000000
    Number of electrons:                   16.000000
      Center of electronic charge [Ang]: [ -1.561069,  -0.065879,  -0.001031]
    Total nuclear charge:                  16.000000
      Center of nuclear charge [Ang]:    [ -1.560576,  -0.065602,  -0.000522]
    Dipole moment [D]:                     0.058483
      Cartesian components [D]:          [  0.037907,   0.021290,   0.039116]
    RMS size of the density [Ang]:         1.276519
      Cartesian components [Ang]:        [  0.854326,   0.840225,   0.440056]
  
  Exciton analysis of the difference density matrix
    <r_h> [Ang]:                  [ -1.560706,  -0.065419,   0.002709]
    <r_e> [Ang]:                  [ -1.566508,  -0.068452,  -0.007826]
    |<r_e - r_h>| [Ang]:            0.012404
    Hole size [Ang]:                1.410554
      Cartesian components [Ang]: [  0.834784,   0.819949,   0.787707]
    Electron size [Ang]:            2.075738
      Cartesian components [Ang]: [  1.373028,   1.375830,   0.728406]

  Transition density matrix analysis:
  -----------------------------------
  
  CT numbers (Mulliken)
    omega =     0.9259
    <Phe> =    -0.0109
  
  Exciton analysis of the transition density matrix
    Trans. dipole moment [D]:             0.425729
      Cartesian components [D]:         [  0.051557,   0.001982,  -0.422590]
    <r_h> [Ang]:                        [ -1.559576,  -0.065118,   0.005644]
    <r_e> [Ang]:                        [ -1.568176,  -0.069230,  -0.010607]
    |<r_e - r_h>| [Ang]:                  0.018841
    Hole size [Ang]:                      1.213452
      Cartesian components [Ang]:       [  0.638111,   0.624080,   0.822073]
    Electron size [Ang]:                  2.295090
      Cartesian components [Ang]:       [  1.516991,   1.522431,   0.805222]
    RMS electron-hole separation [Ang]:   2.586234
      Cartesian components [Ang]:       [  1.638192,   1.638372,   1.149204]
    Covariance(r_h, r_e) [Ang^2]:         0.025828
    Correlation coefficient:              0.009274
    Center-of-mass size [Ang]:            1.303031
      Cartesian components [Ang]:       [  0.826634,   0.826181,   0.576187]

  Decomposition into state-averaged NTOs
    H- 0 -> L+ 1:  0.6794 ( 92.3%)
                   omega =  92.6%
  ----------------------------------------------------------------------------


  Excited state 4 (singlet, A)                                     [converged]
  ----------------------------------------------------------------------------
  Term symbol:  5 (1) A                                     R^2 =  6.35908e-13

  Total energy:                                            -77.9584103883 a.u.
  Excitation energy:                                               9.828793 eV

  Osc. strength:                                                      0.001812
  Trans. dip. moment [a.u.]:           [   0.063530,   -0.058927,    0.004161]
  <i|r^2|0> [a.u.]:                    [   0.392393,    0.008644,   -0.040986]
  Two-photon absorption cross-section (SoS) [a.u.]:                 148.311489
  Two-photon absorption matrix (SoS) [a.u.]:
                                       |    0.222763    0.366867   -3.010355 |
                                       |    0.366867    0.510650   -2.985840 |
                                       |   -3.010355   -2.985840   -0.737118 |
  Two-photon absorption cross-section [a.u.]:                        91.289076
  Two-photon absorption matrix [a.u.]:
                                       |    0.103069    0.282438   -2.363570 |
                                       |    0.282438    0.469243   -2.337203 |
                                       |   -2.363570   -2.337203   -0.577870 |

  Dip. moment [a.u.]:                  [  -0.030850,   -0.033273,    0.011881]
  Total dipole [Debye]:                                               0.119218
  <r^2> [a.u.]:                        [ 181.195730,   40.408787,   10.803598]
  Total <r^2> [a.u.]:                                               232.408116

  V1^2 = 0.9635, V2^2 = 0.0365

  Important amplitudes:
      occ i     occ j     vir a      vir b          v   
    -----------------------------------------------------
     8 (A) A             11 (A) A                -0.6690
     7 (A) A              9 (A) A                -0.1520
     8 (A) A             21 (A) A                -0.0780
     8 (A) A             16 (A) A                 0.0644
     8 (A) A   8 (A) B    9 (A) A   13 (A) B      0.0166
     5 (A) A   8 (A) B   11 (A) A   11 (A) B     -0.0155
     8 (A) A              9 (A) A                -0.0151
     8 (A) A             12 (A) A                -0.0146
     8 (A) A   8 (A) B   11 (A) A   17 (A) B     -0.0140
     7 (A) A             20 (A) A                -0.0139
     7 (A) A   8 (A) B   13 (A) A   11 (A) B     -0.0127
     5 (A) A   8 (A) A   11 (A) A   21 (A) A      0.0110
     4 (A) A   8 (A) B   12 (A) A   11 (A) B     -0.0110
     8 (A) A   8 (A) B    9 (A) A   22 (A) B      0.0107
     7 (A) A   8 (A) A   11 (A) A   22 (A) A      0.0096
     6 (A) A              9 (A) A                 0.0092
     6 (A) A   8 (A) B   15 (A) A   11 (A) B     -0.0090
     6 (A) A   8 (A) B   10 (A) A   11 (A) B      0.0090
     7 (A) A   8 (A) B   22 (A) A   11 (A) B     -0.0089
     3 (A) A   4 (A) B   11 (A) A    9 (A) B     -0.0083
     3 (A) A   8 (A) B   11 (A) A   18 (A) B      0.0081
     6 (A) A   8 (A) A   11 (A) A   15 (A) A      0.0080
     7 (A) A   8 (A) A   13 (A) A   16 (A) A     -0.0078
     7 (A) A   8 (A) A   11 (A) A   13 (A) A      0.0077
     5 (A) A   8 (A) B   21 (A) A   11 (A) B     -0.0071
     4 (A) A   8 (A) B   19 (A) A   11 (A) B     -0.0070
     5 (A) A   8 (A) B    9 (A) A    9 (A) B     -0.0068
     4 (A) A   8 (A) A   11 (A) A   12 (A) A      0.0062
     6 (A) A   8 (A) A   11 (A) A   18 (A) A      0.0062
     6 (A) A   8 (A) B   18 (A) A   11 (A) B     -0.0060
     7 (A) A   8 (A) B   16 (A) A   13 (A) B      0.0057
     3 (A) A   8 (A) A   11 (A) A   18 (A) A      0.0056
     5 (A) A   8 (A) B   10 (A) A   10 (A) B     -0.0056
     3 (A) A   6 (A) B   11 (A) A   28 (A) B      0.0055
     3 (A) A   8 (A) B   11 (A) A   30 (A) B      0.0055
     3 (A) A   5 (A) B   11 (A) A   25 (A) B      0.0054
     6 (A) A   8 (A) B   11 (A) A   10 (A) B      0.0054
     7 (A) A   8 (A) B   12 (A) A   10 (A) B     -0.0054
     8 (A) A   8 (A) B   20 (A) A   22 (A) B      0.0053
     3 (A) A   8 (A) A   11 (A) A   24 (A) A      0.0053
    -----------------------------------------------------

  Density matrix analysis:
  ------------------------
  NOs
    Occupation of frontier NOs:
       0.9395   1.0290
    Number of electrons: 16.000000
    Number of unpaired electrons: n_u =  2.31944, n_u,nl =  2.04995
    NO participation ratio (PR_NO):  2.922012
  
  
  Mulliken Population Analysis
  Atom      Charge (e)              h+              e-           Del q
  --------------------------------------------------------------------
   1 H       -0.153057        0.045851       -0.249875       -0.204024
   2 C        0.273714        0.496169       -0.122062        0.374107
   3 H       -0.119684        0.047107       -0.217368       -0.170262
   4 C        0.270197        0.496368       -0.123307        0.373061
   5 H       -0.130920        0.047283       -0.228500       -0.181218
   6 H       -0.140250        0.045855       -0.237520       -0.191664
  --------------------------------------------------------------------
  Sum:        0.000000        1.178633       -1.178633       -0.000000
  
  Multipole moment analysis of the density matrix
    Molecular charge:                      -0.000000
    Number of electrons:                   16.000000
      Center of electronic charge [Ang]: [ -1.559556,  -0.064502,  -0.000915]
    Total nuclear charge:                  16.000000
      Center of nuclear charge [Ang]:    [ -1.560576,  -0.065602,  -0.000522]
    Dipole moment [D]:                     0.119218
      Cartesian components [D]:          [ -0.078412,  -0.084572,   0.030198]
    RMS size of the density [Ang]:         1.277177
      Cartesian components [Ang]:        [  0.859671,   0.838490,   0.434835]
  
  Exciton analysis of the difference density matrix
    <r_h> [Ang]:                  [ -1.559945,  -0.064783,   0.003284]
    <r_e> [Ang]:                  [ -1.545750,  -0.049404,  -0.006674]
    |<r_e - r_h>| [Ang]:            0.023176
    Hole size [Ang]:                1.395284
      Cartesian components [Ang]: [  0.819260,   0.807079,   0.790098]
    Electron size [Ang]:            2.123204
      Cartesian components [Ang]: [  1.447867,   1.395651,   0.681057]

  Transition density matrix analysis:
  -----------------------------------
  
  CT numbers (Mulliken)
    omega =     0.9298
    <Phe> =    -0.0138
  
  Exciton analysis of the transition density matrix
    Trans. dipole moment [D]:             0.110250
      Cartesian components [D]:         [  0.080739,  -0.074889,   0.005288]
    <r_h> [Ang]:                        [ -1.560858,  -0.065888,   0.005170]
    <r_e> [Ang]:                        [ -1.543169,  -0.046148,  -0.008023]
    |<r_e - r_h>| [Ang]:                  0.029607
    Hole size [Ang]:                      1.228490
      Cartesian components [Ang]:       [  0.659020,   0.651281,   0.806668]
    Electron size [Ang]:                  2.260320
      Cartesian components [Ang]:       [  1.542366,   1.485577,   0.723336]
    RMS electron-hole separation [Ang]:   2.561938
      Cartesian components [Ang]:       [  1.668597,   1.614386,   1.083083]
    Covariance(r_h, r_e) [Ang^2]:         0.027793
    Correlation coefficient:              0.010009
    Center-of-mass size [Ang]:            1.291687
      Cartesian components [Ang]:       [  0.842985,   0.814917,   0.541979]

  Decomposition into state-averaged NTOs
    H- 0 -> L+ 2: -0.6642 ( 88.2%)
    H- 1 -> L+ 0:  0.1500 (  4.5%)
                   omega =  93.0%
  ----------------------------------------------------------------------------


  Excited state 5 (singlet, A)                                     [converged]
  ----------------------------------------------------------------------------
  Term symbol:  6 (1) A                                     R^2 =  7.87881e-13

  Total energy:                                            -77.9445138290 a.u.
  Excitation energy:                                              10.206938 eV

  Osc. strength:                                                      0.000036
  Trans. dip. moment [a.u.]:           [   0.006109,    0.010076,    0.002071]
  <i|r^2|0> [a.u.]:                    [   0.141193,   -0.111685,    0.001888]
  Two-photon absorption cross-section (SoS) [a.u.]:                 176.088372
  Two-photon absorption matrix (SoS) [a.u.]:
                                       |    0.287978    0.068209   -3.292263 |
                                       |    0.068209   -0.521467    3.313558 |
                                       |   -3.292263    3.313558    0.037583 |
  Two-photon absorption cross-section [a.u.]:                        78.452056
  Two-photon absorption matrix [a.u.]:
                                       |    0.127972    0.005134   -2.187695 |
[...]
    16   -1.603366796473e-03
    17   -1.359632834619e-03
    18   -1.193649347069e-04
    19   -3.279390147987e-03
    20    1.107354266556e-02
    21    9.364298154464e-01
    22   -2.573489872347e-04
    23    1.400557493829e-02
    24    6.254023503152e-04
    25    7.047966948179e-02
    26   -5.253946423235e-02
    27   -1.399498987094e+00
    28    9.859601045487e-02
    29   -9.247742679921e-02
    30    5.403838277671e-03
    31    3.848803186664e-01
    32   -3.619918233694e-01
    33    2.134315693727e-02
    34    1.543065661215e-02
    35   -2.714165254764e-03
    36   -1.758297066603e-03
    37    1.374500355183e-04
    38   -3.097412710181e-03
    39    1.003722537569e-02
    40    9.302424589832e-01
    41    3.090528304305e-04
    42   -1.392507547545e-02
    43   -7.332291718320e-04
    44    1.059640639657e-02
    45    9.422306543533e-01
    46    1.406111538019e-02
    47    3.322856751499e-04
    48    1.327489239791e-03
Sym=X
Ene= 0.232825
Spin=Alpha
Occup=0
     1    2.655761917813e-02
     2    1.248843330053e+00
     3   -1.455952304530e-02
     4   -3.932612978848e-03
     5   -8.437846600111e-04
     6    4.379724178362e-03
     7   -4.609762506732e-03
     8   -7.400259836216e-02
     9   -1.558392236452e-01
    10   -1.574373897266e-01
    11   -1.350702287406e-02
    12   -5.601496723908e-01
    13   -5.538516026730e-01
    14   -4.473518130270e-02
    15    8.259656501118e-04
    16   -3.623597385305e-05
    17   -5.825023711079e-04
    18   -1.749732756368e-04
    19   -5.087541795183e-04
    20   -2.492008326001e-02
    21   -1.141072234918e+00
    22   -2.404497226629e-03
    23   -1.328401499247e-02
    24   -6.109356371929e-04
    25   -3.586910389889e-03
    26    4.034468029992e-03
    27    5.149204841976e-02
    28   -1.541313025184e-01
    29   -1.583029615103e-01
    30   -2.490786904623e-02
    31   -5.467018499354e-01
    32   -5.531623852708e-01
    33   -9.092980545512e-02
    34   -5.144703229791e-04
    35    8.582579696920e-04
    36    2.942811986301e-04
    37    3.222626529855e-04
    38    3.453616279907e-04
    39    2.466773233781e-02
    40    1.148541937512e+00
    41   -2.397632601199e-03
    42   -1.346383667420e-02
    43   -1.214104039466e-03
    44   -2.670526919533e-02
    45   -1.228447339571e+00
    46   -1.422911362156e-02
    47   -3.795747539459e-03
    48   -1.515423130735e-03
Sym=X
Ene= 0.239346
Spin=Alpha
Occup=0
     1   -1.587880058422e-02
     2   -1.037382483734e+00
     3    1.635963976699e-02
     4    9.058593678950e-03
     5    1.288261191142e-03
     6   -8.660846916762e-02
     7    7.980346716863e-02
     8    1.595582230633e+00
     9    5.145398610451e-02
    10   -6.272256568293e-02
    11   -3.371549354092e-03
    12    2.053558312506e-01
    13   -2.424527969206e-01
    14   -1.501903303819e-02
    15   -2.252217893251e-02
    16    2.489321307867e-03
    17    3.417402993060e-03
    18   -5.157859647098e-04
    19    1.288119912782e-02
    20   -1.716401804313e-02
    21   -1.141051747486e+00
    22   -8.554825320424e-03
    23   -1.794798325794e-02
    24   -1.675038291655e-03
    25    8.631617663366e-02
    26   -7.926933922147e-02
    27   -1.590123282473e+00
    28    5.122087925298e-02
    29   -6.324011545775e-02
    30    4.815402159879e-03
    31    2.009324223764e-01
    32   -2.484286687572e-01
    33    1.862680626252e-02
    34    2.233086691380e-02
    35   -3.659492075123e-03
    36   -3.085910583330e-03
    37    9.203610753999e-04
    38   -1.270588359250e-02
    39    1.736462574508e-02
    40    1.143965315099e+00
    41   -8.580031076522e-03
    42   -1.805818813774e-02
    43   -1.332640149508e-03
    44    1.561408758286e-02
    45    1.027605630124e+00
    46    1.601618813763e-02
    47    9.138487070312e-03
    48    2.033229674753e-03
Sym=X
Ene= 0.303230
Spin=Alpha
Occup=0
     1    2.091715888557e-02
     2   -1.692075149343e+00
     3    2.293031549929e-02
     4   -2.625170214578e-04
     5    8.511790674891e-04
     6    2.417757841794e-04
     7   -1.848653006646e-04
     8   -3.689182623476e-03
     9    1.340970447618e-01
    10    1.399179188016e-01
    11    1.366759828238e-02
    12    1.144199275512e+00
    13    1.193356625999e+00
    14    1.326076922561e-01
    15    7.042774753503e-05
    16    1.398086162268e-03
    17   -2.335579935751e-03
    18    3.266027129713e-02
    19    1.607205020241e-03
    20   -2.012074606973e-02
    21    1.691350034766e+00
    22   -1.434034007549e-03
    23    2.291224567521e-02
    24    1.401038587090e-03
    25   -8.170401116085e-05
    26   -2.756919312740e-04
    27    3.959176059262e-03
    28   -1.343501732858e-01
    29   -1.398565028767e-01
    30   -1.997575742903e-02
    31   -1.135419182772e+00
    32   -1.195720389221e+00
    33   -1.534100596816e-01
    34    2.991110283600e-04
    35    3.119202874821e-03
    36   -1.112538072358e-03
    37    3.236125414827e-02
    38    1.458100017967e-03
    39   -1.982848481425e-02
    40    1.690132864880e+00
    41    1.537221053213e-03
    42   -2.282050997025e-02
    43   -1.415038562203e-03
    44    1.969369636381e-02
    45   -1.690758092118e+00
    46   -2.297022445712e-02
    47    3.584431119056e-04
    48   -1.733597424980e-03
Sym=X
Ene= 0.461871
Spin=Alpha
Occup=0
     1   -1.154062896534e-01
     2   -7.143898228307e-01
     3   -1.568149208964e-02
     4   -1.028979560959e-02
     5   -1.270348266841e-03
     6    6.075728707700e-02
     7    1.740454289731e-02
     8   -3.589811136546e+00
     9    1.029845184801e-01
    10   -9.915780278083e-02
    11    3.985305571431e-04
    12    2.425277647667e+00
    13   -2.299999366849e+00
    14   -2.970018373189e-02
    15    5.369819423291e-02
    16   -3.738245915682e-03
    17   -3.526577392050e-03
    18   -7.077067650354e-04
    19    1.804405609242e-02
    20   -1.207103483874e-01
    21   -7.010266488082e-01
    22    8.721484069058e-03
    23    1.637811672508e-02
    24    1.166203683717e-03
    25   -6.095376105883e-02
    26   -1.652841231876e-02
    27    3.593162190433e+00
    28    1.046791744596e-01
    29   -1.007244530313e-01
    30    5.529553778054e-03
    31    2.417977384837e+00
    32   -2.299148022976e+00
    33   -6.838244780771e-03
    34   -5.256534795840e-02
    35    4.985244423691e-03
    36    5.813294191655e-03
    37    7.613879691169e-04
    38   -1.919955697434e-02
    39    1.153982853348e-01
    40    7.105997321457e-01
    41    8.622410209686e-03
    42    1.619771972920e-02
    43    2.039821667087e-03
    44    1.126240243106e-01
    45    7.094288913605e-01
    46   -1.543303506406e-02
    47   -9.892176022065e-03
    48   -1.724376591682e-03
Sym=X
Ene= 0.577427
Spin=Alpha
Occup=0
     1    2.476600721618e-01
     2    4.142374174559e-02
     3   -1.835776860060e-02
     4    2.574198197873e-02
     5    6.072105295881e-04
     6   -4.517470205264e-03
     7   -1.570651593942e-01
     8   -4.611535704588e-01
     9    2.985713263079e-01
    10   -2.876037635913e-01
    11   -2.079962894753e-03
    12   -7.225734711877e-01
    13    6.997106173654e-01
    14    7.910409455934e-04
    15   -5.886774744318e-03
    16    4.066681633540e-03
    17    4.476870900747e-03
    18   -4.073409001914e-03
    19    6.023854945450e-02
    20    2.552113118849e-01
    21    3.100860889688e-02
    22   -2.643357254487e-02
    23    1.646831061818e-02
    24   -3.451580553541e-04
    25   -5.559295582407e-03
    26   -1.577941754831e-01
    27   -4.115011419030e-01
    28   -2.975924438502e-01
    29    2.850570846414e-01
    30    2.900653847123e-03
    31    7.562040521172e-01
    32   -7.309988901360e-01
    33    4.183513510563e-03
    34   -5.937202223498e-03
    35    4.339309398158e-03
    36    4.533259254679e-03
    37   -3.599153736789e-03
    38    6.019674286389e-02
    39    2.511022093985e-01
    40    4.938237522089e-02
    41    2.711651767081e-02
    42   -1.696952372818e-02
    43    9.560110222677e-04
    44    2.495195465879e-01
    45    4.997150900199e-02
    46    1.854545069220e-02
    47   -2.608108345518e-02
    48   -2.342844137237e-04
Sym=X
Ene= 0.615267
Spin=Alpha
Occup=0
     1   -5.218355544690e-01
     2    2.005378779243e-01
     3   -6.130644062521e-02
     4    3.763349464388e-02
     5   -1.168497124685e-03
     6   -5.910714761304e-04
     7   -1.279513129937e-04
     8   -1.229474173516e-02
     9   -4.006388119129e-02
    10   -3.861816952374e-02
    11   -6.386682754244e-03
    12    3.033215312548e-01
    13    2.841309628380e-01
    14    2.229245978742e-02
    15    1.883816860095e-03
    16   -7.916685189228e-03
    17    9.721059509287e-03
    18   -1.479833686106e-01
    19   -6.504354239233e-03
    20    5.086909976361e-01
    21   -2.032788440028e-01
    22    4.177151849830e-02
    23   -5.848370052060e-02
    24   -2.053683043420e-03
    25    3.616456868505e-04
    26   -2.245699919888e-03
    27    2.590658436804e-02
    28   -3.906315734134e-02
    29   -3.974761863859e-02
    30   -3.131045505471e-03
    31    2.942812016110e-01
    32    2.890020365876e-01
    33    4.894107969798e-02
    34   -8.608646515435e-04
    35    1.240450533346e-02
    36   -6.315288495865e-03
    37    1.492668740199e-01
    38    6.261633782363e-03
    39   -5.144334049221e-01
    40    2.070731881897e-01
    41    4.092189995755e-02
    42   -5.873982775510e-02
    43   -4.916200929596e-05
    44    5.230197190460e-01
    45   -2.126157853287e-01
    46   -6.153209468489e-02
    47    3.781409400033e-02
    48   -1.754337627384e-03
Sym=X
Ene= 0.689143
Spin=Alpha
Occup=0
     1   -1.130675652456e-02
     2    2.947433556814e-03
     3   -9.250487683118e-04
     4   -7.518591926110e-04
     5   -2.120481569537e-02
     6   -6.651391093911e-04
     7   -6.092599478286e-03
     8   -2.319478637065e-03
     9    3.595192064139e-02
    10    3.471614220978e-02
    11   -6.703470811651e-01
    12   -1.638422836782e-02
    13   -4.274652573710e-02
    14    6.138658954674e-01
    15    1.595502159092e-03
    16    8.214031211972e-02
    17   -7.856198730014e-02
    18   -1.167632646214e-02
    19   -3.343394371808e-03
    20   -8.875098309564e-03
    21   -7.775424227610e-03
    22    1.364978121676e-03
    23    2.384271243614e-03
    24   -2.084140259777e-02
    25   -1.633689454579e-04
    26   -1.094114262994e-02
    27    1.253115944076e-02
    28    4.351347219801e-02
    29    4.950324335482e-02
    30   -6.687421111576e-01
    31   -2.784799410562e-02
    32   -6.133765659315e-02
    33    6.115323100952e-01
    34    3.973479125271e-03
    35   -8.303818770542e-02
    36    7.817192312044e-02
    37    7.835065597320e-03
    38    1.090873208764e-03
    39   -5.835906464808e-04
    40    6.982059645352e-03
    41    2.257574515673e-03
    42   -7.771281595969e-04
    43   -2.114835439362e-02
    44   -2.985536020275e-03
    45    1.789805287532e-02
    46    4.477194652351e-03
    47    2.276470634209e-03
    48   -2.013822695779e-02
Sym=X
Ene= 0.708570
Spin=Alpha
Occup=0
     1   -4.742056023558e-01
     2    1.553844358663e-01
     3   -8.041238855802e-02
     4   -4.400322173986e-02
     5   -5.714242535111e-03
     6   -4.741568373030e-02
     7   -3.201615510913e-01
     8    4.998785376909e-01
     9    2.033927462704e-01
    10   -1.935684494970e-01
    11    9.313136300581e-03
    12   -9.313397413006e-02
    13    7.760156528092e-02
    14   -1.720372000173e-03
    15    1.930823514235e-01
    16   -2.189756077474e-02
    17   -2.440726564778e-02
    18    3.173131525896e-03
    19   -7.697195176192e-02
    20   -4.751975039316e-01
    21    1.471550115312e-01
    22    4.088984429184e-02
    23    8.122500747107e-02
    24    7.735139919485e-03
    25   -4.699225235155e-02
    26   -3.186227479943e-01
    27    4.648863877876e-01
    28   -2.065121244810e-01
    29    1.900672945512e-01
    30    1.023225144254e-02
    31    7.747704789215e-02
    32   -5.287937658092e-02
    33   -2.113948231618e-02
    34    1.928727144937e-01
    35   -2.647241486772e-02
    36   -2.837999631974e-02
    37    2.436483038240e-03
    38   -7.529311867655e-02
    39   -4.740075067870e-01
    40    1.363581651884e-01
    41   -4.046639453631e-02
    42   -8.106756268261e-02
    43   -8.473740119161e-03
    44   -4.775252378743e-01
    45    1.574626511182e-01
    46    8.071469945031e-02
    47    4.400812714514e-02
    48    8.209613131545e-03
Sym=X
Ene= 0.784190
Spin=Alpha
Occup=0
     1   -5.276208581016e-01
     2    4.719924735631e-01
     3   -1.106447632853e-01
     4   -2.650956464379e-02
     5   -6.426786790508e-03
     6   -9.112220232290e-02
     7    2.132644077519e-01
     8    6.515573681680e-01
     9   -1.096393586423e-01
    10    1.044101517741e-01
    11    1.967776287980e-02
    12   -3.208296762100e-01
    13    2.975847520686e-01
    14   -3.194554406830e-02
    15    2.071162079214e-01
    16   -1.643273216683e-02
    17   -2.096964765494e-02
    18    6.426082993572e-04
    19   -1.008692122046e-02
    20   -5.386239102630e-01
    21    4.685760995250e-01
    22    2.030450784074e-02
    23    1.123170304379e-01
    24    7.652619835780e-03
    25    9.101736242966e-02
    26   -2.168731759181e-01
    27   -6.525142109127e-01
    28   -1.076401706000e-01
    29    1.090445329296e-01
    30   -1.348904096537e-02
    31   -3.242847613583e-01
    32    2.849167131399e-01
    33    3.304448727951e-02
    34   -2.048844254475e-01
    35    2.873649969227e-02
    36    2.411947166315e-02
    37   -1.658117148592e-03
    38    8.352842483737e-03
    39    5.388808809895e-01
    40   -4.632465028463e-01
    41    2.005189124354e-02
    42    1.117996417960e-01
    43    9.118588656553e-03
    44    5.311677482401e-01
    45   -4.769526426188e-01
    46   -1.098466319672e-01
    47   -2.685878825884e-02
    48   -9.740532419718e-03
Sym=X
Ene= 0.807932
Spin=Alpha
Occup=0
     1    1.019062661847e-02
     2    2.704059765110e-03
     3   -5.526575010828e-04
     4   -3.435408780522e-03
     5    3.377492466543e-02
     6    2.208381220315e-03
     7   -8.282139473566e-03
     8   -1.506037946333e-03
     9   -2.760491623348e-02
    10   -4.572144334714e-02
    11    7.631034387520e-01
    12    5.118208673463e-02
    13    5.444475842132e-02
    14   -1.127018464305e+00
    15   -6.788725026964e-03
    16    6.534706848678e-02
    17   -6.111922558136e-02
    18   -1.155237786641e-02
    19   -2.795411466349e-03
    20    1.116138436106e-02
    21   -2.638196776651e-02
    22   -2.607456590723e-03
    23   -6.470158821968e-03
    24    3.419400088119e-02
    25   -1.831454669213e-03
    26    9.497005240214e-05
    27    5.842379681217e-03
    28    6.007368400995e-02
    29    5.312854893306e-02
    30   -7.611187484728e-01
    31   -7.679488374812e-02
    32   -9.341608691505e-02
    33    1.123081517352e+00
    34    5.432296307567e-03
    35    6.468497897353e-02
    36   -6.272222675959e-02
    37   -3.876937009582e-03
    38    2.783008587495e-04
    39   -1.094869552569e-02
    40    2.878620084404e-02
    41    2.112994087653e-03
    42   -4.096437798449e-03
    43   -3.466352485940e-02
    44   -1.022702889123e-02
    45   -5.125916114499e-04
    46    5.329164225721e-03
    47    2.964573191617e-04
    48   -3.318699605870e-02
Sym=X
Ene= 0.862060
Spin=Alpha
Occup=0
     1    1.120679757876e-02
     2   -1.090791963719e+00
     3    1.473234582478e-01
     4    5.651933988637e-02
     5    1.137695281194e-02
     6   -7.959437732233e-05
     7    2.178357866267e-03
     8   -1.074666116159e-03
     9   -4.069019131419e-01
    10   -4.266502798068e-01
    11   -3.475616141511e-02
    12    9.463028388849e-01
    13    9.948157775910e-01
    14    8.247421282705e-02
    15    9.848119068924e-05
    16    1.498911905415e-02
    17   -1.356818535337e-02
    18    2.344905407320e-01
    19    9.866734690024e-03
    20   -1.325704527050e-02
    21    1.099628558318e+00
    22    5.040357760576e-02
    23    1.509933404158e-01
    24    1.103742705443e-02
    25    4.390517911264e-04
    26    3.945397268606e-03
    27   -3.163293776288e-03
    28   -4.088423999087e-01
    29   -4.290376884761e-01
    30   -6.757948678703e-02
    31    9.485106170335e-01
    32    1.001681627348e+00
    33    1.557804764048e-01
    34   -1.900724109197e-03
    35   -1.575971563530e-02
    36    1.317094506631e-02
    37   -2.356536370363e-01
    38   -1.053998507148e-02
    39    1.463468022572e-02
    40   -1.104464985215e+00
    41    4.895762908281e-02
    42    1.523257972034e-01
    43    1.199150484028e-02
    44   -1.066785582852e-02
    45    1.096050332118e+00
    46    1.483585372624e-01
    47    5.583572432989e-02
    48    1.525429842712e-02
Sym=X
Ene= 0.935486
Spin=Alpha
Occup=0
     1   -1.143160969752e-01
     2    1.278380022426e+00
     3   -1.817605672180e-01
     4    5.802476843281e-03
     5   -6.810902557401e-03
     6   -3.644565954006e-04
     7    7.992098405219e-04
     8   -1.408222540780e-02
     9    4.697033440659e-01
    10    5.048499014517e-01
    11    5.441464266180e-02
    12   -1.455331178482e+00
    13   -1.552940052086e+00
    14   -1.692863242541e-01
    15    3.114901310114e-04
    16   -1.810547524507e-03
    17    8.454776940593e-03
    18   -1.216305935155e-01
    19   -1.964409993859e-04
    20    1.179192241141e-01
    21   -1.294706464838e+00
    22    1.085131284292e-02
    23   -1.835222374786e-01
    24   -1.129262359263e-02
    25    6.831001856560e-04
    26    6.729369612151e-03
    27   -1.781840230871e-03
    28   -4.782919384668e-01
    29   -4.899534032383e-01
    30   -6.478986044063e-02
    31    1.476543956904e+00
    32    1.509906643384e+00
    33    1.982535236454e-01
    34   -2.926302025182e-03
    35   -1.131151704741e-02
    36    7.938399703799e-03
    37   -1.184558760677e-01
    38   -7.795855321306e-03
    39    1.174236910222e-01
    40   -1.264093331121e+00
    41   -1.462196812961e-02
    42    1.801343420196e-01
    43    1.178319855305e-02
    44   -1.152404401018e-01
    45    1.288485191157e+00
    46    1.818706832992e-01
    47   -4.345555058758e-03
    48    1.249404258854e-02
Sym=X
Ene= 0.972239
Spin=Alpha
Occup=0
     1   -6.388544944075e-02
     2    9.333177220203e-01
     3   -9.157450496642e-02
     4   -9.801521384346e-02
     5   -1.112145802736e-02
     6    2.539588780511e-02
     7    2.463440003955e-01
     8    5.294684225738e-01
     9    4.850713133731e-01
    10   -4.490789465230e-01
    11   -5.975418001494e-03
    12   -1.508550526151e+00
    13    1.386498007978e+00
    14    1.794434110963e-02
    15   -5.438405547073e-02
    16   -1.499331175461e-02
    17   -1.068848393847e-02
    18    1.287943424520e-02
    19   -3.008120600871e-01
    20   -6.189494161053e-02
    21    8.916045045088e-01
    22    9.501925192722e-02
    23    9.038027448980e-02
    24    1.084275777306e-02
    25   -2.540726943148e-02
    26   -2.436616415054e-01
    27   -5.341614367668e-01
    28    4.729432901266e-01
    29   -4.626312659084e-01
    30    5.394366572047e-03
    31   -1.462160209987e+00
    32    1.439647241477e+00
    33   -1.151075854309e-02
    34    5.416571571630e-02
    35    1.540323176540e-02
    36    1.000996397728e-02
    37   -1.684724958470e-02
    38    2.994743023925e-01
    39    6.226938849327e-02
    40   -9.303419333436e-01
    41    9.434462726449e-02
    42    9.568625890425e-02
    43    9.536414534992e-03
    44    6.498500195701e-02
    45   -8.928882565633e-01
    46   -8.624384954601e-02
    47   -9.764419277871e-02
    48   -1.430438183257e-02
[5D]

======= END OF MOLDEN-FORMATTED INPUT FILE =======


        *************************************************************
        *                                                           *
        *  Thank you very much for using Q-Chem.  Have a nice day.  *
        *                                                           *
        *************************************************************


