                  Welcome to Q-Chem
     A Quantum Leap Into The Future Of Chemistry


 Q-Chem 5.4 (devel), Q-Chem, Inc., Pleasanton, CA (2021)

 E. Epifanovsky,  A. T. B. Gilbert,  Xintian Feng,  Joonho Lee,  Yuezhi Mao,  
 N. Mardirossian,  P. Pokhilko,  A. White,  M. Wormit,  M. P. Coons,  
 A. L. Dempwolff,  Zhengting Gan,  D. Hait,  P. R. Horn,  L. D. Jacobson,  
 I. Kaliman,  J. Kussmann,  A. W. Lange,  Ka Un Lao,  D. S. Levine,  Jie Liu,  
 S. C. McKenzie,  A. F. Morrison,  K. Nanda,  F. Plasser,  D. R. Rehn,  
 M. L. Vidal,  Zhi-Qiang You,  Ying Zhu,  B. Alam,  B. Albrecht,  
 A. Aldossary,  E. Alguire,  J. H. Andersen,  D. Barton,  K. Begam,  A. Behn,  
 Y. A. Bernard,  E. J. Berquist,  H. Burton,  A. Carreras,  K. Carter-Fenk,  
 R. Chakraborty,  A. D. Chien,  K. D. Closser,  V. Cofer-Shabica,  
 S. Dasgupta,  Jia Deng,  M. de Wergifosse,  M. Diedenhofen,  Hainam Do,  
 S. Ehlert,  Po-Tung Fang,  S. Fatehi,  Qingguo Feng,  T. Friedhoff,  
 J. Gayvert,  Qinghui Ge,  G. Gidofalvi,  M. Goldey,  J. Gomes,  
 C. Gonzalez-Espinoza,  S. Gulania,  A. Gunina,  M. W. D. Hanson-Heine,  
 P. H. P. Harbach,  A. W. Hauser,  M. F. Herbst,  M. Hernandez Vera,  
 M. Hodecker,  Z. C. Holden,  S. Houck,  Xunkun Huang,  Kerwin Hui,  
 B. C. Huynh,  M. Ivanov,  Hyunjun Ji,  Hanjie Jiang,  B. Kaduk,  S. Kaehler,  
 K. Khistyaev,  Jaehoon Kim,  P. Klunzinger,  Z. Koczor-Benda,  
 Joong Hoon Koh,  D. Kosenkov,  L. Koulias,  T. Kowalczyk,  C. M. Krauter,  
 K. Kue,  A. Kunitsa,  T. Kus,  A. Landau,  K. V. Lawler,  D. Lefrancois,  
 S. Lehtola,  Rain Li,  Yi-Pei Li,  Jiashu Liang,  M. Liebenthal,  
 Hung-Hsuan Lin,  You-Sheng Lin,  Fenglai Liu,  Kuan-Yu Liu,  
 M. Loipersberger,  A. Luenser,  A. Manjanath,  P. Manohar,  E. Mansoor,  
 S. F. Manzer,  Shan-Ping Mao,  A. V. Marenich,  T. Markovich,  S. Mason,  
 S. A. Maurer,  P. F. McLaughlin,  M. F. S. J. Menger,  J.-M. Mewes,  
 S. A. Mewes,  P. Morgante,  J. W. Mullinax,  K. J. Oosterbaan,  G. Paran,  
 Alexander C. Paul,  Suranjan K. Paul,  F. Pavosevic,  Zheng Pei,  S. Prager,  
 E. I. Proynov,  E. Ramos,  B. Rana,  A. E. Rask,  A. Rettig,  R. M. Richard,  
 F. Rob,  E. Rossomme,  T. Scheele,  M. Scheurer,  M. Schneider,  
 N. Sergueev,  S. M. Sharada,  W. Skomorowski,  D. W. Small,  C. J. Stein,  
 Yu-Chuan Su,  E. J. Sundstrom,  Zhen Tao,  J. Thirman,  T. Tsuchimochi,  
 N. M. Tubman,  S. P. Veccham,  O. Vydrov,  J. Wenzel,  J. Witte,  A. Yamada,  
 Kun Yao,  S. Yeganeh,  S. R. Yost,  A. Zech,  Igor Ying Zhang,  Xing Zhang,  
 Yu Zhang,  D. Zuev,  A. Aspuru-Guzik,  A. T. Bell,  N. A. Besley,  
 K. B. Bravaya,  B. R. Brooks,  D. Casanova,  Jeng-Da Chai,  S. Coriani,  
 C. J. Cramer,  A. E. DePrince, III,  R. A. DiStasio Jr.,  A. Dreuw,  
 B. D. Dunietz,  T. R. Furlani,  W. A. Goddard III,  S. Grimme,  
 S. Hammes-Schiffer,  T. Head-Gordon,  W. J. Hehre,  Chao-Ping Hsu,  
 T.-C. Jagau,  Yousung Jung,  A. Klamt,  Jing Kong,  D. S. Lambrecht,  
 WanZhen Liang,  N. J. Mayhall,  C. W. McCurdy,  J. B. Neaton,  
 C. Ochsenfeld,  J. A. Parkhill,  R. Peverati,  V. A. Rassolov,  Yihan Shao,  
 L. V. Slipchenko,  T. Stauch,  R. P. Steele,  J. E. Subotnik,  
 A. J. W. Thom,  A. Tkatchenko,  D. G. Truhlar,  T. Van Voorhis,  
 T. A. Wesolowski,  K. B. Whaley,  H. L. Woodcock III,  P. M. Zimmerman,  
 S. Faraji,  P. M. W. Gill,  M. Head-Gordon,  J. M. Herbert,  A. I. Krylov

 Additional authors for Version 5.4.1: 
 S. Kotaru,  Shaozhi Li,  Xiangyuan Li,  F. Matz,  A. Molle,  Haisheng Ren,  
 Yingli Su,  Hung-Yi Tsai,  C. Utku,  Fang Wang

 Contributors to earlier versions of Q-Chem not listed above: 
 R. D. Adamson,  B. Austin,  R. Baer,  J. Baker,  G. J. O. Beran,  
 K. Brandhorst,  S. T. Brown,  E. F. C. Byrd,  A. K. Chakraborty,  
 G. K. L. Chan,  Chun-Min Chang,  Yunqing Chen,  C.-L. Cheng,  
 Siu Hung Chien,  D. M. Chipman,  D. L. Crittenden,  H. Dachsel,  
 R. J. Doerksen,  A. D. Dutoi,  R. G. Edgar,  J. Fosso-Tande,  
 L. Fusti-Molnar,  D. Ghosh,  A. Ghysels,  A. Golubeva-Zadorozhnaya,  
 J. Gonthier,  M. S. Gordon,  S. R. Gwaltney,  G. Hawkins,  J. E. Herr,  
 A. Heyden,  S. Hirata,  E. G. Hohenstein,  G. Kedziora,  F. J. Keil,  
 C. Kelley,  Jihan Kim,  R. A. King,  R. Z. Khaliullin,  P. P. Korambath,  
 W. Kurlancheek,  A. Laurent,  A. M. Lee,  M. S. Lee,  S. V. Levchenko,  
 Ching Yeh Lin,  D. Liotard,  E. Livshits,  R. C. Lochan,  I. Lotan,  
 L. A. Martinez-Martinez,  P. E. Maslen,  N. Nair,  D. P. O'Neill,  
 D. Neuhauser,  E. Neuscamman,  C. M. Oana,  R. Olivares-Amaya,  R. Olson,  
 T. M. Perrine,  B. Peters,  P. A. Pieniazek,  A. Prociuk,  Y. M. Rhee,  
 J. Ritchie,  M. A. Rohrdanz,  E. Rosta,  N. J. Russ,  H. F. Schaefer III,  
 M. W. Schmidt,  N. E. Schultz,  S. Sharma,  N. Shenvi,  C. D. Sherrill,  
 A. C. Simmonett,  A. Sodt,  T. Stein,  D. Stuck,  K. S. Thanthiriwatte,  
 V. Vanovschi,  L. Vogt,  Tao Wang,  A. Warshel,  M. A. Watson,  
 C. F. Williams,  Q. Wu,  X. Xu,  Jun Yang,  W. Zhang,  Yan Zhao

 Please cite Q-Chem as follows:
 Y. Shao et al., Mol. Phys. 113, 184-215 (2015)
 DOI: 10.1080/00268976.2014.952696

 Q-Chem 5.4.1 for Intel X86 EM64T Linux

 Parts of Q-Chem use Armadillo 9.800.1 (Horizon Scraper).
 http://arma.sourceforge.net/

 Q-Chem begins on Thu Nov 17 00:23:29 2022  

 Host: cpu316.baobab
0

     Scratch files written to /scratch/fum/qchem17598//
 Processing $rem in /home/share/wesolowski/qc5.aug2021.FDE/config/preferences:
 Processing $rem in /home/fum/.qchemrc:

 Checking the input file for inconsistencies... 	...done.

--------------------------------------------------------------
User input:
--------------------------------------------------------------
$comment
generated from CCJob.Templates
$end

$rem
sym_ignore = true
method = adc(2)
ee_states = 10
basis = cc-pVDZ
mem_static = 1024
mem_total = 30000
adc_davidson_maxiter = 900
adc_davidson_conv = 6
adc_print = 3
adc_prop_es = true
adc_prop_es2es = true
adc_prop_tpa = true
molden_format = True
state_analysis = true
print_orbitals = 15
gen_scfman = false
fde_export_density = true
fde_details = 3
$end

$molecule
0 1
H -0.0348278765 -0.2442097827 0.0636489606
C -1.0765972949 -0.5292748755 -0.0023551776
H -1.313264467 -1.5767591607 -0.0757276926
C -2.043634118 0.3926884087 0.0061254933
H -1.8137616575 1.4459188338 0.0804456828
H -3.085977293 0.114931858 -0.0593381042                     
$end
--------------------------------------------------------------
 ----------------------------------------------------------------
             Standard Nuclear Orientation (Angstroms)
    I     Atom           X                Y                Z
 ----------------------------------------------------------------
    1      H      -0.0348278765    -0.2442097827     0.0636489606
    2      C      -1.0765972949    -0.5292748755    -0.0023551776
    3      H      -1.3132644670    -1.5767591607    -0.0757276926
    4      C      -2.0436341180     0.3926884087     0.0061254933
    5      H      -1.8137616575     1.4459188338     0.0804456828
    6      H      -3.0859772930     0.1149318580    -0.0593381042
 ----------------------------------------------------------------
 Nuclear Repulsion Energy =          33.39209139 hartrees
 There are        8 alpha and        8 beta electrons
 Requested basis set is cc-pVDZ
 There are 24 shells and 48 basis functions
 Total memory of 30000 MB is distributed as follows: 
   MEM_STATIC is set to 1024 MB
   QALLOC/CCMAN JOB total memory use is  28976 MB
 Warning: actual memory use might exceed 30000 MB

 Total QAlloc Memory Limit  30000 MB
 Mega-Array Size      1001 MB
 MEM_STATIC part      1024 MB

                       Distance Matrix (Angstroms)
             H (  1)   C (  2)   H (  3)   C (  4)   H (  5)
   C (  2)  1.082082
   H (  3)  1.851895  1.076391
   C (  4)  2.108139  1.336132  2.102109
   H (  5)  2.453859  2.109895  3.067812  1.080583
   H (  6)  3.074674  2.110890  2.450428  1.080700  1.846510

 A cutoff of  1.0D-11 yielded    300 shell pairs
 There are      1220 function pairs (      1329 Cartesian)
 Smallest overlap matrix eigenvalue = 4.86E-03

 Scale SEOQF with 1.000000e-01/1.000000e-01/1.000000e+00

 Standard Electronic Orientation quadrupole field applied
 Nucleus-field energy     =     0.0000000022 hartrees
 Guess from superposition of atomic densities
 Warning:  Energy on first SCF cycle will be non-variational
 SAD guess density has 16.000000 electrons
 A restricted Hartree-Fock SCF calculation will be
 performed using Pulay DIIS extrapolation
 SCF converges when DIIS error is below 1.0E-08
 using 8 threads for integral computing
 -------------------------------------------------------
 OpenMP Integral computing Module                
 Release: version 1.0, May 2013, Q-Chem Inc. Pittsburgh 
 -------------------------------------------------------
 ---------------------------------------
  Cycle       Energy         DIIS Error
 ---------------------------------------
    1     -78.4344505747      1.01E-01
    2     -78.0175673494      7.20E-03
    3     -78.0381760786      1.84E-03
    4     -78.0396552727      5.67E-04
    5     -78.0397746420      5.79E-05
    6     -78.0397765178      9.21E-06
    7     -78.0397765782      1.95E-06
    8     -78.0397765809      1.81E-07
    9     -78.0397765809      4.13E-08
   10     -78.0397765809      1.99E-08
   11     -78.0397765809      5.06E-09 Convergence criterion met
 ---------------------------------------
 SCF time:  CPU 2.28 s  wall 2.17 s
 SCF   energy in the final basis set = -78.03977658
 Total energy in the final basis set = -78.03977658
Exporting Density Matrix to file 'Densmat_SCF.txt'.
Export successful
================================================================================
|                                                                              |
|                                 A D C  M A N                                 |
|                                                                              |
 ------------------------------------------------------------------------------ 
|                                                                              |
| Components:                                                                  |
|                                                                              |
| - libvmm - 1.3-trunk                                                         |
|   Authors:                                                                   |
|   Evgeny Epifanovsky, Ilya Kaliman                                           |
|                                                                              |
| - libtensor - 2.5-trunk                                                      |
|   Authors:                                                                   |
|   Evgeny Epifanovsky, Michael Wormit, Dmitry Zuev, Sam Manzer,               |
|   Ilya Kaliman                                                               |
|                                                                              |
| - libwfa - 1.1-trunk                                                         |
|   Authors:                                                                   |
|   Felix Plasser, Stefanie Mewes (Baeppler), Benjamin Thomitzni,              |
|   Michael Wormit, Feng Chen, Anna I. Krylov, Pavel Pokhilko                  |
|                                                                              |
| - libadc - 1.1-trunk                                                         |
|   Authors:                                                                   |
|   Michael Wormit, Adrian L. Dempwolff, Philipp H. P. Harbach,                |
|   Caroline Krauter, Dirk Rehn, Matthias Schneider, Jan Wenzel                |
|                                                                              |
| - adcman - 2.6-trunk                                                         |
|   Authors:                                                                   |
|   Michael Wormit, Adrian L. Dempwolff, Philipp H. P. Harbach,                |
|   Caroline Krauter, Daniel Lefrancois, Jan-Michael Mewes, Dirk Rehn,         |
|   Matthias Schneider, Jan Wenzel, Andreas Dreuw                              |
|                                                                              |
| Authors of earlier versions of ADCMAN:                                       |
| Andreas Dreuw, Jan Hendrik Starcke, Dirk Rehn, Michael Wormit                |
|                                                                              |
================================================================================

 Created directory /scratch/fum/qchem17598/plots
  Import QC data ...  CPU 0.00 s  wall 0.00 s

 Alpha MOs, Restricted
 -- Occupied --                  
-11.235 -11.234  -1.031  -0.790  -0.641  -0.581  -0.506  -0.373
  1 A     2 A     3 A     4 A     5 A     6 A     7 A     8 A                  
 -- Virtual --                   
  0.168   0.204   0.233   0.240   0.303   0.461   0.578   0.615
  9 A    10 A    11 A    12 A    13 A    14 A    15 A    16 A                  
  0.690   0.709   0.784   0.808   0.863   0.936   0.971   1.010
 17 A    18 A    19 A    20 A    21 A    22 A    23 A    24 A                  
  1.131   1.234   1.254   1.265   1.293   1.603   1.725   1.750
 25 A    26 A    27 A    28 A    29 A    30 A    31 A    32 A                  
  1.819   1.858   1.866   1.922   1.977   1.979   2.219   2.256
 33 A    34 A    35 A    36 A    37 A    38 A    39 A    40 A                  
  2.376   2.455   2.505   2.631   2.724   2.822   3.142   3.396
 41 A    42 A    43 A    44 A    45 A    46 A    47 A    48 A                  

 Beta MOs, Restricted
 -- Occupied --                  
-11.235 -11.234  -1.031  -0.790  -0.641  -0.581  -0.506  -0.373
  1 A     2 A     3 A     4 A     5 A     6 A     7 A     8 A                  
 -- Virtual --                   
  0.168   0.204   0.233   0.240   0.303   0.461   0.578   0.615
  9 A    10 A    11 A    12 A    13 A    14 A    15 A    16 A                  
  0.690   0.709   0.784   0.808   0.863   0.936   0.971   1.010
 17 A    18 A    19 A    20 A    21 A    22 A    23 A    24 A                  
  1.131   1.234   1.254   1.265   1.293   1.603   1.725   1.750
 25 A    26 A    27 A    28 A    29 A    30 A    31 A    32 A                  
  1.819   1.858   1.866   1.922   1.977   1.979   2.219   2.256
 33 A    34 A    35 A    36 A    37 A    38 A    39 A    40 A                  
  2.376   2.455   2.505   2.631   2.724   2.822   3.142   3.396
 41 A    42 A    43 A    44 A    45 A    46 A    47 A    48 A                  
  Import AO data ...  CPU 0.00 s  wall 0.00 s
  Using point group: C1
  Irreducible representations in point group: A
  Molecular orbitals: 
  Occupied MOs:
  Block   0:   1 (  A) A   2 (  A) A   3 (  A) A   4 (  A) A   5 (  A) A
                  -11.24      -11.23      -1.031     -0.7904     -0.6413
               6 (  A) A   7 (  A) A   8 (  A) A
                 -0.5811     -0.5056     -0.3731
  Block   1:   1 (  A) B   2 (  A) B   3 (  A) B   4 (  A) B   5 (  A) B
                  -11.24      -11.23      -1.031     -0.7904     -0.6413
               6 (  A) B   7 (  A) B   8 (  A) B
                 -0.5811     -0.5056     -0.3731
  Virtual MOs:
  Block   0:   9 (  A) A  10 (  A) A  11 (  A) A  12 (  A) A  13 (  A) A
                  0.1676      0.2036      0.2332      0.2395      0.3031
              14 (  A) A  15 (  A) A  16 (  A) A  17 (  A) A  18 (  A) A
                  0.4612       0.578      0.6153      0.6899      0.7092
              19 (  A) A  20 (  A) A  21 (  A) A  22 (  A) A
                  0.7838      0.8076       0.863      0.9358
  Block   1:  23 (  A) A  24 (  A) A  25 (  A) A  26 (  A) A  27 (  A) A
                  0.9707        1.01       1.131       1.234       1.254
              28 (  A) A  29 (  A) A  30 (  A) A  31 (  A) A  32 (  A) A
                   1.265       1.293       1.603       1.725        1.75
              33 (  A) A  34 (  A) A  35 (  A) A  36 (  A) A
                   1.819       1.858       1.866       1.922
  Block   2:  37 (  A) A  38 (  A) A  39 (  A) A  40 (  A) A  41 (  A) A
                   1.977       1.979       2.219       2.256       2.376
              42 (  A) A  43 (  A) A  44 (  A) A  45 (  A) A  46 (  A) A
                   2.455       2.505       2.631       2.724       2.822
              47 (  A) A  48 (  A) A
                   3.142       3.396
  Block   3:   9 (  A) B  10 (  A) B  11 (  A) B  12 (  A) B  13 (  A) B
                  0.1676      0.2036      0.2332      0.2395      0.3031
              14 (  A) B  15 (  A) B  16 (  A) B  17 (  A) B  18 (  A) B
                  0.4612       0.578      0.6153      0.6899      0.7092
              19 (  A) B  20 (  A) B  21 (  A) B  22 (  A) B
                  0.7838      0.8076       0.863      0.9358
  Block   4:  23 (  A) B  24 (  A) B  25 (  A) B  26 (  A) B  27 (  A) B
                  0.9707        1.01       1.131       1.234       1.254
              28 (  A) B  29 (  A) B  30 (  A) B  31 (  A) B  32 (  A) B
                   1.265       1.293       1.603       1.725        1.75
              33 (  A) B  34 (  A) B  35 (  A) B  36 (  A) B
                   1.819       1.858       1.866       1.922
  Block   5:  37 (  A) B  38 (  A) B  39 (  A) B  40 (  A) B  41 (  A) B
                   1.977       1.979       2.219       2.256       2.376
              42 (  A) B  43 (  A) B  44 (  A) B  45 (  A) B  46 (  A) B
                   2.455       2.505       2.631       2.724       2.822
              47 (  A) B  48 (  A) B
                   3.142       3.396
  Import MO data ...  CPU 0.00 s  wall 0.00 s
  Import HF data ...  CPU 0.30 s  wall 0.08 s
  Import 2e integrals ...  CPU 0.63 s  wall 0.10 s

--------------------------------------------------------------------------------
                                   HF Summary                                   
--------------------------------------------------------------------------------
  Energy:                                                  -78.0397765809 a.u.
  Dip. moment [a.u.]:                  [  -0.001361,    0.000193,    0.000239]
  Total dipole [Debye]:                                               0.003547
  <r^2> [a.u.]:                        [ 175.326010,   35.017466,   11.632828]
  Total <r^2> [a.u.]:                                               221.976304
--------------------------------------------------------------------------------
  HF properties ...  CPU 0.01 s  wall 0.00 s
  MP(1) calculation ...  CPU 0.01 s  wall 0.00 s
  N^6 prerequesite intermediates ...  CPU 0.44 s  wall 0.08 s
  Difference density matrix of state mp2_gs printed to ASCII file 'State_mp2_gs_Difference.txt'
Exporting MP density matrix to file 'Densmat_MP.txt'.
Export successful
  Total density matrix of state mp2_gs printed to ASCII file 'State_mp2_gs_Total.txt'
Exporting MP density matrix to file 'Densmat_MP.txt'.
Export successful

--------------------------------------------------------------------------------
                                 MP(2) Summary                                  
--------------------------------------------------------------------------------
  MP energy contribution:                                   -0.2798555249 a.u.
  Total energy:                                            -78.3196321058 a.u.
  Dip. moment [a.u.]:                  [  -0.001188,    0.000201,    0.000244]
  Total dipole [Debye]:                                               0.003125
  <r^2> [a.u.]:                        [ 175.372195,   35.059000,   11.462567]
  Total <r^2> [a.u.]:                                               221.893761

  Density matrix analysis:
  ------------------------
  NOs
    Occupation of frontier NOs:
       0.0456   1.9380
    Number of electrons: 16.000000
    Number of unpaired electrons: n_u =  0.40409, n_u,nl =  0.04532
    NO participation ratio (PR_NO): 13.825461
  
  
  Mulliken Population Analysis
  Atom      Charge (e)              h+              e-           Del q
  --------------------------------------------------------------------
   1 H        0.051360        0.014019       -0.011198        0.002820
   2 C       -0.099389        0.093405       -0.099035       -0.005630
   3 H        0.049928        0.014101       -0.011187        0.002914
   4 C       -0.103003        0.093323       -0.099246       -0.005923
   5 H        0.050491        0.014107       -0.011193        0.002914
   6 H        0.050613        0.014098       -0.011193        0.002905
  --------------------------------------------------------------------
  Sum:        0.000000        0.243051       -0.243051       -0.000000
  
  Multipole moment analysis of the density matrix
    Molecular charge:                      0.000000
    Number of electrons:                   16.000000
      Center of electronic charge [Ang]: [ -1.560537,  -0.067484,   0.001970]
    Total nuclear charge:                  16.000000
      Center of nuclear charge [Ang]:    [ -1.560576,  -0.067477,   0.001978]
    Dipole moment [D]:                     0.003125
      Cartesian components [D]:          [ -0.003020,   0.000510,   0.000621]
    RMS size of the density [Ang]:         1.201542
      Cartesian components [Ang]:        [  0.796273,   0.780411,   0.447897]
  
  Exciton analysis of the difference density matrix
    <r_h> [Ang]:                  [ -1.560323,  -0.067122,   0.001954]
    <r_e> [Ang]:                  [ -1.560700,  -0.067139,   0.001944]
    |<r_e - r_h>| [Ang]:            0.000377
    Hole size [Ang]:                1.394746
      Cartesian components [Ang]: [  0.847105,   0.834150,   0.729330]
    Electron size [Ang]:            1.359793
      Cartesian components [Ang]: [  0.877281,   0.862355,   0.579446]
--------------------------------------------------------------------------------
  MP(2) calculation ...  CPU 0.18 s  wall 0.10 s
  Start ADC(2)-s ...  CPU 0.01 s  wall 0.00 s
  ADC(2) intermediates ...  CPU 0.02 s  wall 0.01 s
  Starting Davidson for singlet states of irrep A ... 
--------------------------------------------------------------------------------
   It NVec Conv  Avg. Norm  Max. Norm  Conv. states           Remark
--------------------------------------------------------------------------------
        10    0  1.330e-01  4.682e-01  0.4112 n n n n n n n n Guess.
    1   20    0  2.303e-02  1.113e-01  0.3252 n n n n n n n n 
    2   30    0  5.822e-03  2.454e-02  0.3204 n n n n n n n n 
    3   40    0  1.771e-03  1.031e-02  0.3200 n n n n n n n n 
    4   50    0  5.590e-04  3.556e-03  0.3200 n n n n n n n n 
    5   20    0  2.622e-04  1.768e-03  0.3200 n n n n n n n n Subspace collapsed.
    6   30    0  1.277e-04  9.248e-04  0.3200 n n n n n n n n 
    7   40    0  8.841e-05  7.603e-04  0.3200 n n n n n n n n 
    8   50    0  4.727e-05  3.437e-04  0.3200 n n n n n n n n 
    9   20    2  3.217e-05  2.615e-04  0.3200 n y n y n n n n Subspace collapsed.
   10   30    4  2.442e-05  1.733e-04  0.3200 n y y y y n n n 
   11   40    5  1.242e-05  9.964e-05  0.3200 n y y y y y n n 
   12   50    5  6.921e-06  5.902e-05  0.3200 n y y y y y n n 
   13   20    6  3.072e-06  2.514e-05  0.3200 y y y y y y n n Subspace collapsed.
   14   30    6  2.406e-06  1.894e-05  0.3200 y y y y y y n n 
   15   40    6  1.570e-06  1.334e-05  0.3200 y y y y y y n n 
   16   50    6  1.005e-06  8.898e-06  0.3200 y y y y y y n n 
   17   20    7  5.563e-07  5.136e-06  0.3200 y y y y y y n y Subspace collapsed.
   18   30    7  5.034e-07  4.601e-06  0.3200 y y y y y y n y 
   19   40    7  4.506e-07  4.159e-06  0.3200 y y y y y y n y 
   20   50    9  2.924e-07  2.784e-06  0.3200 y y y y y y y y 
   21   20    9  1.294e-07  1.200e-06  0.3200 y y y y y y y y Subspace collapsed.
   22   30    9  1.062e-07  1.006e-06  0.3200 y y y y y y y y 
   23   32   10  1.033e-07  9.792e-07  0.3200 y y y y y y y y Converged.
--------------------------------------------------------------------------------
  Davidson Summary: 
 ------------------------------------------------------------
  State  0: excitation energy =   0.3200 a.u.   (converged)
  State  1: excitation energy =   0.3328 a.u.   (converged)
  State  2: excitation energy =   0.3365 a.u.   (converged)
  State  3: excitation energy =   0.3613 a.u.   (converged)
  State  4: excitation energy =   0.3744 a.u.   (converged)
  State  5: excitation energy =   0.3862 a.u.   (converged)
  State  6: excitation energy =   0.4255 a.u.   (converged)
  State  7: excitation energy =   0.4464 a.u.   (converged)
  State  8: excitation energy =   0.4557 a.u.   (converged)
  State  9: excitation energy =   0.4658 a.u.   (converged)
 ------------------------------------------------------------

  Singlet states of irrep A ...  CPU 68.79 s  wall 21.69 s
  TDMs ...  CPU 1.22 s  wall 0.38 s
  SDMs ...  CPU 2.65 s  wall 0.73 s
  Starting TPA DIIS iterations ... 
------------------------------------ 
   It     Res. Norm  Remark
------------------------------------
                       Guess.
    1     4.435e+00  
    2     5.896e+00  
    3     1.083e+00  
    4     2.600e-01  
    5     6.685e-02  
    6     2.712e-02  
    7     8.319e-03  
    8     1.446e-03  
    9     5.343e-04  
   10     9.032e-05  
   11     2.824e-05  
   12     4.395e-06  
   13     1.396e-06  
   14     4.319e-07  Converged.
   ... Converged in 14 steps (norm: 4.31906e-07)
------------------------------------
  Starting TPA DIIS iterations ... 
------------------------------------ 
   It     Res. Norm  Remark
------------------------------------
                       Guess.
    1     4.241e+00  
    2     5.627e+00  
    3     1.035e+00  
    4     2.567e-01  
    5     6.637e-02  
    6     2.682e-02  
    7     8.166e-03  
    8     1.435e-03  
    9     5.302e-04  
   10     8.908e-05  
   11     2.786e-05  
   12     4.297e-06  
   13     1.390e-06  
   14     4.253e-07  Converged.
   ... Converged in 14 steps (norm: 4.25265e-07)
------------------------------------
  Starting TPA DIIS iterations ... 
------------------------------------ 
   It     Res. Norm  Remark
------------------------------------
                       Guess.
    1     6.881e-01  
    2     4.834e-01  
    3     1.706e-01  
    4     5.960e-02  
    5     1.838e-02  
    6     6.649e-03  
    7     1.035e-03  
    8     4.436e-04  
    9     1.235e-04  
   10     2.843e-05  
   11     5.928e-06  
   12     1.663e-06  
   13     1.101e-06  
   14     4.346e-07  Converged.
   ... Converged in 14 steps (norm: 4.34606e-07)
------------------------------------
  Starting TPA DIIS iterations ... 
------------------------------------ 
   It     Res. Norm  Remark
------------------------------------
                       Guess.
    1     4.757e+00  
    2     6.475e+00  
    3     1.174e+00  
    4     2.922e-01  
    5     7.626e-02  
    6     3.122e-02  
    7     9.556e-03  
    8     1.658e-03  
    9     6.177e-04  
   10     1.050e-04  
   11     3.321e-05  
   12     5.216e-06  
   13     1.670e-06  
   14     5.175e-07  Converged.
   ... Converged in 14 steps (norm: 5.17468e-07)
------------------------------------
  Starting TPA DIIS iterations ... 
------------------------------------ 
   It     Res. Norm  Remark
------------------------------------
                       Guess.
    1     4.548e+00  
    2     6.180e+00  
    3     1.121e+00  
    4     2.882e-01  
    5     7.573e-02  
    6     3.089e-02  
    7     9.381e-03  
    8     1.646e-03  
    9     6.129e-04  
   10     1.036e-04  
   11     3.274e-05  
   12     5.098e-06  
   13     1.663e-06  
   14     5.102e-07  Converged.
   ... Converged in 14 steps (norm: 5.10176e-07)
------------------------------------
  Starting TPA DIIS iterations ... 
------------------------------------ 
   It     Res. Norm  Remark
------------------------------------
                       Guess.
    1     7.014e-01  
    2     5.026e-01  
    3     1.816e-01  
    4     6.831e-02  
    5     1.995e-02  
    6     7.332e-03  
    7     1.183e-03  
    8     5.313e-04  
    9     1.520e-04  
   10     3.282e-05  
   11     6.860e-06  
   12     1.997e-06  
   13     1.414e-06  
   14     5.601e-07  Converged.
   ... Converged in 14 steps (norm: 5.60147e-07)
------------------------------------
  Starting TPA DIIS iterations ... 
------------------------------------ 
   It     Res. Norm  Remark
------------------------------------
                       Guess.
    1     4.856e+00  
    2     6.656e+00  
    3     1.201e+00  
    4     3.025e-01  
    5     7.924e-02  
    6     3.253e-02  
    7     9.949e-03  
    8     1.726e-03  
    9     6.443e-04  
   10     1.097e-04  
   11     3.482e-05  
   12     5.481e-06  
   13     1.759e-06  
   14     5.453e-07  Converged.
   ... Converged in 14 steps (norm: 5.45333e-07)
------------------------------------
  Starting TPA DIIS iterations ... 
------------------------------------ 
   It     Res. Norm  Remark
------------------------------------
                       Guess.
    1     4.642e+00  
    2     6.352e+00  
    3     1.148e+00  
    4     2.982e-01  
    5     7.870e-02  
    6     3.219e-02  
    7     9.767e-03  
    8     1.713e-03  
    9     6.393e-04  
   10     1.082e-04  
   11     3.432e-05  
   12     5.357e-06  
   13     1.752e-06  
   14     5.379e-07  Converged.
   ... Converged in 14 steps (norm: 5.37897e-07)
------------------------------------
  Starting TPA DIIS iterations ... 
------------------------------------ 
   It     Res. Norm  Remark
------------------------------------
                       Guess.
    1     7.053e-01  
    2     5.084e-01  
    3     1.849e-01  
    4     7.113e-02  
    5     2.043e-02  
    6     7.548e-03  
    7     1.231e-03  
    8     5.600e-04  
    9     1.613e-04  
   10     3.394e-05  
   11     7.155e-06  
   12     2.107e-06  
   13     1.521e-06  
   14     6.036e-07  Converged.
   ... Converged in 14 steps (norm: 6.03616e-07)
------------------------------------
  Starting TPA DIIS iterations ... 
------------------------------------ 
   It     Res. Norm  Remark
------------------------------------
                       Guess.
    1     5.627e+00  
    2     8.100e+00  
    3     1.417e+00  
    4     3.865e-01  
    5     1.038e-01  
    6     4.339e-02  
    7     1.318e-02  
    8     2.277e-03  
    9     8.649e-04  
   10     1.488e-04  
   11     4.840e-05  
   12     7.730e-06  
   13     2.532e-06  
   14     7.868e-07  Converged.
   ... Converged in 14 steps (norm: 7.86823e-07)
------------------------------------
  Starting TPA DIIS iterations ... 
------------------------------------ 
   It     Res. Norm  Remark
------------------------------------
                       Guess.
    1     5.377e+00  
    2     7.729e+00  
    3     1.353e+00  
    4     3.804e-01  
    5     1.031e-01  
    6     4.298e-02  
    7     1.294e-02  
    8     2.261e-03  
    9     8.581e-04  
   10     1.468e-04  
   11     4.764e-05  
   12     7.550e-06  
   13     2.521e-06  
   14     7.795e-07  Converged.
   ... Converged in 14 steps (norm: 7.79503e-07)
------------------------------------
  Starting TPA DIIS iterations ... 
------------------------------------ 
   It     Res. Norm  Remark
------------------------------------
                       Guess.
    1     7.328e-01  
    2     5.509e-01  
    3     2.100e-01  
    4     9.503e-02  
    5     2.408e-02  
    6     9.335e-03  
    7     1.642e-03  
    8     8.020e-04  
    9     2.386e-04  
   10     3.895e-05  
   11     9.618e-06  
   12     3.071e-06  
   13     2.531e-06  
   14     1.022e-06  
   15     4.096e-07  Converged.
   ... Converged in 15 steps (norm: 4.09575e-07)
------------------------------------
  Starting TPA DIIS iterations ... 
------------------------------------ 
   It     Res. Norm  Remark
------------------------------------
                       Guess.
    1     6.117e+00  
    2     9.049e+00  
    3     1.553e+00  
    4     4.439e-01  
    5     1.205e-01  
    6     5.089e-02  
    7     1.539e-02  
    8     2.651e-03  
    9     1.017e-03  
   10     1.758e-04  
   11     5.797e-05  
   12     9.315e-06  
   13     3.089e-06  
   14     9.644e-07  Converged.
   ... Converged in 14 steps (norm: 9.64422e-07)
------------------------------------
  Starting TPA DIIS iterations ... 
------------------------------------ 
   It     Res. Norm  Remark
------------------------------------
                       Guess.
    1     5.844e+00  
    2     8.634e+00  
    3     1.483e+00  
    4     4.364e-01  
    5     1.198e-01  
    6     5.043e-02  
    7     1.511e-02  
    8     2.633e-03  
    9     1.009e-03  
   10     1.734e-04  
   11     5.700e-05  
   12     9.095e-06  
   13     3.076e-06  
   14     9.586e-07  Converged.
   ... Converged in 14 steps (norm: 9.58634e-07)
------------------------------------
  Starting TPA DIIS iterations ... 
------------------------------------ 
   It     Res. Norm  Remark
------------------------------------
                       Guess.
    1     7.481e-01  
    2     5.761e-01  
    3     2.254e-01  
    4     1.119e-01  
    5     2.643e-02  
    6     1.056e-02  
    7     1.937e-03  
    8     9.626e-04  
    9     2.892e-04  
   10     3.991e-05  
   11     1.137e-05  
   12     3.785e-06  
   13     3.338e-06  
   14     1.364e-06  
   15     5.394e-07  Converged.
   ... Converged in 15 steps (norm: 5.39371e-07)
------------------------------------
  Starting TPA DIIS iterations ... 
------------------------------------ 
   It     Res. Norm  Remark
------------------------------------
                       Guess.
    1     6.621e+00  
    2     1.005e+01  
    3     1.692e+00  
    4     5.059e-01  
    5     1.386e-01  
    6     5.907e-02  
    7     1.777e-02  
    8     3.054e-03  
    9     1.182e-03  
   10     2.051e-04  
   11     6.848e-05  
   12     1.106e-05  
   13     3.711e-06  
   14     1.169e-06  
   15     3.956e-07  Converged.
   ... Converged in 15 steps (norm: 3.95569e-07)
------------------------------------
  Starting TPA DIIS iterations ... 
------------------------------------ 
   It     Res. Norm  Remark
------------------------------------
                       Guess.
    1     6.325e+00  
    2     9.590e+00  
    3     1.615e+00  
    4     4.967e-01  
    5     1.378e-01  
    6     5.856e-02  
    7     1.745e-02  
    8     3.034e-03  
    9     1.173e-03  
   10     2.023e-04  
   11     6.727e-05  
   12     1.080e-05  
   13     3.695e-06  
   14     1.166e-06  
   15     3.843e-07  Converged.
   ... Converged in 15 steps (norm: 3.84305e-07)
------------------------------------
  Starting TPA DIIS iterations ... 
------------------------------------ 
   It     Res. Norm  Remark
------------------------------------
                       Guess.
    1     7.626e-01  
    2     6.007e-01  
    3     2.409e-01  
    4     1.306e-01  
    5     2.891e-02  
    6     1.190e-02  
    7     2.269e-03  
    8     1.123e-03  
    9     3.404e-04  
   10     4.051e-05  
   11     1.335e-05  
   12     4.600e-06  
   13     4.304e-06  
   14     1.778e-06  
   15     7.097e-07  Converged.
   ... Converged in 15 steps (norm: 7.097e-07)
------------------------------------
  Starting TPA DIIS iterations ... 
------------------------------------ 
   It     Res. Norm  Remark
------------------------------------
                       Guess.
    1     8.890e+00  
    2     1.483e+01  
    3     2.306e+00  
    4     8.150e-01  
    5     2.290e-01  
    6     1.008e-01  
    7     2.968e-02  
    8     5.056e-03  
    9     2.023e-03  
   10     3.535e-04  
   11     1.215e-04  
   12     1.996e-05  
   13     6.912e-06  
   14     2.393e-06  
   15     8.200e-07  Converged.
   ... Converged in 15 steps (norm: 8.19972e-07)
------------------------------------
  Starting TPA DIIS iterations ... 
------------------------------------ 
   It     Res. Norm  Remark
------------------------------------
                       Guess.
    1     8.487e+00  
    2     1.415e+01  
    3     2.200e+00  
    4     7.967e-01  
    5     2.278e-01  
    6     1.000e-01  
    7     2.915e-02  
    8     5.026e-03  
    9     2.006e-03  
   10     3.485e-04  
   11     1.192e-04  
   12     1.954e-05  
   13     6.889e-06  
   14     2.427e-06  
   15     7.867e-07  Converged.
   ... Converged in 15 steps (norm: 7.86678e-07)
------------------------------------
  Starting TPA DIIS iterations ... 
------------------------------------ 
   It     Res. Norm  Remark
------------------------------------
                       Guess.
    1     8.151e-01  
    2     6.996e-01  
    3     3.062e-01  
    4     2.256e-01  
    5     4.096e-02  
    6     1.849e-02  
    7     4.046e-03  
    8     1.655e-03  
    9     5.506e-04  
   10     5.394e-05  
   11     2.450e-05  
   12     9.240e-06  
   13     1.029e-05  
   14     4.418e-06  
   15     2.104e-06  
   16     9.584e-07  Converged.
   ... Converged in 16 steps (norm: 9.58379e-07)
------------------------------------
  Starting TPA DIIS iterations ... 
------------------------------------ 
   It     Res. Norm  Remark
------------------------------------
                       Guess.
    1     1.066e+01  
    2     1.883e+01  
    3     2.771e+00  
    4     1.082e+00  
    5     3.081e-01  
    6     1.381e-01  
    7     4.008e-02  
    8     6.794e-03  
    9     2.771e-03  
   10     4.842e-04  
   11     1.665e-04  
   12     2.795e-05  
   13     9.677e-06  
   14     3.734e-06  
   15     1.285e-06  
   16     7.096e-07  Converged.
   ... Converged in 16 steps (norm: 7.09605e-07)
------------------------------------
  Starting TPA DIIS iterations ... 
------------------------------------ 
   It     Res. Norm  Remark
------------------------------------
                       Guess.
    1     1.017e+01  
    2     1.796e+01  
    3     2.644e+00  
    4     1.055e+00  
    5     3.065e-01  
    6     1.372e-01  
    7     3.936e-02  
    8     6.752e-03  
    9     2.746e-03  
   10     4.773e-04  
   11     1.634e-04  
   12     2.744e-05  
   13     9.662e-06  
   14     3.830e-06  
   15     1.230e-06  
   16     8.126e-07  Converged.
   ... Converged in 16 steps (norm: 8.12611e-07)
------------------------------------
  Starting TPA DIIS iterations ... 
------------------------------------ 
   It     Res. Norm  Remark
------------------------------------
                       Guess.
    1     8.467e-01  
    2     7.669e-01  
    3     3.530e-01  
    4     3.043e-01  
    5     5.120e-02  
    6     2.390e-02  
    7     5.656e-03  
    8     1.847e-03  
    9     6.964e-04  
   10     7.532e-05  
   11     3.560e-05  
   12     1.401e-05  
   13     1.685e-05  
   14     7.317e-06  
   15     3.889e-06  
   16     1.674e-06  
   17     5.923e-07  Converged.
   ... Converged in 17 steps (norm: 5.92319e-07)
------------------------------------
  Starting TPA DIIS iterations ... 
------------------------------------ 
   It     Res. Norm  Remark
------------------------------------
                       Guess.
    1     1.162e+01  
    2     2.110e+01  
    3     3.020e+00  
    4     1.235e+00  
    5     3.537e-01  
    6     1.599e-01  
    7     4.609e-02  
    8     7.794e-03  
    9     3.207e-03  
   10     5.599e-04  
   11     1.918e-04  
   12     3.269e-05  
   13     1.130e-05  
   14     4.612e-06  
   15     1.616e-06  
   16     9.476e-07  Converged.
   ... Converged in 16 steps (norm: 9.47581e-07)
------------------------------------
  Starting TPA DIIS iterations ... 
------------------------------------ 
   It     Res. Norm  Remark
------------------------------------
                       Guess.
    1     1.109e+01  
    2     2.012e+01  
    3     2.881e+00  
    4     1.203e+00  
    5     3.520e-01  
    6     1.589e-01  
    7     4.526e-02  
    8     7.747e-03  
    9     3.178e-03  
   10     5.519e-04  
   11     1.884e-04  
   12     3.215e-05  
   13     1.128e-05  
   14     4.757e-06  
   15     1.552e-06  
   16     1.093e-06  
   17     3.469e-07  Converged.
   ... Converged in 17 steps (norm: 3.46879e-07)
------------------------------------
  Starting TPA DIIS iterations ... 
------------------------------------ 
   It     Res. Norm  Remark
------------------------------------
                       Guess.
    1     8.616e-01  
    2     8.010e-01  
    3     3.773e-01  
    4     3.461e-01  
    5     5.699e-02  
    6     2.679e-02  
    7     6.580e-03  
    8     1.904e-03  
    9     7.718e-04  
   10     8.845e-05  
   11     4.246e-05  
   12     1.711e-05  
   13     2.124e-05  
   14     9.195e-06  
   15     5.088e-06  
   16     2.141e-06  
   17     8.155e-07  Converged.
   ... Converged in 17 steps (norm: 8.15501e-07)
------------------------------------
  Starting TPA DIIS iterations ... 
------------------------------------ 
   It     Res. Norm  Remark
------------------------------------
                       Guess.
    1     1.284e+01  
    2     2.407e+01  
    3     3.333e+00  
    4     1.436e+00  
    5     4.143e-01  
    6     1.891e-01  
    7     5.406e-02  
    8     9.118e-03  
    9     3.790e-03  
   10     6.603e-04  
   11     2.246e-04  
   12     3.916e-05  
   13     1.355e-05  
   14     5.879e-06  
   15     2.141e-06  
   16     1.317e-06  
   17     3.215e-07  Converged.
   ... Converged in 17 steps (norm: 3.21513e-07)
------------------------------------
  Starting TPA DIIS iterations ... 
------------------------------------ 
   It     Res. Norm  Remark
------------------------------------
                       Guess.
    1     1.226e+01  
    2     2.296e+01  
    3     3.179e+00  
    4     1.396e+00  
    5     4.123e-01  
    6     1.880e-01  
    7     5.308e-02  
    8     9.062e-03  
    9     3.755e-03  
   10     6.508e-04  
   11     2.209e-04  
   12     3.860e-05  
   13     1.352e-05  
   14     6.109e-06  
   15     2.069e-06  
   16     1.530e-06  
   17     4.939e-07  Converged.
   ... Converged in 17 steps (norm: 4.93856e-07)
------------------------------------
  Starting TPA DIIS iterations ... 
------------------------------------ 
   It     Res. Norm  Remark
------------------------------------
                       Guess.
    1     8.788e-01  
    2     8.423e-01  
    3     4.073e-01  
    4     3.966e-01  
    5     6.452e-02  
    6     3.031e-02  
    7     7.785e-03  
    8     1.957e-03  
    9     8.650e-04  
   10     1.057e-04  
   11     5.203e-05  
   12     2.170e-05  
   13     2.790e-05  
   14     1.189e-05  
   15     6.834e-06  
   16     2.801e-06  
   17     1.148e-06  
   18     4.661e-07  Converged.
   ... Converged in 18 steps (norm: 4.66129e-07)
------------------------------------
  Two-photon absorbption ...  CPU 86.36 s  wall 21.52 s
  Transition density matrix of state singlet_A_1 printed to ASCII file 'State_singlet_A_1_Transition.txt'
  Transition density matrix of state singlet_A_2 printed to ASCII file 'State_singlet_A_2_Transition.txt'
  Transition density matrix of state singlet_A_3 printed to ASCII file 'State_singlet_A_3_Transition.txt'
  Transition density matrix of state singlet_A_4 printed to ASCII file 'State_singlet_A_4_Transition.txt'
  Transition density matrix of state singlet_A_5 printed to ASCII file 'State_singlet_A_5_Transition.txt'
  Transition density matrix of state singlet_A_6 printed to ASCII file 'State_singlet_A_6_Transition.txt'
  Transition density matrix of state singlet_A_7 printed to ASCII file 'State_singlet_A_7_Transition.txt'
  Transition density matrix of state singlet_A_8 printed to ASCII file 'State_singlet_A_8_Transition.txt'
  Transition density matrix of state singlet_A_9 printed to ASCII file 'State_singlet_A_9_Transition.txt'
  Transition density matrix of state singlet_A_10 printed to ASCII file 'State_singlet_A_10_Transition.txt'
  Transition properties ...  CPU 0.13 s  wall 0.32 s
  Difference density matrix of state singlet_A_1 printed to ASCII file 'State_singlet_A_1_Difference.txt'
  Total density matrix of state singlet_A_1 printed to ASCII file 'State_singlet_A_1_Total.txt'
  Difference density matrix of state singlet_A_2 printed to ASCII file 'State_singlet_A_2_Difference.txt'
  Total density matrix of state singlet_A_2 printed to ASCII file 'State_singlet_A_2_Total.txt'
  Difference density matrix of state singlet_A_3 printed to ASCII file 'State_singlet_A_3_Difference.txt'
  Total density matrix of state singlet_A_3 printed to ASCII file 'State_singlet_A_3_Total.txt'
  Difference density matrix of state singlet_A_4 printed to ASCII file 'State_singlet_A_4_Difference.txt'
  Total density matrix of state singlet_A_4 printed to ASCII file 'State_singlet_A_4_Total.txt'
  Difference density matrix of state singlet_A_5 printed to ASCII file 'State_singlet_A_5_Difference.txt'
  Total density matrix of state singlet_A_5 printed to ASCII file 'State_singlet_A_5_Total.txt'
  Difference density matrix of state singlet_A_6 printed to ASCII file 'State_singlet_A_6_Difference.txt'
  Total density matrix of state singlet_A_6 printed to ASCII file 'State_singlet_A_6_Total.txt'
  Difference density matrix of state singlet_A_7 printed to ASCII file 'State_singlet_A_7_Difference.txt'
  Total density matrix of state singlet_A_7 printed to ASCII file 'State_singlet_A_7_Total.txt'
  Difference density matrix of state singlet_A_8 printed to ASCII file 'State_singlet_A_8_Difference.txt'
  Total density matrix of state singlet_A_8 printed to ASCII file 'State_singlet_A_8_Total.txt'
  Difference density matrix of state singlet_A_9 printed to ASCII file 'State_singlet_A_9_Difference.txt'
  Total density matrix of state singlet_A_9 printed to ASCII file 'State_singlet_A_9_Total.txt'
  Difference density matrix of state singlet_A_10 printed to ASCII file 'State_singlet_A_10_Difference.txt'
  Total density matrix of state singlet_A_10 printed to ASCII file 'State_singlet_A_10_Total.txt'
  Properties ...  CPU 0.32 s  wall 0.56 s
  ISR TDMS ...  CPU 17.96 s  wall 4.69 s
  ISR transition properties ...  CPU 0.43 s  wall 0.15 s
  Sum-over-states TPA ...  CPU 0.00 s  wall 0.00 s

--------------------------------------------------------------------------------
                   State-averaged natural transition orbitals
--------------------------------------------------------------------------------
--------------------------------------------------------------------------------
  SA-NTO decomposition ...  CPU 0.01 s  wall 0.02 s

--------------------------------------------------------------------------------
                             Excited State Summary
--------------------------------------------------------------------------------
--------------------------------------------------------------------------------

  Excited state 1 (singlet, A)                                     [converged]
  ----------------------------------------------------------------------------
  Term symbol:  2 (1) A                                     R^2 =  1.75750e-11

  Total energy:                                            -77.9996479603 a.u.
  Excitation energy:                                               8.707211 eV

  Osc. strength:                                                      0.444099
  Trans. dip. moment [a.u.]:           [  -1.044691,    0.995166,    0.008974]
  <i|r^2|0> [a.u.]:                    [  -6.158319,    0.252343,   -0.000021]
  Two-photon absorption cross-section (SoS) [a.u.]:                   0.001247
  Two-photon absorption matrix (SoS) [a.u.]:
                                       |   -0.005134   -0.002320   -0.000139 |
                                       |   -0.002320   -0.010315   -0.000846 |
                                       |   -0.000139   -0.000846   -0.002472 |
  Two-photon absorption cross-section [a.u.]:                         0.000391
  Two-photon absorption matrix [a.u.]:
                                       |    0.006592    0.001588   -0.000595 |
                                       |    0.001588    0.002441   -0.001704 |
                                       |   -0.000595   -0.001704   -0.000480 |

  Dip. moment [a.u.]:                  [  -0.000936,    0.000059,    0.000321]
  Total dipole [Debye]:                                               0.002519
  <r^2> [a.u.]:                        [ 176.121911,   35.751948,   11.867469]
  Total <r^2> [a.u.]:                                               223.741327

  V1^2 = 0.9715, V2^2 = 0.0285

  Important amplitudes:
      occ i     occ j     vir a      vir b          v   
    -----------------------------------------------------
     8 (A) A              9 (A) A                -0.6811
     6 (A) A             14 (A) A                -0.0630
     4 (A) A             10 (A) A                -0.0604
     7 (A) A             16 (A) A                 0.0567
     5 (A) A             13 (A) A                -0.0511
     6 (A) A             23 (A) A                -0.0487
     8 (A) A             20 (A) A                -0.0351
     6 (A) A             19 (A) A                 0.0315
     3 (A) A             12 (A) A                 0.0282
     5 (A) A             22 (A) A                 0.0214
     7 (A) A             11 (A) A                -0.0213
     4 (A) A             24 (A) A                -0.0187
     3 (A) A             26 (A) A                 0.0185
     8 (A) A   8 (A) B   17 (A) A   20 (A) B      0.0184
     8 (A) A   8 (A) B    9 (A) A   28 (A) B      0.0169
     6 (A) A             26 (A) A                -0.0162
     7 (A) A             21 (A) A                 0.0148
     3 (A) A             14 (A) A                 0.0139
     3 (A) A   4 (A) B    9 (A) A    9 (A) B      0.0129
     6 (A) A             12 (A) A                 0.0125
     3 (A) A             19 (A) A                -0.0120
     8 (A) A   8 (A) B   18 (A) A   19 (A) B      0.0113
     7 (A) A             32 (A) A                 0.0095
     7 (A) A             36 (A) A                 0.0086
     3 (A) A             23 (A) A                 0.0080
     8 (A) A   8 (A) B   25 (A) A   29 (A) B     -0.0076
     6 (A) A             35 (A) A                -0.0071
     6 (A) A             40 (A) A                -0.0068
     3 (A) A   6 (A) B    9 (A) A   28 (A) B     -0.0065
     6 (A) A   8 (A) A   19 (A) A   28 (A) A      0.0061
     5 (A) A   7 (A) B    9 (A) A    9 (A) B     -0.0060
     5 (A) A   8 (A) B   11 (A) A   20 (A) B     -0.0059
     7 (A) A   8 (A) B   13 (A) A   20 (A) B     -0.0059
     5 (A) A   8 (A) B   16 (A) A    9 (A) B      0.0059
     5 (A) A   8 (A) B   11 (A) A    9 (A) B      0.0058
     3 (A) A   5 (A) B    9 (A) A   25 (A) B      0.0058
     7 (A) A   8 (A) B   22 (A) A   20 (A) B      0.0057
     6 (A) A   8 (A) A    9 (A) A   18 (A) A     -0.0057
     3 (A) A             40 (A) A                 0.0057
     8 (A) A   8 (A) B   19 (A) A   30 (A) B      0.0056
    -----------------------------------------------------

  Density matrix analysis:
  ------------------------
  NOs
    Occupation of frontier NOs:
       0.9495   1.0217
    Number of electrons: 16.000000
    Number of unpaired electrons: n_u =  2.31351, n_u,nl =  2.03274
    NO participation ratio (PR_NO):  2.864341
  
  
  Mulliken Population Analysis
  Atom      Charge (e)              h+              e-           Del q
  --------------------------------------------------------------------
   1 H        0.058923        0.020126       -0.012563        0.007563
   2 C       -0.114192        0.490697       -0.505500       -0.014803
   3 H        0.057361        0.020026       -0.012592        0.007433
   4 C       -0.118413        0.490462       -0.505872       -0.015410
   5 H        0.058078        0.020103       -0.012517        0.007586
   6 H        0.058243        0.020152       -0.012522        0.007630
  --------------------------------------------------------------------
  Sum:        0.000000        1.061567       -1.061567       -0.000000
  
  Multipole moment analysis of the density matrix
    Molecular charge:                      0.000000
    Number of electrons:                   16.000000
      Center of electronic charge [Ang]: [ -1.560545,  -0.067479,   0.001968]
    Total nuclear charge:                  16.000000
      Center of nuclear charge [Ang]:    [ -1.560576,  -0.067477,   0.001978]
    Dipole moment [D]:                     0.002519
      Cartesian components [D]:          [ -0.002379,   0.000150,   0.000816]
    RMS size of the density [Ang]:         1.214913
      Cartesian components [Ang]:        [  0.804454,   0.788143,   0.455739]
  
  Exciton analysis of the difference density matrix
    <r_h> [Ang]:                  [ -1.560189,  -0.068077,   0.001808]
    <r_e> [Ang]:                  [ -1.560315,  -0.068007,   0.001770]
    |<r_e - r_h>| [Ang]:            0.000149
    Hole size [Ang]:                1.285876
      Cartesian components [Ang]: [  0.728093,   0.713447,   0.783805]
    Electron size [Ang]:            1.463031
      Cartesian components [Ang]: [  0.852932,   0.831749,   0.849211]

  Transition density matrix analysis:
  -----------------------------------
  
  CT numbers (Mulliken)
    omega =     0.9535
    <Phe> =    -0.1616
  
  Exciton analysis of the transition density matrix
    Trans. dipole moment [D]:             1.833679
      Cartesian components [D]:         [ -1.327670,   1.264730,   0.011405]
    <r_h> [Ang]:                        [ -1.559960,  -0.068410,   0.001827]
    <r_e> [Ang]:                        [ -1.560334,  -0.067952,   0.001749]
    |<r_e - r_h>| [Ang]:                  0.000597
    Hole size [Ang]:                      1.215454
      Cartesian components [Ang]:       [  0.649980,   0.637954,   0.804903]
    Electron size [Ang]:                  1.485441
      Cartesian components [Ang]:       [  0.863110,   0.840487,   0.868999]
    RMS electron-hole separation [Ang]:   1.937664
      Cartesian components [Ang]:       [  1.106078,   1.077741,   1.170303]
    Covariance(r_h, r_e) [Ang^2]:        -0.035340
    Correlation coefficient:             -0.019574
    Center-of-mass size [Ang]:            0.950419
      Cartesian components [Ang]:       [  0.527128,   0.516062,   0.599259]

  Decomposition into state-averaged NTOs
    H- 0 -> L+ 0: -0.6699 ( 89.7%)
    H- 2 -> L+ 5: -0.0843 (  1.4%)
                   omega =  95.4%
  ----------------------------------------------------------------------------


  Excited state 2 (singlet, A)                                     [converged]
  ----------------------------------------------------------------------------
  Term symbol:  3 (1) A                                     R^2 =  9.82766e-13

  Total energy:                                            -77.9868169230 a.u.
  Excitation energy:                                               9.056362 eV

  Osc. strength:                                                      0.000020
  Trans. dip. moment [a.u.]:           [   0.003129,   -0.002371,   -0.008545]
  <i|r^2|0> [a.u.]:                    [  -0.048024,   -0.084186,    0.150110]
  Two-photon absorption cross-section (SoS) [a.u.]:                   5.009332
  Two-photon absorption matrix (SoS) [a.u.]:
                                       |   -0.055012   -0.059576    0.555294 |
                                       |   -0.059576   -0.064162    0.551029 |
                                       |    0.555294    0.551029    0.118842 |
  Two-photon absorption cross-section [a.u.]:                         0.072247
  Two-photon absorption matrix [a.u.]:
                                       |    0.001398    0.006862   -0.072366 |
                                       |    0.006862    0.012659   -0.059729 |
                                       |   -0.072366   -0.059729   -0.014021 |

  Dip. moment [a.u.]:                  [  -0.024602,    0.004140,   -0.000264]
  Total dipole [Debye]:                                               0.063415
  <r^2> [a.u.]:                        [ 174.351271,   34.140648,   13.173583]
  Total <r^2> [a.u.]:                                               221.665502

  V1^2 = 0.9541, V2^2 = 0.0459

  Important amplitudes:
      occ i     occ j     vir a      vir b          v   
    -----------------------------------------------------
     7 (A) A              9 (A) A                -0.6690
     8 (A) A             11 (A) A                -0.1485
     7 (A) A             20 (A) A                -0.0758
     5 (A) A   8 (A) B    9 (A) A    9 (A) B     -0.0318
     8 (A) A             16 (A) A                -0.0273
     8 (A) A             21 (A) A                 0.0176
     8 (A) A             10 (A) A                 0.0160
     5 (A) A             28 (A) A                -0.0150
     4 (A) A   7 (A) B    9 (A) A   19 (A) B      0.0135
     5 (A) A   7 (A) B    9 (A) A   16 (A) B     -0.0134
     7 (A) A   8 (A) B   20 (A) A   17 (A) B      0.0105
     7 (A) A   8 (A) A    9 (A) A   28 (A) A     -0.0098
     5 (A) A   8 (A) B    9 (A) A   20 (A) B     -0.0096
     4 (A) A   6 (A) B    9 (A) A   16 (A) B      0.0091
     5 (A) A   6 (A) A    9 (A) A   23 (A) A      0.0091
     5 (A) A   6 (A) A    9 (A) A   14 (A) A      0.0090
     5 (A) A   6 (A) B    9 (A) A   19 (A) B     -0.0088
     8 (A) A   7 (A) B    9 (A) A   28 (A) B      0.0085
     4 (A) A   5 (A) A    9 (A) A   10 (A) A     -0.0085
     6 (A) A   7 (A) B    9 (A) A   18 (A) B     -0.0083
     5 (A) A   6 (A) B    9 (A) A   23 (A) B      0.0080
     3 (A) A   7 (A) B    9 (A) A   18 (A) B     -0.0080
     5 (A) A   7 (A) A    9 (A) A   16 (A) A     -0.0079
     4 (A) A   8 (A) B    9 (A) A   25 (A) B     -0.0077
     7 (A) A   8 (A) B   17 (A) A   20 (A) B      0.0074
     4 (A) A   7 (A) B   19 (A) A    9 (A) B      0.0074
     5 (A) A   5 (A) B    9 (A) A   13 (A) B      0.0072
     7 (A) A   8 (A) B   19 (A) A   18 (A) B      0.0072
     5 (A) A   8 (A) A    9 (A) A   20 (A) A     -0.0069
     4 (A) A   5 (A) B    9 (A) A   18 (A) B      0.0067
     7 (A) A   8 (A) B   17 (A) A    9 (A) B      0.0065
     7 (A) A   7 (A) B   20 (A) A   22 (A) B      0.0065
     5 (A) A   6 (A) B    9 (A) A   14 (A) B      0.0064
     4 (A) A   5 (A) B   10 (A) A    9 (A) B      0.0061
     4 (A) A   7 (A) A    9 (A) A   19 (A) A      0.0061
     5 (A) A   7 (A) B   11 (A) A   20 (A) B     -0.0060
     4 (A) A   7 (A) B    9 (A) A   14 (A) B      0.0060
     6 (A) A   7 (A) A   19 (A) A   28 (A) A      0.0057
     4 (A) A   8 (A) A    9 (A) A   25 (A) A     -0.0057
     5 (A) A   7 (A) A   11 (A) A   20 (A) A     -0.0052
    -----------------------------------------------------

  Density matrix analysis:
  ------------------------
  NOs
    Occupation of frontier NOs:
       0.9575   1.0545
    Number of electrons: 16.000000
    Number of unpaired electrons: n_u =  2.35573, n_u,nl =  2.06333
    NO participation ratio (PR_NO):  3.032039
  
  
  Mulliken Population Analysis
  Atom      Charge (e)              h+              e-           Del q
  --------------------------------------------------------------------
   1 H        0.148061        0.124502       -0.027802        0.096701
   2 C       -0.300077        0.269525       -0.470213       -0.200687
   3 H        0.150134        0.121921       -0.021715        0.100206
   4 C       -0.303127        0.274760       -0.474884       -0.200124
   5 H        0.150356        0.126851       -0.026986        0.099865
   6 H        0.154652        0.126027       -0.021987        0.104040
  --------------------------------------------------------------------
  Sum:        0.000000        1.043586       -1.043586       -0.000000
  
  Multipole moment analysis of the density matrix
    Molecular charge:                      0.000000
    Number of electrons:                   16.000000
      Center of electronic charge [Ang]: [ -1.559763,  -0.067614,   0.001987]
    Total nuclear charge:                  16.000000
      Center of nuclear charge [Ang]:    [ -1.560576,  -0.067477,   0.001978]
    Dipole moment [D]:                     0.063415
      Cartesian components [D]:          [ -0.062532,   0.010522,  -0.000672]
    RMS size of the density [Ang]:         1.200877
      Cartesian components [Ang]:        [  0.786511,   0.770033,   0.480164]
  
  Exciton analysis of the difference density matrix
    <r_h> [Ang]:                  [ -1.566469,  -0.056767,   0.002366]
    <r_e> [Ang]:                  [ -1.554596,  -0.058765,   0.002624]
    |<r_e - r_h>| [Ang]:            0.012042
    Hole size [Ang]:                1.486085
      Cartesian components [Ang]: [  1.007962,   0.992832,   0.454692]
    Electron size [Ang]:            1.477843
      Cartesian components [Ang]: [  0.882664,   0.859687,   0.816006]

  Transition density matrix analysis:
  -----------------------------------
  
  CT numbers (Mulliken)
    omega =     0.9215
    <Phe> =    -0.0122
  
  Exciton analysis of the transition density matrix
    Trans. dipole moment [D]:             0.011950
      Cartesian components [D]:         [  0.003977,  -0.003013,  -0.010859]
    <r_h> [Ang]:                        [ -1.567929,  -0.055494,   0.002413]
    <r_e> [Ang]:                        [ -1.552965,  -0.059391,   0.002622]
    |<r_e - r_h>| [Ang]:                  0.015465
    Hole size [Ang]:                      1.514428
      Cartesian components [Ang]:       [  1.031423,   1.016055,   0.444176]
    Electron size [Ang]:                  1.474968
      Cartesian components [Ang]:       [  0.873095,   0.849395,   0.831723]
    RMS electron-hole separation [Ang]:   2.094281
      Cartesian components [Ang]:       [  1.335498,   1.309505,   0.942154]
    Covariance(r_h, r_e) [Ang^2]:         0.041623
    Correlation coefficient:              0.018634
    Center-of-mass size [Ang]:            1.066802
      Cartesian components [Ang]:       [  0.683543,   0.669494,   0.471821]

  Decomposition into state-averaged NTOs
    H- 1 -> L+ 0:  0.6613 ( 87.5%)
    H- 0 -> L+ 2: -0.1486 (  4.4%)
                   omega =  92.2%
  ----------------------------------------------------------------------------


  Excited state 3 (singlet, A)                                     [converged]
  ----------------------------------------------------------------------------
  Term symbol:  4 (1) A                                     R^2 =  7.78717e-13

  Total energy:                                            -77.9831486546 a.u.
  Excitation energy:                                               9.156180 eV

  Osc. strength:                                                      0.025267
  Trans. dip. moment [a.u.]:           [   0.014900,    0.020812,   -0.334636]
  <i|r^2|0> [a.u.]:                    [   0.090863,    0.005156,   -0.000639]
  Two-photon absorption cross-section (SoS) [a.u.]:                   0.001847
  Two-photon absorption matrix (SoS) [a.u.]:
                                       |    0.011790    0.000568   -0.006257 |
                                       |    0.000568   -0.011307    0.007112 |
                                       |   -0.006257    0.007112    0.002973 |
  Two-photon absorption cross-section [a.u.]:                         0.003148
  Two-photon absorption matrix [a.u.]:
                                       |    0.009302   -0.000802   -0.001252 |
                                       |   -0.000802   -0.008682    0.017298 |
                                       |   -0.001252    0.017298    0.003631 |

  Dip. moment [a.u.]:                  [  -0.009697,   -0.016700,   -0.001839]
  Total dipole [Debye]:                                               0.049306
  <r^2> [a.u.]:                        [ 180.824485,   40.680846,   11.032150]
  Total <r^2> [a.u.]:                                               232.537481

  V1^2 = 0.9588, V2^2 = 0.0412

  Important amplitudes:
      occ i     occ j     vir a      vir b          v   
    -----------------------------------------------------
     8 (A) A             10 (A) A                 0.6889
     8 (A) A             24 (A) A                 0.0507
     8 (A) A             18 (A) A                -0.0312
     4 (A) A              9 (A) A                 0.0237
     8 (A) A   8 (A) B    9 (A) A   12 (A) B     -0.0220
     8 (A) A   8 (A) B   10 (A) A   17 (A) B      0.0172
     8 (A) A             15 (A) A                 0.0171
     5 (A) A   8 (A) B   11 (A) A   10 (A) B     -0.0165
     7 (A) A              9 (A) A                 0.0163
     7 (A) A   8 (A) B   13 (A) A   10 (A) B     -0.0141
     4 (A) A   8 (A) B   12 (A) A   10 (A) B     -0.0111
     6 (A) A   8 (A) A   10 (A) A   15 (A) A      0.0109
     7 (A) A   8 (A) B   22 (A) A   10 (A) B      0.0108
     6 (A) A   8 (A) B   15 (A) A   10 (A) B     -0.0107
     4 (A) A   8 (A) A   10 (A) A   12 (A) A      0.0106
     7 (A) A   8 (A) A   10 (A) A   22 (A) A     -0.0099
     7 (A) A   8 (A) A   10 (A) A   13 (A) A      0.0097
     5 (A) A   8 (A) B   21 (A) A   10 (A) B      0.0094
     5 (A) A   8 (A) A   10 (A) A   11 (A) A      0.0093
     6 (A) A   8 (A) A   10 (A) A   18 (A) A      0.0088
     6 (A) A   8 (A) B   10 (A) A   10 (A) B      0.0086
     7 (A) A   8 (A) A   12 (A) A   16 (A) A      0.0081
     5 (A) A   8 (A) A   10 (A) A   21 (A) A     -0.0079
     3 (A) A   4 (A) B   10 (A) A    9 (A) B     -0.0079
     8 (A) A   8 (A) B    9 (A) A   23 (A) B      0.0075
     4 (A) A   8 (A) B   19 (A) A   10 (A) B      0.0075
     8 (A) A   8 (A) B   10 (A) A   28 (A) B     -0.0073
     3 (A) A   8 (A) B   10 (A) A   10 (A) B      0.0072
     5 (A) A   8 (A) B   10 (A) A   11 (A) B     -0.0071
     3 (A) A   8 (A) A   10 (A) A   24 (A) A     -0.0071
     7 (A) A   8 (A) B   16 (A) A   12 (A) B     -0.0070
     3 (A) A   8 (A) B   10 (A) A   18 (A) B     -0.0069
     8 (A) A   8 (A) B    9 (A) A   19 (A) B      0.0068
     6 (A) A   8 (A) B   18 (A) A   10 (A) B     -0.0067
     3 (A) A   6 (A) B   10 (A) A   28 (A) B      0.0062
     7 (A) A   8 (A) B   12 (A) A   11 (A) B     -0.0057
     6 (A) A             28 (A) A                -0.0057
     3 (A) A   5 (A) B   10 (A) A   25 (A) B     -0.0056
     5 (A) A   8 (A) A   10 (A) A   16 (A) A      0.0056
     3 (A) A   8 (A) A   10 (A) A   18 (A) A     -0.0056
    -----------------------------------------------------

  Density matrix analysis:
  ------------------------
  NOs
    Occupation of frontier NOs:
       0.9819   0.9845
    Number of electrons: 16.000000
    Number of unpaired electrons: n_u =  2.28633, n_u,nl =  2.02466
    NO participation ratio (PR_NO):  2.694611
  
  
  Mulliken Population Analysis
  Atom      Charge (e)              h+              e-           Del q
  --------------------------------------------------------------------
   1 H       -0.164605        0.053567       -0.269532       -0.215965
   2 C        0.328667        0.537703       -0.109646        0.428057
   3 H       -0.162335        0.053827       -0.266091       -0.212263
   4 C        0.325990        0.537559       -0.108566        0.428994
   5 H       -0.165818        0.053557       -0.269867       -0.216309
   6 H       -0.161900        0.054123       -0.266636       -0.212513
  --------------------------------------------------------------------
  Sum:        0.000000        1.290338       -1.290338       -0.000000
  
  Multipole moment analysis of the density matrix
    Molecular charge:                      0.000000
    Number of electrons:                   16.000000
      Center of electronic charge [Ang]: [ -1.560256,  -0.066925,   0.002039]
    Total nuclear charge:                  16.000000
      Center of nuclear charge [Ang]:    [ -1.560576,  -0.067477,   0.001978]
    Dipole moment [D]:                     0.049306
      Cartesian components [D]:          [ -0.024647,  -0.042447,  -0.004674]
    RMS size of the density [Ang]:         1.277083
      Cartesian components [Ang]:        [  0.854607,   0.841135,   0.439407]
  
  Exciton analysis of the difference density matrix
    <r_h> [Ang]:                  [ -1.560712,  -0.067748,   0.001866]
    <r_e> [Ang]:                  [ -1.557223,  -0.060817,   0.002721]
    |<r_e - r_h>| [Ang]:            0.007807
    Hole size [Ang]:                1.411108
      Cartesian components [Ang]: [  0.834204,   0.820674,   0.788559]
    Electron size [Ang]:            2.076750
      Cartesian components [Ang]: [  1.374784,   1.376389,   0.726919]

  Transition density matrix analysis:
  -----------------------------------
  
  CT numbers (Mulliken)
    omega =     0.9259
    <Phe> =    -0.0109
  
  Exciton analysis of the transition density matrix
    Trans. dipole moment [D]:             0.426522
      Cartesian components [D]:         [  0.018936,   0.026449,  -0.425279]
    <r_h> [Ang]:                        [ -1.560749,  -0.069251,   0.001697]
    <r_e> [Ang]:                        [ -1.556103,  -0.058883,   0.002962]
    |<r_e - r_h>| [Ang]:                  0.011432
    Hole size [Ang]:                      1.214570
      Cartesian components [Ang]:       [  0.637117,   0.625556,   0.823372]
    Electron size [Ang]:                  2.296168
      Cartesian components [Ang]:       [  1.519115,   1.522846,   0.803502]
    RMS electron-hole separation [Ang]:   2.587657
      Cartesian components [Ang]:       [  1.639793,   1.639290,   1.148815]
    Covariance(r_h, r_e) [Ang^2]:         0.025864
    Correlation coefficient:              0.009274
    Center-of-mass size [Ang]:            1.303773
      Cartesian components [Ang]:       [  0.827399,   0.826680,   0.576051]

  Decomposition into state-averaged NTOs
    H- 0 -> L+ 1: -0.6795 ( 92.3%)
                   omega =  92.6%
  ----------------------------------------------------------------------------


  Excited state 4 (singlet, A)                                     [converged]
  ----------------------------------------------------------------------------
  Term symbol:  5 (1) A                                     R^2 =  2.50735e-12

  Total energy:                                            -77.9583120769 a.u.
  Excitation energy:                                               9.832018 eV

  Osc. strength:                                                      0.000007
  Trans. dip. moment [a.u.]:           [  -0.001413,    0.000821,    0.005306]
  <i|r^2|0> [a.u.]:                    [  -0.025798,   -0.018976,    0.036586]
  Two-photon absorption cross-section (SoS) [a.u.]:                 151.686439
  Two-photon absorption matrix (SoS) [a.u.]:
                                       |   -0.297828   -0.327189    3.040387 |
                                       |   -0.327189   -0.356840    3.047595 |
                                       |    3.040387    3.047595    0.654134 |
  Two-photon absorption cross-section [a.u.]:                        93.922068
  Two-photon absorption matrix [a.u.]:
                                       |   -0.239225   -0.257851    2.400110 |
                                       |   -0.257851   -0.275892    2.390436 |
                                       |    2.400110    2.390436    0.514560 |

  Dip. moment [a.u.]:                  [   0.028479,    0.028311,    0.002624]
  Total dipole [Debye]:                                               0.102286
  <r^2> [a.u.]:                        [ 181.576493,   40.563777,   10.771376]
  Total <r^2> [a.u.]:                                               232.911646

  V1^2 = 0.9635, V2^2 = 0.0365

  Important amplitudes:
      occ i     occ j     vir a      vir b          v   
    -----------------------------------------------------
     8 (A) A             11 (A) A                -0.6697
     7 (A) A              9 (A) A                 0.1505
     8 (A) A             21 (A) A                 0.0781
     8 (A) A             16 (A) A                -0.0641
     8 (A) A   8 (A) B    9 (A) A   13 (A) B      0.0168
     5 (A) A   8 (A) B   11 (A) A   11 (A) B      0.0155
     8 (A) A   8 (A) B   11 (A) A   17 (A) B     -0.0140
     7 (A) A             20 (A) A                 0.0138
     7 (A) A   8 (A) B   13 (A) A   11 (A) B      0.0127
     8 (A) A             12 (A) A                -0.0121
     5 (A) A   8 (A) A   11 (A) A   21 (A) A      0.0110
     4 (A) A   8 (A) B   12 (A) A   11 (A) B      0.0110
     8 (A) A   8 (A) B    9 (A) A   22 (A) B     -0.0108
     7 (A) A   8 (A) A   11 (A) A   22 (A) A      0.0097
     6 (A) A   8 (A) B   15 (A) A   11 (A) B      0.0090
     6 (A) A   8 (A) B   10 (A) A   11 (A) B     -0.0089
     7 (A) A   8 (A) B   22 (A) A   11 (A) B     -0.0089
     3 (A) A   4 (A) B   11 (A) A    9 (A) B      0.0083
     3 (A) A   8 (A) B   11 (A) A   18 (A) B      0.0081
     6 (A) A   8 (A) A   11 (A) A   15 (A) A     -0.0080
     7 (A) A   8 (A) A   13 (A) A   16 (A) A     -0.0078
     7 (A) A   8 (A) A   11 (A) A   13 (A) A     -0.0077
     5 (A) A   8 (A) B   21 (A) A   11 (A) B     -0.0071
     4 (A) A   8 (A) B   19 (A) A   11 (A) B     -0.0069
     5 (A) A   8 (A) B    9 (A) A    9 (A) B      0.0068
     6 (A) A   8 (A) A   11 (A) A   18 (A) A     -0.0063
     4 (A) A   8 (A) A   11 (A) A   12 (A) A     -0.0062
     3 (A) A   6 (A) B   11 (A) A   28 (A) B     -0.0061
     6 (A) A   8 (A) B   18 (A) A   11 (A) B      0.0060
     7 (A) A   8 (A) B   16 (A) A   13 (A) B      0.0057
     3 (A) A   8 (A) A   11 (A) A   18 (A) A      0.0056
     5 (A) A   8 (A) B   10 (A) A   10 (A) B      0.0056
     3 (A) A   8 (A) B   11 (A) A   30 (A) B      0.0055
     6 (A) A              9 (A) A                -0.0055
     3 (A) A   5 (A) B   11 (A) A   25 (A) B      0.0054
     6 (A) A   8 (A) B   11 (A) A   10 (A) B     -0.0054
     7 (A) A   8 (A) B   12 (A) A   10 (A) B      0.0054
     8 (A) A   8 (A) B   20 (A) A   22 (A) B     -0.0053
     3 (A) A   8 (A) A   11 (A) A   24 (A) A      0.0053
     5 (A) A   8 (A) A   11 (A) A   16 (A) A     -0.0048
    -----------------------------------------------------

  Density matrix analysis:
  ------------------------
  NOs
    Occupation of frontier NOs:
       0.9406   1.0278
    Number of electrons: 16.000000
    Number of unpaired electrons: n_u =  2.31939, n_u,nl =  2.04924
    NO participation ratio (PR_NO):  2.915559
  
  
  Mulliken Population Analysis
  Atom      Charge (e)              h+              e-           Del q
  --------------------------------------------------------------------
   1 H       -0.142143        0.045964       -0.239468       -0.193503
   2 C        0.277374        0.496640       -0.119876        0.376764
   3 H       -0.133788        0.046749       -0.230464       -0.183716
   4 C        0.272426        0.497029       -0.121600        0.375429
   5 H       -0.120956        0.046852       -0.218299       -0.171448
   6 H       -0.152913        0.046208       -0.249734       -0.203526
  --------------------------------------------------------------------
  Sum:        0.000000        1.179442       -1.179442       -0.000000
  
  Multipole moment analysis of the density matrix
    Molecular charge:                      0.000000
    Number of electrons:                   16.000000
      Center of electronic charge [Ang]: [ -1.561518,  -0.068414,   0.001891]
    Total nuclear charge:                  16.000000
      Center of nuclear charge [Ang]:    [ -1.560576,  -0.067477,   0.001978]
    Dipole moment [D]:                     0.102286
      Cartesian components [D]:          [  0.072387,   0.071958,   0.006669]
    RMS size of the density [Ang]:         1.278024
      Cartesian components [Ang]:        [  0.859985,   0.839796,   0.434183]
  
  Exciton analysis of the difference density matrix
    <r_h> [Ang]:                  [ -1.561549,  -0.068221,   0.001785]
    <r_e> [Ang]:                  [ -1.574860,  -0.080833,   0.000718]
    |<r_e - r_h>| [Ang]:            0.018368
    Hole size [Ang]:                1.396038
      Cartesian components [Ang]: [  0.819774,   0.807024,   0.790952]
    Electron size [Ang]:            2.126315
      Cartesian components [Ang]: [  1.450288,   1.398706,   0.679340]

  Transition density matrix analysis:
  -----------------------------------
  
  CT numbers (Mulliken)
    omega =     0.9297
    <Phe> =    -0.0134
  
  Exciton analysis of the transition density matrix
    Trans. dipole moment [D]:             0.007056
      Cartesian components [D]:         [ -0.001796,   0.001043,   0.006743]
    <r_h> [Ang]:                        [ -1.560563,  -0.067669,   0.001812]
    <r_e> [Ang]:                        [ -1.577837,  -0.083040,   0.000489]
    |<r_e - r_h>| [Ang]:                  0.023161
    Hole size [Ang]:                      1.229375
      Cartesian components [Ang]:       [  0.659463,   0.650757,   0.808076]
    Electron size [Ang]:                  2.264453
      Cartesian components [Ang]:       [  1.545556,   1.489322,   0.721753]
    RMS electron-hole separation [Ang]:   2.566047
      Cartesian components [Ang]:       [  1.671846,   1.617600,   1.083005]
    Covariance(r_h, r_e) [Ang^2]:         0.027524
    Correlation coefficient:              0.009887
    Center-of-mass size [Ang]:            1.293654
      Cartesian components [Ang]:       [  0.844467,   0.816507,   0.541970]

  Decomposition into state-averaged NTOs
    H- 0 -> L+ 2: -0.6646 ( 88.3%)
    H- 1 -> L+ 0: -0.1485 (  4.4%)
                   omega =  93.0%
  ----------------------------------------------------------------------------


  Excited state 5 (singlet, A)                                     [converged]
  ----------------------------------------------------------------------------
  Term symbol:  6 (1) A                                     R^2 =  2.30826e-11

  Total energy:                                            -77.9452266512 a.u.
  Excitation energy:                                              10.188091 eV

  Osc. strength:                                                      0.000001
  Trans. dip. moment [a.u.]:           [  -0.000067,   -0.000004,   -0.002108]
  <i|r^2|0> [a.u.]:                    [  -0.088291,    0.106116,   -0.018598]
  Two-photon absorption cross-section (SoS) [a.u.]:                 164.002398
  Two-photon absorption matrix (SoS) [a.u.]:
                                       |   -0.307749   -0.034346    3.184830 |
                                       |   -0.034346    0.374668   -3.199272 |
                                       |    3.184830   -3.199272   -0.078227 |
  Two-photon absorption cross-section [a.u.]:                        69.410897
  Two-photon absorption matrix [a.u.]:
                                       |   -0.202773   -0.023484    2.062216 |
                                       |   -0.023484    0.240906   -2.090956 |
                                       |    2.062216   -2.090956   -0.052053 |

  Dip. moment [a.u.]:                  [   0.003536,   -0.008313,   -0.000154]
  Total dipole [Debye]:                                               0.022965
  <r^2> [a.u.]:                        [ 178.085983,   38.096029,   12.022663]
  Total <r^2> [a.u.]:                                               228.204675

  V1^2 = 0.9577, V2^2 = 0.0423

  Important amplitudes:
      occ i     occ j     vir a      vir b          v   
    -----------------------------------------------------
     6 (A) A              9 (A) A                -0.4965
     8 (A) A             12 (A) A                 0.4728
     6 (A) A             20 (A) A                -0.0677
     8 (A) A             19 (A) A                -0.0469
     3 (A) A              9 (A) A                 0.0281
     8 (A) A             23 (A) A                -0.0247
     4 (A) A   8 (A) B    9 (A) A    9 (A) B      0.0184
     8 (A) A   8 (A) B    9 (A) A   10 (A) B     -0.0169
     8 (A) A             26 (A) A                 0.0144
     5 (A) A   8 (A) B   11 (A) A   12 (A) B     -0.0120
[...]
    16   -1.455851005812e-03
    17   -1.794225494593e-03
    18    2.170008317645e-04
    19   -3.353487076821e-03
    20    1.042578437299e-02
    21    9.289172916665e-01
    22   -3.985399138049e-04
    23    1.405424271688e-02
    24    8.200969979346e-04
    25    7.056186584339e-02
    26   -5.280045970490e-02
    27   -1.400910885638e+00
    28    9.691161136491e-02
    29   -9.356743021011e-02
    30   -1.225299599062e-03
    31    3.817824239743e-01
    32   -3.676133753199e-01
    33   -4.789595136173e-03
    34    1.571227670073e-02
    35   -1.469488790932e-03
    36   -1.808050130755e-03
    37   -3.837607570738e-05
    38   -3.167518683151e-03
    39    1.056186150656e-02
    40    9.432922323266e-01
    41    2.001424926925e-04
    42   -1.408333752980e-02
    43   -8.443879597281e-04
    44    9.571299923338e-03
    45    9.342761715063e-01
    46    1.403984056244e-02
    47    3.715586964463e-04
    48    6.772654528371e-04
Sym=X
Ene= 0.233238
Spin=Alpha
Occup=0
     1   -2.632309192613e-02
     2   -1.236747885817e+00
     3    1.438398321331e-02
     4    3.812576400517e-03
     5    8.981915374884e-04
     6   -3.221165347037e-03
     7    3.386986899342e-03
     8    4.835368932165e-02
     9    1.546996817051e-01
    10    1.577652399037e-01
    11    1.660275838656e-02
    12    5.547109966075e-01
    13    5.647680611102e-01
    14    5.942331782843e-02
    15   -5.714522040216e-04
    16    6.479045310990e-05
    17    3.998236790739e-05
    18    3.826957424218e-04
    19    3.426783032796e-04
    20    2.389342232513e-02
    21    1.166127821807e+00
    22    2.602116525934e-03
    23    1.366590886368e-02
    24    9.335820206024e-04
    25    3.851583276403e-03
    26   -3.731363538853e-03
    27   -6.810179064188e-02
    28    1.554903204736e-01
    29    1.575599252543e-01
    30    1.682737740101e-02
    31    5.510612255531e-01
    32    5.529748183815e-01
    33    5.937612605312e-02
    34    9.419790290429e-04
    35   -1.297477791787e-04
    36   -4.822210854625e-05
    37   -7.911296824424e-04
    38   -5.651737607697e-04
    39   -2.433239927405e-02
    40   -1.142508382465e+00
    41    2.459227988042e-03
    42    1.335349896224e-02
    43    9.206093096740e-04
    44    2.578879405500e-02
    45    1.237487812861e+00
    46    1.462146678062e-02
    47    3.831025992486e-03
    48    9.205801528269e-04
Sym=X
Ene= 0.239502
Spin=Alpha
Occup=0
     1    1.560315964449e-02
     2    1.040773205572e+00
     3   -1.638204031253e-02
     4   -9.103176741023e-03
     5   -1.315703357120e-03
     6    8.680789209593e-02
     7   -7.999074630714e-02
     8   -1.603430861274e+00
     9   -5.217019829296e-02
    10    6.095191712749e-02
    11    1.124911689173e-03
    12   -2.039154467944e-01
    13    2.382691994469e-01
    14    4.293130268345e-03
    15    2.267941120051e-02
    16   -2.618670217886e-03
    17   -2.994750405452e-03
    18    7.284255430522e-04
    19   -1.295105409343e-02
    20    1.706688999278e-02
    21    1.142274681884e+00
    22    8.492133853677e-03
    23    1.814217069022e-02
    24    1.478548910480e-03
    25   -8.628238647979e-02
    26    7.897170528649e-02
    27    1.595091418783e+00
    28   -5.168088854668e-02
    29    6.207527454186e-02
    30    1.458956024505e-03
    31   -2.042593789541e-01
    32    2.411239695082e-01
    33    5.473415655560e-03
    34   -2.252778560284e-02
    35    2.576336021481e-03
    36    3.005631251338e-03
    37   -8.035470713688e-04
    38    1.275079375202e-02
    39   -1.679479748569e-02
    40   -1.135727767208e+00
    41    8.670127570569e-03
    42    1.793073341864e-02
    43    1.494831096419e-03
    44   -1.576323954805e-02
    45   -1.036273141753e+00
    46   -1.627657113408e-02
    47   -9.241352738976e-03
    48   -1.306624273165e-03
Sym=X
Ene= 0.303064
Spin=Alpha
Occup=0
     1    2.002053929812e-02
     2   -1.687740339161e+00
     3    2.285598774809e-02
     4   -2.831175233975e-04
     5    1.071048355076e-03
     6    1.409397645197e-04
     7   -3.631745468066e-05
     8   -1.217932022826e-02
     9    1.336710727331e-01
    10    1.394999336966e-01
    11    1.456391377472e-02
    12    1.141822249372e+00
    13    1.194901323970e+00
    14    1.249144670067e-01
    15    2.641051689544e-04
    16    1.608606396215e-03
    17   -1.902645098338e-03
    18    3.272687036070e-02
    19    1.323001306470e-03
    20   -2.089236562252e-02
    21    1.699151551285e+00
    22   -1.253091376683e-03
    23    2.289464591952e-02
    24    1.287531161937e-03
    25   -1.951361208770e-05
    26   -2.061527141513e-04
    27    3.128166165438e-03
    28   -1.345894591711e-01
    29   -1.405759205820e-01
    30   -1.479340056502e-02
    31   -1.138417356367e+00
    32   -1.193148199091e+00
    33   -1.250605329412e-01
    34   -2.318763462837e-05
    35    1.589414972431e-03
    36   -1.886495541654e-03
    37    3.229851969217e-02
    38    1.519829125024e-03
    39   -1.923200995530e-02
    40    1.693108523771e+00
    41    1.498233346193e-03
    42   -2.282646317133e-02
    43   -1.292836383964e-03
    44    1.924719138880e-02
    45   -1.695395855600e+00
    46   -2.296098497154e-02
    47    3.873902317459e-04
    48   -1.066608497514e-03
Sym=X
Ene= 0.461235
Spin=Alpha
Occup=0
     1   -1.197787225222e-01
     2   -7.003343998345e-01
     3   -1.564510516438e-02
     4   -1.008604025026e-02
     5   -1.334914230916e-03
     6    6.072091968933e-02
     7    1.714859944171e-02
     8   -3.543453119553e+00
     9    1.035811732502e-01
    10   -9.903003706318e-02
    11   -1.086190671133e-03
    12    2.403785809535e+00
    13   -2.299872585099e+00
    14   -2.143392083921e-02
    15    5.337083828135e-02
    16   -3.403037249413e-03
    17   -4.628777288677e-03
    18   -1.045002018890e-03
    19    1.720574633147e-02
    20   -1.195244578558e-01
    21   -7.127867114371e-01
    22    9.174948114412e-03
    23    1.609217630113e-02
    24    1.383164345867e-03
    25   -6.105570951170e-02
    26   -1.531906740871e-02
    27    3.547295950008e+00
    28    1.068191930065e-01
    29   -1.020886385082e-01
    30   -1.254927221324e-03
    31    2.401175478407e+00
    32   -2.287008116796e+00
    33   -2.143576218227e-02
    34   -5.193913547439e-02
    35    3.219602747398e-03
    36    4.433216798518e-03
    37    8.489968153292e-04
    38   -1.899463199471e-02
    39    1.116880133119e-01
    40    7.107254858488e-01
    41    8.823079002713e-03
    42    1.580424786558e-02
    43    1.357738974187e-03
    44    1.110881362046e-01
    45    7.146584209572e-01
    46   -1.528627523909e-02
    47   -9.654212937511e-03
    48   -1.310996113136e-03
Sym=X
Ene= 0.577963
Spin=Alpha
Occup=0
     1    2.519654939626e-01
     2    2.708119243312e-02
     3   -1.796665142565e-02
     4    2.582037657414e-02
     5    6.820065089936e-04
     6   -3.660826762548e-03
     7   -1.536417482192e-01
     8   -4.902076986844e-01
     9    2.996018321976e-01
    10   -2.872777753130e-01
    11   -2.764932451106e-03
    12   -7.037830555881e-01
    13    6.827888820484e-01
    14    7.338160849434e-03
    15   -6.253683799671e-03
    16    4.014455909413e-03
    17    3.761934331394e-03
    18   -3.308751499380e-03
    19    6.121121711848e-02
    20    2.574306697055e-01
    21    3.108510826054e-02
    22   -2.586073372144e-02
    23    1.578968204295e-02
    24   -2.859913617103e-04
    25   -5.703271957429e-03
    26   -1.550592959615e-01
    27   -3.936011600503e-01
    28   -2.966116296413e-01
    29    2.832753924944e-01
    30    2.633822959993e-03
    31    7.752149952194e-01
    32   -7.417115936073e-01
    33   -7.569221304663e-03
    34   -6.322038015140e-03
    35    4.056327741892e-03
    36    3.723315401497e-03
    37   -2.466536883634e-03
    38    6.116259244595e-02
    39    2.509943570279e-01
    40    5.792932162470e-02
    41    2.742084739639e-02
    42   -1.708654445962e-02
    43    2.716127755443e-04
    44    2.540225452414e-01
    45    5.629994050592e-02
    46    1.794242746829e-02
    47   -2.624457700779e-02
    48   -7.243686342259e-04
Sym=X
Ene= 0.615292
Spin=Alpha
Occup=0
     1   -5.193089099445e-01
     2    1.997743013769e-01
     3   -6.094678142204e-02
     4    3.813841845616e-02
     5   -6.365746727887e-04
     6   -2.769182916858e-04
     7    1.876769275088e-03
     8   -5.973635347921e-03
     9   -4.031874715398e-02
    10   -4.094583426377e-02
    11   -4.376941607729e-03
    12    2.918535519415e-01
    13    3.023687104752e-01
    14    3.153841046289e-02
    15    1.575572340105e-03
    16   -7.532596712976e-03
    17    8.226261024857e-03
    18   -1.470929456764e-01
    19   -7.331027750042e-03
    20    5.070957543248e-01
    21   -1.853981188597e-01
    22    4.158354594829e-02
    23   -5.839952242511e-02
    24   -1.499743941136e-03
    25    1.205335509563e-04
    26   -6.106014420022e-04
    27    4.531617064519e-03
    28   -3.954269322737e-02
    29   -4.182908743705e-02
    30   -4.328655656306e-03
    31    2.897021566872e-01
    32    3.078475871447e-01
    33    3.228716433372e-02
    34   -1.882582015659e-04
    35    7.375506560453e-03
    36   -8.685855172312e-03
    37    1.495234967438e-01
    38    6.335689995834e-03
    39   -5.201680198491e-01
    40    2.031383172127e-01
    41    4.053274342052e-02
    42   -5.898626198995e-02
    43   -1.606933898770e-03
    44    5.184702264555e-01
    45   -2.064885269239e-01
    46   -6.102704666073e-02
    47    3.799392075830e-02
    48   -5.973981802272e-04
Sym=X
Ene= 0.689892
Spin=Alpha
Occup=0
     1    4.085517834888e-04
     2    3.770276953663e-04
     3    1.009265048303e-03
     4    1.270002564291e-03
     5   -2.084241612179e-02
     6    2.928311873362e-05
     7    1.114166501233e-04
     8    2.383370986024e-04
     9    3.163422506055e-02
    10    3.983035276166e-02
    11   -6.711789384099e-01
    12   -2.969718206083e-02
    13   -3.559816144720e-02
    14    6.139395978905e-01
    15   -1.357560601307e-03
    16    8.234586568400e-02
    17   -7.857288541333e-02
    18   -8.616338302505e-03
    19   -1.035851685583e-03
    20    4.546442590272e-04
    21    1.925857536423e-04
    22    9.718574056927e-04
    23    1.256294423572e-03
    24   -2.190856079479e-02
    25   -1.460589884516e-06
    26    3.984555547688e-04
    27   -5.580364788552e-04
    28    3.196499682356e-02
    29    3.993358633433e-02
    30   -6.709914303058e-01
    31   -3.008077168612e-02
    32   -3.576084193034e-02
    33    6.132084110681e-01
    34    1.177147030348e-03
    35   -8.246072727921e-02
    36    7.863090056281e-02
    37    8.546789218066e-03
    38    1.100720140192e-03
    39   -4.173345978662e-05
    40   -6.812570475468e-04
    41    1.005578753744e-03
    42    1.368458799640e-03
    43   -2.120910166124e-02
    44   -8.338981906576e-05
    45   -4.785049281381e-04
    46    9.171663320529e-04
    47    1.291006908301e-03
    48   -2.118055669380e-02
Sym=X
Ene= 0.709215
Spin=Alpha
Occup=0
     1   -4.724728735449e-01
     2    1.637724415997e-01
     3   -8.039448332745e-02
     4   -4.456156707744e-02
     5   -6.489390524687e-03
     6   -4.780442560416e-02
     7   -3.225243245984e-01
     8    5.181815579315e-01
     9    2.078123407273e-01
    10   -1.932698401165e-01
    11   -1.914141532544e-03
    12   -1.116768924466e-01
    13    8.715706168606e-02
    14   -3.859496595808e-04
    15    1.934864186520e-01
    16   -2.042314009538e-02
    17   -2.385592937716e-02
    18    3.377302419590e-03
    19   -7.741674880823e-02
    20   -4.730769959487e-01
    21    1.424288068651e-01
    22    4.058148936141e-02
    23    8.203042755855e-02
    24    6.735113075241e-03
    25   -4.690804329711e-02
    26   -3.208864745370e-01
    27    4.494269433198e-01
    28   -2.049467813209e-01
    29    1.949962495778e-01
    30    1.531503650373e-03
    31    5.953103233974e-02
    32   -5.546424944781e-02
    33    5.046883819759e-04
    34    1.948081951346e-01
    35   -2.049750343943e-02
    36   -2.389093804353e-02
    37    2.375383047481e-03
    38   -7.469164632188e-02
    39   -4.703141134479e-01
    40    1.388382758052e-01
    41   -4.073922280534e-02
    42   -8.190513243831e-02
    43   -6.792470927645e-03
    44   -4.767006261093e-01
    45    1.447058009269e-01
    46    8.107091611408e-02
    47    4.373397383124e-02
    48    6.478012848862e-03
Sym=X
Ene= 0.783776
Spin=Alpha
Occup=0
     1   -5.311700685936e-01
     2    4.769633112775e-01
     3   -1.117260337796e-01
     4   -2.589648191893e-02
     5   -6.828794793004e-03
     6   -9.123705393927e-02
     7    2.119153895230e-01
     8    6.283314337640e-01
     9   -1.083019634735e-01
    10    1.145661010760e-01
    11    1.052922609026e-03
    12   -3.144738698887e-01
    13    2.690313317526e-01
    14    1.921684021653e-03
    15    2.073921651892e-01
    16   -1.762832585924e-02
    17   -2.172562670489e-02
    18   -9.260098093234e-04
    19   -8.640514827864e-03
    20   -5.307590904842e-01
    21    4.455324456095e-01
    22    1.972976865217e-02
    23    1.108948405904e-01
    24    7.480282297792e-03
    25    9.118120989905e-02
    26   -2.157561733155e-01
    27   -6.364356466068e-01
    28   -1.156854418123e-01
    29    1.115513765605e-01
    30    1.432618022023e-03
    31   -2.913432915605e-01
    32    2.739323288506e-01
    33    1.485390567422e-03
    34   -2.067702422231e-01
    35    1.745722521999e-02
    36    2.195318293280e-02
    37   -2.496406949556e-04
    38    7.230431038071e-03
    39    5.385833527214e-01
    40   -4.581644581861e-01
    41    1.996656807744e-02
    42    1.112763163368e-01
    43    7.586520884804e-03
    44    5.315912983347e-01
    45   -4.599330757096e-01
    46   -1.097552677090e-01
    47   -2.632043665717e-02
    48   -6.786400899330e-03
Sym=X
Ene= 0.807608
Spin=Alpha
Occup=0
     1    2.937790164423e-04
     2   -5.629264301570e-04
     3    1.676809057283e-03
     4    2.030187247899e-03
     5   -3.383030398784e-02
     6    6.548580039594e-05
     7   -3.540550177750e-04
     8    5.813770424492e-05
     9    3.623257458792e-02
    10    4.487411551584e-02
    11   -7.628208531132e-01
    12   -5.312915812837e-02
    13   -6.642916805670e-02
    14    1.125344452739e+00
    15    8.304241307811e-04
    16   -6.413550814466e-02
    17    6.113506806830e-02
    18    6.752551745781e-03
    19    8.264220864913e-04
    20    2.809032411382e-04
    21    1.703204394408e-05
    22    1.687155444337e-03
    23    2.069936814439e-03
    24   -3.513372650108e-02
    25   -4.303302611174e-05
    26   -1.302319870329e-04
    27    1.994718158450e-04
    28   -3.625378741051e-02
    29   -4.565152191697e-02
    30    7.632508165234e-01
    31    5.386397897545e-02
    32    6.697087182109e-02
    33   -1.125252780597e+00
    34    1.170289929674e-03
    35   -6.408552189727e-02
    36    6.112354478439e-02
    37    6.595344307199e-03
    38    8.933297320053e-04
    39   -2.747648516733e-04
    40    1.284110578187e-04
    41   -1.552145574053e-03
    42   -2.150315250680e-03
    43    3.395781650335e-02
    44   -2.854840346082e-04
    45    6.866862388194e-04
    46   -1.414993899321e-03
    47   -2.021297217687e-03
    48    3.383468396036e-02
Sym=X
Ene= 0.863023
Spin=Alpha
Occup=0
     1    1.063021760019e-02
     2   -1.095322165799e+00
     3    1.473138723683e-01
     4    5.751431094002e-02
     5    1.033698962261e-02
     6   -9.075698228571e-04
     7   -3.827881043259e-03
     8    1.657006867803e-03
     9   -4.084739717767e-01
    10   -4.222219915001e-01
    11   -4.413834369615e-02
    12    9.492411834830e-01
    13    9.880431757866e-01
    14    1.030034921634e-01
    15    2.726556381135e-03
    16    1.153193743694e-02
    17   -1.379968573695e-02
    18    2.353632309396e-01
    19    1.107802497995e-02
    20   -1.709593821355e-02
    21    1.099896569083e+00
    22    5.044086752538e-02
    23    1.515361679613e-01
    24    1.141037941093e-02
    25    5.507993622215e-04
    26   -4.052307765685e-03
    27    5.361938430971e-03
    28   -4.127542692373e-01
    29   -4.287572019253e-01
    30   -4.535256710484e-02
    31    9.577599270900e-01
    32    1.001763922555e+00
    33    1.056198130732e-01
    34   -1.015062344752e-03
    35   -1.181165670790e-02
    36    1.376977966174e-02
    37   -2.378650882297e-01
    38   -1.171703735708e-02
    39    1.623113618054e-02
    40   -1.106531915366e+00
    41    4.866336792056e-02
    42    1.533613846553e-01
    43    1.152330676612e-02
    44   -1.148701056334e-02
    45    1.099943317637e+00
    46    1.494353027083e-01
    47    5.577462350266e-02
    48    1.034064340583e-02
Sym=X
Ene= 0.935841
Spin=Alpha
Occup=0
     1    1.125076260002e-01
     2   -1.304984541306e+00
     3    1.839682914249e-01
     4   -2.265219112711e-03
     5    8.633704030931e-03
     6   -1.114426800903e-03
     7   -1.246933764520e-02
     8    7.634664540813e-03
     9   -4.841828759668e-01
    10   -4.908188479084e-01
    11   -5.200758863352e-02
    12    1.496953669885e+00
    13    1.523908041210e+00
    14    1.612055041779e-01
    15    3.690814949792e-03
    16    6.059632070530e-03
    17   -7.045171761119e-03
    18    1.218868623152e-01
    19    9.030903176022e-03
    20   -1.163531346025e-01
    21    1.279132609676e+00
    22   -1.325010113093e-02
    23    1.817196157273e-01
    24    1.005643432340e-02
    25    5.778842669122e-04
    26   -8.180924172336e-03
    27    2.523268771216e-02
    28    4.668020241103e-01
    29    5.005427599220e-01
    30    5.197213978093e-02
    31   -1.448055899152e+00
    32   -1.543896049970e+00
    33   -1.606644688319e-01
    34   -1.159077619269e-03
    35    5.896785947077e-03
    36   -6.963896469204e-03
    37    1.194947670622e-01
    38    2.025994512934e-03
    39   -1.143086043877e-01
    40    1.282570299880e+00
    41    1.280375638465e-02
    42   -1.804320602266e-01
    43   -1.012931356815e-02
    44    1.157148604178e-01
    45   -1.276951476020e+00
    46   -1.816036717774e-01
    47    6.176207447199e-03
    48   -8.288077006437e-03
Sym=X
Ene= 0.970731
Spin=Alpha
Occup=0
     1   -6.755706385562e-02
     2    8.946075854859e-01
     3   -8.678830051351e-02
     4   -9.847359018228e-02
     5   -9.912818759141e-03
     6    2.407309267806e-02
     7    2.453370293563e-01
     8    5.442517273184e-01
     9    4.711904992694e-01
    10   -4.633381663959e-01
    11   -5.027259849251e-03
    12   -1.466271124848e+00
    13    1.450001952629e+00
    14    1.605267954066e-02
    15   -5.169708690936e-02
    16   -1.279340348331e-02
    17   -1.021445844295e-02
    18    1.710804228943e-02
    19   -3.019108198806e-01
    20   -6.794569471410e-02
    21    9.433695751867e-01
    22    9.492613374880e-02
    23    9.740393625390e-02
    24    1.031734734014e-02
    25   -2.398733102774e-02
    26   -2.341174922797e-01
    27   -5.627119406760e-01
    28    4.833256353383e-01
    29   -4.505891545369e-01
    30   -4.058609612198e-03
    31   -1.514138644652e+00
    32    1.405562191911e+00
    33    1.213447239671e-02
    34    5.073396006829e-02
    35    1.287228141971e-02
    36    9.985967580009e-03
    37   -1.333232520852e-02
    38    2.992113476723e-01
    39    6.875330046850e-02
    40   -8.991185157956e-01
    41    9.404341738636e-02
    42    9.195909516802e-02
    43    1.004206793163e-02
    44    6.972780087931e-02
    45   -9.295868076307e-01
    46   -9.146173589627e-02
    47   -9.783120256609e-02
    48   -1.004879648871e-02
[5D]

======= END OF MOLDEN-FORMATTED INPUT FILE =======


        *************************************************************
        *                                                           *
        *  Thank you very much for using Q-Chem.  Have a nice day.  *
        *                                                           *
        *************************************************************


