                  Welcome to Q-Chem
     A Quantum Leap Into The Future Of Chemistry


 Q-Chem 5.4 (devel), Q-Chem, Inc., Pleasanton, CA (2021)

 E. Epifanovsky,  A. T. B. Gilbert,  Xintian Feng,  Joonho Lee,  Yuezhi Mao,  
 N. Mardirossian,  P. Pokhilko,  A. White,  M. Wormit,  M. P. Coons,  
 A. L. Dempwolff,  Zhengting Gan,  D. Hait,  P. R. Horn,  L. D. Jacobson,  
 I. Kaliman,  J. Kussmann,  A. W. Lange,  Ka Un Lao,  D. S. Levine,  Jie Liu,  
 S. C. McKenzie,  A. F. Morrison,  K. Nanda,  F. Plasser,  D. R. Rehn,  
 M. L. Vidal,  Zhi-Qiang You,  Ying Zhu,  B. Alam,  B. Albrecht,  
 A. Aldossary,  E. Alguire,  J. H. Andersen,  D. Barton,  K. Begam,  A. Behn,  
 Y. A. Bernard,  E. J. Berquist,  H. Burton,  A. Carreras,  K. Carter-Fenk,  
 R. Chakraborty,  A. D. Chien,  K. D. Closser,  V. Cofer-Shabica,  
 S. Dasgupta,  Jia Deng,  M. de Wergifosse,  M. Diedenhofen,  Hainam Do,  
 S. Ehlert,  Po-Tung Fang,  S. Fatehi,  Qingguo Feng,  T. Friedhoff,  
 J. Gayvert,  Qinghui Ge,  G. Gidofalvi,  M. Goldey,  J. Gomes,  
 C. Gonzalez-Espinoza,  S. Gulania,  A. Gunina,  M. W. D. Hanson-Heine,  
 P. H. P. Harbach,  A. W. Hauser,  M. F. Herbst,  M. Hernandez Vera,  
 M. Hodecker,  Z. C. Holden,  S. Houck,  Xunkun Huang,  Kerwin Hui,  
 B. C. Huynh,  M. Ivanov,  Hyunjun Ji,  Hanjie Jiang,  B. Kaduk,  S. Kaehler,  
 K. Khistyaev,  Jaehoon Kim,  P. Klunzinger,  Z. Koczor-Benda,  
 Joong Hoon Koh,  D. Kosenkov,  L. Koulias,  T. Kowalczyk,  C. M. Krauter,  
 K. Kue,  A. Kunitsa,  T. Kus,  A. Landau,  K. V. Lawler,  D. Lefrancois,  
 S. Lehtola,  Rain Li,  Yi-Pei Li,  Jiashu Liang,  M. Liebenthal,  
 Hung-Hsuan Lin,  You-Sheng Lin,  Fenglai Liu,  Kuan-Yu Liu,  
 M. Loipersberger,  A. Luenser,  A. Manjanath,  P. Manohar,  E. Mansoor,  
 S. F. Manzer,  Shan-Ping Mao,  A. V. Marenich,  T. Markovich,  S. Mason,  
 S. A. Maurer,  P. F. McLaughlin,  M. F. S. J. Menger,  J.-M. Mewes,  
 S. A. Mewes,  P. Morgante,  J. W. Mullinax,  K. J. Oosterbaan,  G. Paran,  
 Alexander C. Paul,  Suranjan K. Paul,  F. Pavosevic,  Zheng Pei,  S. Prager,  
 E. I. Proynov,  E. Ramos,  B. Rana,  A. E. Rask,  A. Rettig,  R. M. Richard,  
 F. Rob,  E. Rossomme,  T. Scheele,  M. Scheurer,  M. Schneider,  
 N. Sergueev,  S. M. Sharada,  W. Skomorowski,  D. W. Small,  C. J. Stein,  
 Yu-Chuan Su,  E. J. Sundstrom,  Zhen Tao,  J. Thirman,  T. Tsuchimochi,  
 N. M. Tubman,  S. P. Veccham,  O. Vydrov,  J. Wenzel,  J. Witte,  A. Yamada,  
 Kun Yao,  S. Yeganeh,  S. R. Yost,  A. Zech,  Igor Ying Zhang,  Xing Zhang,  
 Yu Zhang,  D. Zuev,  A. Aspuru-Guzik,  A. T. Bell,  N. A. Besley,  
 K. B. Bravaya,  B. R. Brooks,  D. Casanova,  Jeng-Da Chai,  S. Coriani,  
 C. J. Cramer,  A. E. DePrince, III,  R. A. DiStasio Jr.,  A. Dreuw,  
 B. D. Dunietz,  T. R. Furlani,  W. A. Goddard III,  S. Grimme,  
 S. Hammes-Schiffer,  T. Head-Gordon,  W. J. Hehre,  Chao-Ping Hsu,  
 T.-C. Jagau,  Yousung Jung,  A. Klamt,  Jing Kong,  D. S. Lambrecht,  
 WanZhen Liang,  N. J. Mayhall,  C. W. McCurdy,  J. B. Neaton,  
 C. Ochsenfeld,  J. A. Parkhill,  R. Peverati,  V. A. Rassolov,  Yihan Shao,  
 L. V. Slipchenko,  T. Stauch,  R. P. Steele,  J. E. Subotnik,  
 A. J. W. Thom,  A. Tkatchenko,  D. G. Truhlar,  T. Van Voorhis,  
 T. A. Wesolowski,  K. B. Whaley,  H. L. Woodcock III,  P. M. Zimmerman,  
 S. Faraji,  P. M. W. Gill,  M. Head-Gordon,  J. M. Herbert,  A. I. Krylov

 Additional authors for Version 5.4.1: 
 S. Kotaru,  Shaozhi Li,  Xiangyuan Li,  F. Matz,  A. Molle,  Haisheng Ren,  
 Yingli Su,  Hung-Yi Tsai,  C. Utku,  Fang Wang

 Contributors to earlier versions of Q-Chem not listed above: 
 R. D. Adamson,  B. Austin,  R. Baer,  J. Baker,  G. J. O. Beran,  
 K. Brandhorst,  S. T. Brown,  E. F. C. Byrd,  A. K. Chakraborty,  
 G. K. L. Chan,  Chun-Min Chang,  Yunqing Chen,  C.-L. Cheng,  
 Siu Hung Chien,  D. M. Chipman,  D. L. Crittenden,  H. Dachsel,  
 R. J. Doerksen,  A. D. Dutoi,  R. G. Edgar,  J. Fosso-Tande,  
 L. Fusti-Molnar,  D. Ghosh,  A. Ghysels,  A. Golubeva-Zadorozhnaya,  
 J. Gonthier,  M. S. Gordon,  S. R. Gwaltney,  G. Hawkins,  J. E. Herr,  
 A. Heyden,  S. Hirata,  E. G. Hohenstein,  G. Kedziora,  F. J. Keil,  
 C. Kelley,  Jihan Kim,  R. A. King,  R. Z. Khaliullin,  P. P. Korambath,  
 W. Kurlancheek,  A. Laurent,  A. M. Lee,  M. S. Lee,  S. V. Levchenko,  
 Ching Yeh Lin,  D. Liotard,  E. Livshits,  R. C. Lochan,  I. Lotan,  
 L. A. Martinez-Martinez,  P. E. Maslen,  N. Nair,  D. P. O'Neill,  
 D. Neuhauser,  E. Neuscamman,  C. M. Oana,  R. Olivares-Amaya,  R. Olson,  
 T. M. Perrine,  B. Peters,  P. A. Pieniazek,  A. Prociuk,  Y. M. Rhee,  
 J. Ritchie,  M. A. Rohrdanz,  E. Rosta,  N. J. Russ,  H. F. Schaefer III,  
 M. W. Schmidt,  N. E. Schultz,  S. Sharma,  N. Shenvi,  C. D. Sherrill,  
 A. C. Simmonett,  A. Sodt,  T. Stein,  D. Stuck,  K. S. Thanthiriwatte,  
 V. Vanovschi,  L. Vogt,  Tao Wang,  A. Warshel,  M. A. Watson,  
 C. F. Williams,  Q. Wu,  X. Xu,  Jun Yang,  W. Zhang,  Yan Zhao

 Please cite Q-Chem as follows:
 Y. Shao et al., Mol. Phys. 113, 184-215 (2015)
 DOI: 10.1080/00268976.2014.952696

 Q-Chem 5.4.1 for Intel X86 EM64T Linux

 Parts of Q-Chem use Armadillo 9.800.1 (Horizon Scraper).
 http://arma.sourceforge.net/

 Q-Chem begins on Thu Nov 17 00:23:29 2022  

 Host: cpu316.baobab
0

     Scratch files written to /scratch/fum/qchem17600//
 Processing $rem in /home/share/wesolowski/qc5.aug2021.FDE/config/preferences:
 Processing $rem in /home/fum/.qchemrc:

 Checking the input file for inconsistencies... 	...done.

--------------------------------------------------------------
User input:
--------------------------------------------------------------
$comment
generated from CCJob.Templates
$end

$rem
sym_ignore = true
method = adc(2)
ee_states = 10
basis = cc-pVDZ
mem_static = 1024
mem_total = 30000
adc_davidson_maxiter = 900
adc_davidson_conv = 6
adc_print = 3
adc_prop_es = true
adc_prop_es2es = true
adc_prop_tpa = true
molden_format = True
state_analysis = true
print_orbitals = 15
gen_scfman = false
fde_export_density = true
fde_details = 3
$end

$molecule
0 1
H -0.0348278765 -0.2442097827 0.0636489606
C -1.0765972949 -0.5242748755 -0.0023551776
H -1.3182644669999999 -1.5767591607 -0.0757276926
C -2.043634118 0.3926884087 0.0061254933
H -1.8137616575 1.4459188338 0.0804456828
H -3.085977293 0.114931858 -0.0593381042                     
$end
--------------------------------------------------------------
 ----------------------------------------------------------------
             Standard Nuclear Orientation (Angstroms)
    I     Atom           X                Y                Z
 ----------------------------------------------------------------
    1      H      -0.0348278765    -0.2442097827     0.0636489606
    2      C      -1.0765972949    -0.5242748755    -0.0023551776
    3      H      -1.3182644670    -1.5767591607    -0.0757276926
    4      C      -2.0436341180     0.3926884087     0.0061254933
    5      H      -1.8137616575     1.4459188338     0.0804456828
    6      H      -3.0859772930     0.1149318580    -0.0593381042
 ----------------------------------------------------------------
 Nuclear Repulsion Energy =          33.42173020 hartrees
 There are        8 alpha and        8 beta electrons
 Requested basis set is cc-pVDZ
 There are 24 shells and 48 basis functions
 Total memory of 30000 MB is distributed as follows: 
   MEM_STATIC is set to 1024 MB
   QALLOC/CCMAN JOB total memory use is  28976 MB
 Warning: actual memory use might exceed 30000 MB

 Total QAlloc Memory Limit  30000 MB
 Mega-Array Size      1001 MB
 MEM_STATIC part      1024 MB

                       Distance Matrix (Angstroms)
             H (  1)   C (  2)   H (  3)   C (  4)   H (  5)
   C (  2)  1.080776
   H (  3)  1.855350  1.082363
   C (  4)  2.108139  1.332687  2.100377
   H (  5)  2.453859  2.105215  3.067000  1.080583
   H (  6)  3.074674  2.109370  2.446813  1.080700  1.846510

 A cutoff of  1.0D-11 yielded    300 shell pairs
 There are      1220 function pairs (      1329 Cartesian)
 Smallest overlap matrix eigenvalue = 4.80E-03

 Scale SEOQF with 1.000000e-01/1.000000e-01/1.000000e+00

 Standard Electronic Orientation quadrupole field applied
 Nucleus-field energy     =     0.0000000022 hartrees
 Guess from superposition of atomic densities
 Warning:  Energy on first SCF cycle will be non-variational
 SAD guess density has 16.000000 electrons
 A restricted Hartree-Fock SCF calculation will be
 performed using Pulay DIIS extrapolation
 SCF converges when DIIS error is below 1.0E-08
 using 8 threads for integral computing
 -------------------------------------------------------
 OpenMP Integral computing Module                
 Release: version 1.0, May 2013, Q-Chem Inc. Pittsburgh 
 -------------------------------------------------------
 ---------------------------------------
  Cycle       Energy         DIIS Error
 ---------------------------------------
    1     -78.4382187161      1.01E-01
    2     -78.0176721308      7.21E-03
    3     -78.0383034899      1.84E-03
    4     -78.0397865471      5.73E-04
    5     -78.0399083185      5.80E-05
    6     -78.0399101944      9.61E-06
    7     -78.0399102560      2.79E-06
    8     -78.0399102595      1.12E-06
    9     -78.0399102600      9.20E-08
   10     -78.0399102600      1.49E-08
   11     -78.0399102600      4.47E-09 Convergence criterion met
 ---------------------------------------
 SCF time:  CPU 1.56 s  wall 2.10 s
 SCF   energy in the final basis set = -78.03991026
 Total energy in the final basis set = -78.03991026
Exporting Density Matrix to file 'Densmat_SCF.txt'.
Export successful
================================================================================
|                                                                              |
|                                 A D C  M A N                                 |
|                                                                              |
 ------------------------------------------------------------------------------ 
|                                                                              |
| Components:                                                                  |
|                                                                              |
| - libvmm - 1.3-trunk                                                         |
|   Authors:                                                                   |
|   Evgeny Epifanovsky, Ilya Kaliman                                           |
|                                                                              |
| - libtensor - 2.5-trunk                                                      |
|   Authors:                                                                   |
|   Evgeny Epifanovsky, Michael Wormit, Dmitry Zuev, Sam Manzer,               |
|   Ilya Kaliman                                                               |
|                                                                              |
| - libwfa - 1.1-trunk                                                         |
|   Authors:                                                                   |
|   Felix Plasser, Stefanie Mewes (Baeppler), Benjamin Thomitzni,              |
|   Michael Wormit, Feng Chen, Anna I. Krylov, Pavel Pokhilko                  |
|                                                                              |
| - libadc - 1.1-trunk                                                         |
|   Authors:                                                                   |
|   Michael Wormit, Adrian L. Dempwolff, Philipp H. P. Harbach,                |
|   Caroline Krauter, Dirk Rehn, Matthias Schneider, Jan Wenzel                |
|                                                                              |
| - adcman - 2.6-trunk                                                         |
|   Authors:                                                                   |
|   Michael Wormit, Adrian L. Dempwolff, Philipp H. P. Harbach,                |
|   Caroline Krauter, Daniel Lefrancois, Jan-Michael Mewes, Dirk Rehn,         |
|   Matthias Schneider, Jan Wenzel, Andreas Dreuw                              |
|                                                                              |
| Authors of earlier versions of ADCMAN:                                       |
| Andreas Dreuw, Jan Hendrik Starcke, Dirk Rehn, Michael Wormit                |
|                                                                              |
================================================================================

 Created directory /scratch/fum/qchem17600/plots
  Import QC data ...  CPU 0.00 s  wall 0.00 s

 Alpha MOs, Restricted
 -- Occupied --                  
-11.235 -11.233  -1.032  -0.789  -0.641  -0.582  -0.505  -0.374
  1 A     2 A     3 A     4 A     5 A     6 A     7 A     8 A                  
 -- Virtual --                   
  0.168   0.204   0.233   0.239   0.303   0.462   0.577   0.616
  9 A    10 A    11 A    12 A    13 A    14 A    15 A    16 A                  
  0.689   0.709   0.784   0.808   0.862   0.936   0.972   1.009
 17 A    18 A    19 A    20 A    21 A    22 A    23 A    24 A                  
  1.130   1.235   1.256   1.266   1.293   1.601   1.724   1.750
 25 A    26 A    27 A    28 A    29 A    30 A    31 A    32 A                  
  1.819   1.860   1.867   1.922   1.977   1.978   2.220   2.258
 33 A    34 A    35 A    36 A    37 A    38 A    39 A    40 A                  
  2.376   2.454   2.504   2.632   2.721   2.821   3.141   3.397
 41 A    42 A    43 A    44 A    45 A    46 A    47 A    48 A                  

 Beta MOs, Restricted
 -- Occupied --                  
-11.235 -11.233  -1.032  -0.789  -0.641  -0.582  -0.505  -0.374
  1 A     2 A     3 A     4 A     5 A     6 A     7 A     8 A                  
 -- Virtual --                   
  0.168   0.204   0.233   0.239   0.303   0.462   0.577   0.616
  9 A    10 A    11 A    12 A    13 A    14 A    15 A    16 A                  
  0.689   0.709   0.784   0.808   0.862   0.936   0.972   1.009
 17 A    18 A    19 A    20 A    21 A    22 A    23 A    24 A                  
  1.130   1.235   1.256   1.266   1.293   1.601   1.724   1.750
 25 A    26 A    27 A    28 A    29 A    30 A    31 A    32 A                  
  1.819   1.860   1.867   1.922   1.977   1.978   2.220   2.258
 33 A    34 A    35 A    36 A    37 A    38 A    39 A    40 A                  
  2.376   2.454   2.504   2.632   2.721   2.821   3.141   3.397
 41 A    42 A    43 A    44 A    45 A    46 A    47 A    48 A                  
  Import AO data ...  CPU 0.00 s  wall 0.00 s
  Using point group: C1
  Irreducible representations in point group: A
  Molecular orbitals: 
  Occupied MOs:
  Block   0:   1 (  A) A   2 (  A) A   3 (  A) A   4 (  A) A   5 (  A) A
                  -11.24      -11.23      -1.032     -0.7895     -0.6413
               6 (  A) A   7 (  A) A   8 (  A) A
                 -0.5816     -0.5047      -0.374
  Block   1:   1 (  A) B   2 (  A) B   3 (  A) B   4 (  A) B   5 (  A) B
                  -11.24      -11.23      -1.032     -0.7895     -0.6413
               6 (  A) B   7 (  A) B   8 (  A) B
                 -0.5816     -0.5047      -0.374
  Virtual MOs:
  Block   0:   9 (  A) A  10 (  A) A  11 (  A) A  12 (  A) A  13 (  A) A
                  0.1684      0.2036      0.2329      0.2395      0.3032
              14 (  A) A  15 (  A) A  16 (  A) A  17 (  A) A  18 (  A) A
                  0.4618      0.5773      0.6157      0.6892      0.7086
              19 (  A) A  20 (  A) A  21 (  A) A  22 (  A) A
                  0.7845       0.808      0.8622      0.9359
  Block   1:  23 (  A) A  24 (  A) A  25 (  A) A  26 (  A) A  27 (  A) A
                  0.9723       1.009        1.13       1.235       1.256
              28 (  A) A  29 (  A) A  30 (  A) A  31 (  A) A  32 (  A) A
                   1.266       1.293       1.601       1.724        1.75
              33 (  A) A  34 (  A) A  35 (  A) A  36 (  A) A
                   1.819        1.86       1.867       1.922
  Block   2:  37 (  A) A  38 (  A) A  39 (  A) A  40 (  A) A  41 (  A) A
                   1.977       1.978        2.22       2.258       2.376
              42 (  A) A  43 (  A) A  44 (  A) A  45 (  A) A  46 (  A) A
                   2.454       2.504       2.632       2.721       2.821
              47 (  A) A  48 (  A) A
                   3.141       3.397
  Block   3:   9 (  A) B  10 (  A) B  11 (  A) B  12 (  A) B  13 (  A) B
                  0.1684      0.2036      0.2329      0.2395      0.3032
              14 (  A) B  15 (  A) B  16 (  A) B  17 (  A) B  18 (  A) B
                  0.4618      0.5773      0.6157      0.6892      0.7086
              19 (  A) B  20 (  A) B  21 (  A) B  22 (  A) B
                  0.7845       0.808      0.8622      0.9359
  Block   4:  23 (  A) B  24 (  A) B  25 (  A) B  26 (  A) B  27 (  A) B
                  0.9723       1.009        1.13       1.235       1.256
              28 (  A) B  29 (  A) B  30 (  A) B  31 (  A) B  32 (  A) B
                   1.266       1.293       1.601       1.724        1.75
              33 (  A) B  34 (  A) B  35 (  A) B  36 (  A) B
                   1.819        1.86       1.867       1.922
  Block   5:  37 (  A) B  38 (  A) B  39 (  A) B  40 (  A) B  41 (  A) B
                   1.977       1.978        2.22       2.258       2.376
              42 (  A) B  43 (  A) B  44 (  A) B  45 (  A) B  46 (  A) B
                   2.454       2.504       2.632       2.721       2.821
              47 (  A) B  48 (  A) B
                   3.141       3.397
  Import MO data ...  CPU 0.10 s  wall 0.03 s
  Import HF data ...  CPU 0.06 s  wall 0.03 s
  Import 2e integrals ...  CPU 1.47 s  wall 0.23 s

--------------------------------------------------------------------------------
                                   HF Summary                                   
--------------------------------------------------------------------------------
  Energy:                                                  -78.0399102600 a.u.
  Dip. moment [a.u.]:                  [  -0.001089,    0.001168,    0.000538]
  Total dipole [Debye]:                                               0.004283
  <r^2> [a.u.]:                        [ 175.362829,   34.923813,   11.627186]
  Total <r^2> [a.u.]:                                               221.913827
--------------------------------------------------------------------------------
  HF properties ...  CPU 0.01 s  wall 0.00 s
  MP(1) calculation ...  CPU 0.01 s  wall 0.00 s
  N^6 prerequesite intermediates ...  CPU 0.54 s  wall 0.09 s
  Difference density matrix of state mp2_gs printed to ASCII file 'State_mp2_gs_Difference.txt'
Exporting MP density matrix to file 'Densmat_MP.txt'.
Export successful
  Total density matrix of state mp2_gs printed to ASCII file 'State_mp2_gs_Total.txt'
Exporting MP density matrix to file 'Densmat_MP.txt'.
Export successful

--------------------------------------------------------------------------------
                                 MP(2) Summary                                  
--------------------------------------------------------------------------------
  MP energy contribution:                                   -0.2797244556 a.u.
  Total energy:                                            -78.3196347156 a.u.
  Dip. moment [a.u.]:                  [  -0.001099,    0.000972,    0.000520]
  Total dipole [Debye]:                                               0.003957
  <r^2> [a.u.]:                        [ 175.409611,   34.964088,   11.458937]
  Total <r^2> [a.u.]:                                               221.832636

  Density matrix analysis:
  ------------------------
  NOs
    Occupation of frontier NOs:
       0.0453   1.9383
    Number of electrons: 16.000000
    Number of unpaired electrons: n_u =  0.40350, n_u,nl =  0.04509
    NO participation ratio (PR_NO): 13.858570
  
  
  Mulliken Population Analysis
  Atom      Charge (e)              h+              e-           Del q
  --------------------------------------------------------------------
   1 H        0.051149        0.014001       -0.011210        0.002791
   2 C       -0.100952        0.093360       -0.098854       -0.005495
   3 H        0.050811        0.014047       -0.011196        0.002851
   4 C       -0.101543        0.092928       -0.098914       -0.005987
   5 H        0.050030        0.014129       -0.011184        0.002945
   6 H        0.050503        0.014086       -0.011192        0.002895
  --------------------------------------------------------------------
  Sum:       -0.000000        0.242551       -0.242551        0.000000
  
  Multipole moment analysis of the density matrix
    Molecular charge:                      -0.000000
    Number of electrons:                   16.000000
      Center of electronic charge [Ang]: [ -1.560852,  -0.065634,   0.001961]
    Total nuclear charge:                  16.000000
      Center of nuclear charge [Ang]:    [ -1.560889,  -0.065602,   0.001978]
    Dipole moment [D]:                     0.003957
      Cartesian components [D]:          [ -0.002793,   0.002472,   0.001321]
    RMS size of the density [Ang]:         1.200789
      Cartesian components [Ang]:        [  0.796066,   0.779504,   0.447826]
  
  Exciton analysis of the difference density matrix
    <r_h> [Ang]:                  [ -1.560634,  -0.066176,   0.001856]
    <r_e> [Ang]:                  [ -1.560611,  -0.065749,   0.001897]
    |<r_e - r_h>| [Ang]:            0.000430
    Hole size [Ang]:                1.393714
      Cartesian components [Ang]: [  0.846464,   0.834343,   0.727880]
    Electron size [Ang]:            1.359717
      Cartesian components [Ang]: [  0.877829,   0.861790,   0.579279]
--------------------------------------------------------------------------------
  MP(2) calculation ...  CPU 0.31 s  wall 0.12 s
  Start ADC(2)-s ...  CPU 0.01 s  wall 0.00 s
  ADC(2) intermediates ...  CPU 0.02 s  wall 0.01 s
  Starting Davidson for singlet states of irrep A ... 
--------------------------------------------------------------------------------
   It NVec Conv  Avg. Norm  Max. Norm  Conv. states           Remark
--------------------------------------------------------------------------------
        10    0  1.330e-01  4.685e-01  0.4118 n n n n n n n n Guess.
    1   20    0  2.306e-02  1.108e-01  0.3263 n n n n n n n n 
    2   30    0  5.887e-03  2.641e-02  0.3215 n n n n n n n n 
    3   40    0  2.083e-03  1.487e-02  0.3211 n n n n n n n n 
    4   50    0  6.358e-04  4.839e-03  0.3211 n n n n n n n n 
    5   20    0  2.750e-04  2.037e-03  0.3211 n n n n n n n n Subspace collapsed.
    6   30    0  1.929e-04  1.754e-03  0.3211 n n n n n n n n 
    7   40    0  1.144e-04  9.062e-04  0.3211 n n n n n n n n 
    8   50    0  1.178e-04  1.132e-03  0.3211 n n n n n n n n 
    9   20    2  9.108e-05  8.910e-04  0.3211 n y n y n n n n Subspace collapsed.
   10   30    4  1.212e-04  1.198e-03  0.3211 n y y y y n n n 
   11   40    5  1.190e-04  1.187e-03  0.3211 n y y y y y n n 
   12   50    6  1.081e-04  1.080e-03  0.3211 y y y y y y n n 
   13   20    6  5.435e-05  5.433e-04  0.3211 y y y y y y n n Subspace collapsed.
   14   30    6  3.602e-05  3.600e-04  0.3211 y y y y y y n n 
   15   40    7  1.992e-05  1.989e-04  0.3211 y y y y y y n y 
   16   50    7  2.670e-05  2.670e-04  0.3211 y y y y y y n y 
   17   20    8  1.349e-05  1.349e-04  0.3211 y y y y y y n y Subspace collapsed.
   18   30    7  1.928e-05  1.928e-04  0.3211 y y y y y y n y 
   19   40    8  2.143e-05  2.143e-04  0.3211 y y y y y y n y 
   20   50    9  1.969e-05  1.969e-04  0.3211 y y y y y y y y 
   21   20    9  9.039e-06  9.039e-05  0.3211 y y y y y y y y Subspace collapsed.
   22   30    9  7.780e-06  7.780e-05  0.3211 y y y y y y y y 
   23   39    9  4.782e-06  4.782e-05  0.3211 y y y y y y y y 
   24   48    9  4.589e-06  4.589e-05  0.3211 y y y y y y y y 
   25   50    9  4.564e-06  4.564e-05  0.3211 y y y y y y y y 
   26   15    9  3.253e-06  3.253e-05  0.3211 y y y y y y y y Subspace collapsed.
   27   20    9  4.908e-06  4.908e-05  0.3211 y y y y y y y y 
   28   25    9  4.206e-06  4.206e-05  0.3211 y y y y y y y y 
   29   30    9  4.421e-06  4.421e-05  0.3211 y y y y y y y y 
   30   30    9  4.421e-06  4.421e-05  0.3211 y y y y y y y y 
   31   40    9  2.695e-06  2.695e-05  0.3211 y y y y y y y y 
   32   44    9  1.331e-06  1.331e-05  0.3211 y y y y y y y y 
   33   48    9  6.909e-07  6.909e-06  0.3211 y y y y y y y y 
   34   50    9  4.126e-07  4.126e-06  0.3211 y y y y y y y y 
   35   14    9  1.883e-07  1.883e-06  0.3211 y y y y y y y y Subspace collapsed.
   36   18    9  1.761e-07  1.761e-06  0.3211 y y y y y y y y 
   37   22   10  9.512e-08  9.512e-07  0.3211 y y y y y y y y Converged.
--------------------------------------------------------------------------------
  Davidson Summary: 
 ------------------------------------------------------------
  State  0: excitation energy =   0.3211 a.u.   (converged)
  State  1: excitation energy =   0.3328 a.u.   (converged)
  State  2: excitation energy =   0.3369 a.u.   (converged)
  State  3: excitation energy =   0.3613 a.u.   (converged)
  State  4: excitation energy =   0.3752 a.u.   (converged)
  State  5: excitation energy =   0.3871 a.u.   (converged)
  State  6: excitation energy =   0.4246 a.u.   (converged)
  State  7: excitation energy =   0.4472 a.u.   (converged)
  State  8: excitation energy =   0.4564 a.u.   (converged)
  State  9: excitation energy =   0.4647 a.u.   (converged)
 ------------------------------------------------------------

  Singlet states of irrep A ...  CPU 81.72 s  wall 27.38 s
  TDMs ...  CPU 0.91 s  wall 0.33 s
  SDMs ...  CPU 2.40 s  wall 0.66 s
  Starting TPA DIIS iterations ... 
------------------------------------ 
   It     Res. Norm  Remark
------------------------------------
                       Guess.
    1     4.406e+00  
    2     5.840e+00  
    3     1.076e+00  
    4     2.565e-01  
    5     6.577e-02  
    6     2.671e-02  
    7     8.230e-03  
    8     1.438e-03  
    9     5.340e-04  
   10     8.985e-05  
   11     2.816e-05  
   12     4.376e-06  
   13     1.420e-06  
   14     4.432e-07  Converged.
   ... Converged in 14 steps (norm: 4.4319e-07)
------------------------------------
  Starting TPA DIIS iterations ... 
------------------------------------ 
   It     Res. Norm  Remark
------------------------------------
                       Guess.
    1     4.183e+00  
    2     5.538e+00  
    3     1.030e+00  
    4     2.558e-01  
    5     6.537e-02  
    6     2.674e-02  
    7     8.116e-03  
    8     1.457e-03  
    9     5.377e-04  
   10     8.999e-05  
   11     2.842e-05  
   12     4.350e-06  
   13     1.426e-06  
   14     4.356e-07  Converged.
   ... Converged in 14 steps (norm: 4.35613e-07)
------------------------------------
  Starting TPA DIIS iterations ... 
------------------------------------ 
   It     Res. Norm  Remark
------------------------------------
                       Guess.
    1     6.886e-01  
    2     4.833e-01  
    3     1.704e-01  
    4     6.019e-02  
    5     1.837e-02  
    6     6.646e-03  
    7     1.041e-03  
    8     4.487e-04  
    9     1.240e-04  
   10     2.936e-05  
   11     5.299e-06  
   12     1.628e-06  
   13     9.176e-07  Converged.
   ... Converged in 13 steps (norm: 9.17599e-07)
------------------------------------
  Starting TPA DIIS iterations ... 
------------------------------------ 
   It     Res. Norm  Remark
------------------------------------
                       Guess.
    1     4.695e+00  
    2     6.359e+00  
    3     1.158e+00  
    4     2.852e-01  
    5     7.416e-02  
    6     3.038e-02  
    7     9.341e-03  
    8     1.630e-03  
    9     6.097e-04  
   10     1.032e-04  
   11     3.266e-05  
   12     5.120e-06  
   13     1.675e-06  
   14     5.250e-07  Converged.
   ... Converged in 14 steps (norm: 5.24965e-07)
------------------------------------
  Starting TPA DIIS iterations ... 
------------------------------------ 
   It     Res. Norm  Remark
------------------------------------
                       Guess.
    1     4.456e+00  
    2     6.031e+00  
    3     1.108e+00  
    4     2.843e-01  
    5     7.372e-02  
    6     3.043e-02  
    7     9.216e-03  
    8     1.652e-03  
    9     6.140e-04  
   10     1.033e-04  
   11     3.295e-05  
   12     5.088e-06  
   13     1.680e-06  
   14     5.160e-07  Converged.
   ... Converged in 14 steps (norm: 5.15972e-07)
------------------------------------
  Starting TPA DIIS iterations ... 
------------------------------------ 
   It     Res. Norm  Remark
------------------------------------
                       Guess.
    1     7.007e-01  
    2     5.008e-01  
    3     1.803e-01  
    4     6.816e-02  
    5     1.980e-02  
    6     7.268e-03  
    7     1.176e-03  
    8     5.292e-04  
    9     1.500e-04  
   10     3.366e-05  
   11     6.016e-06  
   12     1.924e-06  
   13     1.153e-06  
   14     4.370e-07  Converged.
   ... Converged in 14 steps (norm: 4.37003e-07)
------------------------------------
  Starting TPA DIIS iterations ... 
------------------------------------ 
   It     Res. Norm  Remark
------------------------------------
                       Guess.
    1     4.801e+00  
    2     6.553e+00  
    3     1.188e+00  
    4     2.961e-01  
    5     7.733e-02  
    6     3.177e-02  
    7     9.763e-03  
    8     1.702e-03  
    9     6.386e-04  
   10     1.082e-04  
   11     3.440e-05  
   12     5.408e-06  
   13     1.775e-06  
   14     5.569e-07  Converged.
   ... Converged in 14 steps (norm: 5.56915e-07)
------------------------------------
  Starting TPA DIIS iterations ... 
------------------------------------ 
   It     Res. Norm  Remark
------------------------------------
                       Guess.
    1     4.557e+00  
    2     6.214e+00  
    3     1.136e+00  
    4     2.951e-01  
    5     7.688e-02  
    6     3.184e-02  
    7     9.633e-03  
    8     1.726e-03  
    9     6.430e-04  
   10     1.084e-04  
   11     3.469e-05  
   12     5.372e-06  
   13     1.779e-06  
   14     5.474e-07  Converged.
   ... Converged in 14 steps (norm: 5.47428e-07)
------------------------------------
  Starting TPA DIIS iterations ... 
------------------------------------ 
   It     Res. Norm  Remark
------------------------------------
                       Guess.
    1     7.050e-01  
    2     5.071e-01  
    3     1.840e-01  
    4     7.123e-02  
    5     2.031e-02  
    6     7.505e-03  
    7     1.228e-03  
    8     5.607e-04  
    9     1.601e-04  
   10     3.500e-05  
   11     6.284e-06  
   12     2.040e-06  
   13     1.250e-06  
   14     4.693e-07  Converged.
   ... Converged in 14 steps (norm: 4.6934e-07)
------------------------------------
  Starting TPA DIIS iterations ... 
------------------------------------ 
   It     Res. Norm  Remark
------------------------------------
                       Guess.
    1     5.544e+00  
    2     7.937e+00  
    3     1.396e+00  
    4     3.764e-01  
    5     1.007e-01  
    6     4.216e-02  
    7     1.287e-02  
    8     2.236e-03  
    9     8.532e-04  
   10     1.461e-04  
   11     4.757e-05  
   12     7.595e-06  
   13     2.552e-06  
   14     8.078e-07  Converged.
   ... Converged in 14 steps (norm: 8.07789e-07)
------------------------------------
  Starting TPA DIIS iterations ... 
------------------------------------ 
   It     Res. Norm  Remark
------------------------------------
                       Guess.
    1     5.259e+00  
    2     7.526e+00  
    3     1.334e+00  
    4     3.743e-01  
    5     1.002e-01  
    6     4.232e-02  
    7     1.271e-02  
    8     2.270e-03  
    9     8.590e-04  
   10     1.464e-04  
   11     4.788e-05  
   12     7.540e-06  
   13     2.544e-06  
   14     7.959e-07  Converged.
   ... Converged in 14 steps (norm: 7.95859e-07)
------------------------------------
  Starting TPA DIIS iterations ... 
------------------------------------ 
   It     Res. Norm  Remark
------------------------------------
                       Guess.
    1     7.320e-01  
    2     5.487e-01  
    3     2.085e-01  
    4     9.456e-02  
    5     2.388e-02  
    6     9.250e-03  
    7     1.628e-03  
    8     7.994e-04  
    9     2.355e-04  
   10     4.073e-05  
   11     8.237e-06  
   12     2.951e-06  
   13     2.068e-06  
   14     7.343e-07  Converged.
   ... Converged in 14 steps (norm: 7.34337e-07)
------------------------------------
  Starting TPA DIIS iterations ... 
------------------------------------ 
   It     Res. Norm  Remark
------------------------------------
                       Guess.
    1     6.052e+00  
    2     8.917e+00  
    3     1.537e+00  
    4     4.354e-01  
    5     1.180e-01  
    6     4.988e-02  
    7     1.516e-02  
    8     2.626e-03  
    9     1.013e-03  
   10     1.742e-04  
   11     5.758e-05  
   12     9.263e-06  
   13     3.163e-06  
   14     1.010e-06  
   15     3.739e-07  Converged.
   ... Converged in 15 steps (norm: 3.73903e-07)
------------------------------------
  Starting TPA DIIS iterations ... 
------------------------------------ 
   It     Res. Norm  Remark
------------------------------------
                       Guess.
    1     5.740e+00  
    2     8.454e+00  
    3     1.469e+00  
    4     4.326e-01  
    5     1.174e-01  
    6     5.013e-02  
    7     1.498e-02  
    8     2.668e-03  
    9     1.020e-03  
   10     1.746e-04  
   11     5.788e-05  
   12     9.194e-06  
   13     3.140e-06  
   14     9.981e-07  Converged.
   ... Converged in 14 steps (norm: 9.98092e-07)
------------------------------------
  Starting TPA DIIS iterations ... 
------------------------------------ 
   It     Res. Norm  Remark
------------------------------------
                       Guess.
    1     7.483e-01  
    2     5.752e-01  
    3     2.247e-01  
    4     1.123e-01  
    5     2.635e-02  
    6     1.054e-02  
    7     1.939e-03  
    8     9.708e-04  
    9     2.888e-04  
   10     4.207e-05  
   11     9.690e-06  
   12     3.669e-06  
   13     2.777e-06  
   14     9.565e-07  Converged.
   ... Converged in 14 steps (norm: 9.56492e-07)
------------------------------------
  Starting TPA DIIS iterations ... 
------------------------------------ 
   It     Res. Norm  Remark
------------------------------------
                       Guess.
    1     6.551e+00  
    2     9.904e+00  
    3     1.675e+00  
    4     4.964e-01  
    5     1.357e-01  
    6     5.794e-02  
    7     1.752e-02  
    8     3.029e-03  
    9     1.179e-03  
   10     2.036e-04  
   11     6.812e-05  
   12     1.102e-05  
   13     3.820e-06  
   14     1.235e-06  
   15     4.698e-07  Converged.
   ... Converged in 15 steps (norm: 4.69805e-07)
------------------------------------
  Starting TPA DIIS iterations ... 
------------------------------------ 
   It     Res. Norm  Remark
------------------------------------
                       Guess.
    1     6.213e+00  
    2     9.390e+00  
    3     1.600e+00  
    4     4.927e-01  
    5     1.351e-01  
    6     5.828e-02  
    7     1.732e-02  
    8     3.079e-03  
    9     1.187e-03  
   10     2.040e-04  
   11     6.839e-05  
   12     1.094e-05  
   13     3.776e-06  
   14     1.226e-06  
   15     3.768e-07  Converged.
   ... Converged in 15 steps (norm: 3.76835e-07)
------------------------------------
  Starting TPA DIIS iterations ... 
------------------------------------ 
   It     Res. Norm  Remark
------------------------------------
                       Guess.
    1     7.628e-01  
    2     5.999e-01  
    3     2.402e-01  
    4     1.311e-01  
    5     2.884e-02  
    6     1.189e-02  
    7     2.272e-03  
    8     1.135e-03  
    9     3.403e-04  
   10     4.271e-05  
   11     1.123e-05  
   12     4.444e-06  
   13     3.587e-06  
   14     1.208e-06  
   15     4.182e-07  Converged.
   ... Converged in 15 steps (norm: 4.18207e-07)
------------------------------------
  Starting TPA DIIS iterations ... 
------------------------------------ 
   It     Res. Norm  Remark
------------------------------------
                       Guess.
    1     8.655e+00  
    2     1.431e+01  
    3     2.248e+00  
    4     7.808e-01  
    5     2.188e-01  
    6     9.632e-02  
    7     2.857e-02  
    8     4.899e-03  
    9     1.968e-03  
   10     3.424e-04  
   11     1.180e-04  
   12     1.947e-05  
   13     7.066e-06  
   14     2.516e-06  
   15     1.019e-06  
   16     4.538e-07  Converged.
   ... Converged in 16 steps (norm: 4.53828e-07)
------------------------------------
  Starting TPA DIIS iterations ... 
------------------------------------ 
   It     Res. Norm  Remark
------------------------------------
                       Guess.
    1     8.205e+00  
    2     1.356e+01  
    3     2.145e+00  
    4     7.722e-01  
    5     2.179e-01  
    6     9.716e-02  
    7     2.826e-02  
    8     4.988e-03  
    9     1.979e-03  
   10     3.430e-04  
   11     1.179e-04  
   12     1.942e-05  
   13     6.835e-06  
   14     2.556e-06  
   15     7.595e-07  Converged.
   ... Converged in 15 steps (norm: 7.59505e-07)
------------------------------------
  Starting TPA DIIS iterations ... 
------------------------------------ 
   It     Res. Norm  Remark
------------------------------------
                       Guess.
    1     8.130e-01  
    2     6.936e-01  
    3     3.017e-01  
    4     2.199e-01  
    5     4.018e-02  
    6     1.812e-02  
    7     3.942e-03  
    8     1.660e-03  
    9     5.394e-04  
   10     5.233e-05  
   11     1.905e-05  
   12     8.289e-06  
   13     8.102e-06  
   14     2.639e-06  
   15     9.447e-07  Converged.
   ... Converged in 15 steps (norm: 9.44717e-07)
------------------------------------
  Starting TPA DIIS iterations ... 
------------------------------------ 
   It     Res. Norm  Remark
------------------------------------
                       Guess.
    1     1.049e+01  
    2     1.843e+01  
    3     2.734e+00  
    4     1.057e+00  
    5     3.002e-01  
    6     1.348e-01  
    7     3.939e-02  
    8     6.719e-03  
    9     2.757e-03  
   10     4.797e-04  
   11     1.657e-04  
   12     2.801e-05  
   13     1.035e-05  
   14     4.131e-06  
   15     1.722e-06  
   16     8.392e-07  Converged.
   ... Converged in 16 steps (norm: 8.3916e-07)
------------------------------------
  Starting TPA DIIS iterations ... 
------------------------------------ 
   It     Res. Norm  Remark
------------------------------------
                       Guess.
    1     9.945e+00  
    2     1.747e+01  
    3     2.608e+00  
    4     1.043e+00  
    5     2.992e-01  
    6     1.363e-01  
    7     3.898e-02  
    8     6.846e-03  
    9     2.768e-03  
   10     4.805e-04  
   11     1.652e-04  
   12     2.822e-05  
   13     9.815e-06  
   14     4.286e-06  
   15     1.305e-06  
   16     1.040e-06  
   17     4.808e-07  Converged.
   ... Converged in 17 steps (norm: 4.80813e-07)
------------------------------------
  Starting TPA DIIS iterations ... 
------------------------------------ 
   It     Res. Norm  Remark
------------------------------------
                       Guess.
    1     8.469e-01  
    2     7.652e-01  
    3     3.513e-01  
    4     3.025e-01  
    5     5.098e-02  
    6     2.389e-02  
    7     5.646e-03  
    8     1.880e-03  
    9     6.939e-04  
   10     7.133e-05  
   11     2.745e-05  
   12     1.220e-05  
   13     1.331e-05  
   14     4.397e-06  
   15     1.792e-06  
   16     1.236e-06  
   17     4.350e-07  Converged.
   ... Converged in 17 steps (norm: 4.35019e-07)
------------------------------------
  Starting TPA DIIS iterations ... 
------------------------------------ 
   It     Res. Norm  Remark
------------------------------------
                       Guess.
    1     1.143e+01  
    2     2.063e+01  
    3     2.978e+00  
    4     1.206e+00  
    5     3.444e-01  
    6     1.560e-01  
    7     4.527e-02  
    8     7.706e-03  
    9     3.190e-03  
   10     5.546e-04  
   11     1.909e-04  
   12     3.281e-05  
   13     1.222e-05  
   14     5.146e-06  
   15     2.188e-06  
   16     1.097e-06  
   17     3.395e-07  Converged.
   ... Converged in 17 steps (norm: 3.39491e-07)
------------------------------------
  Starting TPA DIIS iterations ... 
------------------------------------ 
   It     Res. Norm  Remark
------------------------------------
                       Guess.
    1     1.083e+01  
    2     1.956e+01  
    3     2.840e+00  
    4     1.188e+00  
    5     3.434e-01  
    6     1.578e-01  
    7     4.480e-02  
    8     7.852e-03  
    9     3.202e-03  
   10     5.555e-04  
   11     1.902e-04  
   12     3.325e-05  
   13     1.147e-05  
   14     5.384e-06  
   15     1.714e-06  
   16     1.406e-06  
   17     6.483e-07  Converged.
   ... Converged in 17 steps (norm: 6.48254e-07)
------------------------------------
  Starting TPA DIIS iterations ... 
------------------------------------ 
   It     Res. Norm  Remark
------------------------------------
                       Guess.
    1     8.618e-01  
    2     7.991e-01  
    3     3.755e-01  
    4     3.435e-01  
    5     5.672e-02  
    6     2.680e-02  
    7     6.568e-03  
    8     1.939e-03  
    9     7.685e-04  
   10     8.267e-05  
   11     3.225e-05  
   12     1.438e-05  
   13     1.643e-05  
   14     5.487e-06  
   15     2.416e-06  
   16     1.618e-06  
   17     5.912e-07  Converged.
   ... Converged in 17 steps (norm: 5.912e-07)
------------------------------------
  Starting TPA DIIS iterations ... 
------------------------------------ 
   It     Res. Norm  Remark
------------------------------------
                       Guess.
    1     1.239e+01  
    2     2.294e+01  
    3     3.225e+00  
    4     1.362e+00  
    5     3.914e-01  
    6     1.788e-01  
    7     5.152e-02  
    8     8.752e-03  
    9     3.653e-03  
   10     6.341e-04  
   11     2.172e-04  
   12     3.804e-05  
   13     1.431e-05  
   14     6.325e-06  
   15     2.756e-06  
   16     1.404e-06  
   17     4.290e-07  Converged.
   ... Converged in 17 steps (norm: 4.29035e-07)
------------------------------------
  Starting TPA DIIS iterations ... 
------------------------------------ 
   It     Res. Norm  Remark
------------------------------------
                       Guess.
    1     1.174e+01  
    2     2.175e+01  
    3     3.075e+00  
    4     1.340e+00  
    5     3.903e-01  
    6     1.809e-01  
    7     5.099e-02  
    8     8.919e-03  
    9     3.665e-03  
   10     6.351e-04  
   11     2.164e-04  
   12     3.882e-05  
   13     1.329e-05  
   14     6.662e-06  
   15     2.248e-06  
   16     1.858e-06  
   17     8.372e-07  Converged.
   ... Converged in 17 steps (norm: 8.37163e-07)
------------------------------------
  Starting TPA DIIS iterations ... 
------------------------------------ 
   It     Res. Norm  Remark
------------------------------------
                       Guess.
    1     8.757e-01  
    2     8.324e-01  
    3     3.994e-01  
    4     3.836e-01  
    5     6.272e-02  
    6     2.968e-02  
    7     7.535e-03  
    8     1.983e-03  
    9     8.429e-04  
   10     9.470e-05  
   11     3.751e-05  
   12     1.678e-05  
   13     2.000e-05  
   14     6.744e-06  
   15     3.205e-06  
   16     2.062e-06  
   17     7.776e-07  Converged.
   ... Converged in 17 steps (norm: 7.77598e-07)
------------------------------------
  Two-photon absorbption ...  CPU 71.93 s  wall 19.14 s
  Transition density matrix of state singlet_A_1 printed to ASCII file 'State_singlet_A_1_Transition.txt'
  Transition density matrix of state singlet_A_2 printed to ASCII file 'State_singlet_A_2_Transition.txt'
  Transition density matrix of state singlet_A_3 printed to ASCII file 'State_singlet_A_3_Transition.txt'
  Transition density matrix of state singlet_A_4 printed to ASCII file 'State_singlet_A_4_Transition.txt'
  Transition density matrix of state singlet_A_5 printed to ASCII file 'State_singlet_A_5_Transition.txt'
  Transition density matrix of state singlet_A_6 printed to ASCII file 'State_singlet_A_6_Transition.txt'
  Transition density matrix of state singlet_A_7 printed to ASCII file 'State_singlet_A_7_Transition.txt'
  Transition density matrix of state singlet_A_8 printed to ASCII file 'State_singlet_A_8_Transition.txt'
  Transition density matrix of state singlet_A_9 printed to ASCII file 'State_singlet_A_9_Transition.txt'
  Transition density matrix of state singlet_A_10 printed to ASCII file 'State_singlet_A_10_Transition.txt'
  Transition properties ...  CPU 0.13 s  wall 0.28 s
  Difference density matrix of state singlet_A_1 printed to ASCII file 'State_singlet_A_1_Difference.txt'
  Total density matrix of state singlet_A_1 printed to ASCII file 'State_singlet_A_1_Total.txt'
  Difference density matrix of state singlet_A_2 printed to ASCII file 'State_singlet_A_2_Difference.txt'
  Total density matrix of state singlet_A_2 printed to ASCII file 'State_singlet_A_2_Total.txt'
  Difference density matrix of state singlet_A_3 printed to ASCII file 'State_singlet_A_3_Difference.txt'
  Total density matrix of state singlet_A_3 printed to ASCII file 'State_singlet_A_3_Total.txt'
  Difference density matrix of state singlet_A_4 printed to ASCII file 'State_singlet_A_4_Difference.txt'
  Total density matrix of state singlet_A_4 printed to ASCII file 'State_singlet_A_4_Total.txt'
  Difference density matrix of state singlet_A_5 printed to ASCII file 'State_singlet_A_5_Difference.txt'
  Total density matrix of state singlet_A_5 printed to ASCII file 'State_singlet_A_5_Total.txt'
  Difference density matrix of state singlet_A_6 printed to ASCII file 'State_singlet_A_6_Difference.txt'
  Total density matrix of state singlet_A_6 printed to ASCII file 'State_singlet_A_6_Total.txt'
  Difference density matrix of state singlet_A_7 printed to ASCII file 'State_singlet_A_7_Difference.txt'
  Total density matrix of state singlet_A_7 printed to ASCII file 'State_singlet_A_7_Total.txt'
  Difference density matrix of state singlet_A_8 printed to ASCII file 'State_singlet_A_8_Difference.txt'
  Total density matrix of state singlet_A_8 printed to ASCII file 'State_singlet_A_8_Total.txt'
  Difference density matrix of state singlet_A_9 printed to ASCII file 'State_singlet_A_9_Difference.txt'
  Total density matrix of state singlet_A_9 printed to ASCII file 'State_singlet_A_9_Total.txt'
  Difference density matrix of state singlet_A_10 printed to ASCII file 'State_singlet_A_10_Difference.txt'
  Total density matrix of state singlet_A_10 printed to ASCII file 'State_singlet_A_10_Total.txt'
  Properties ...  CPU 0.25 s  wall 0.61 s
  ISR TDMS ...  CPU 12.36 s  wall 3.78 s
  ISR transition properties ...  CPU 0.20 s  wall 0.09 s
  Sum-over-states TPA ...  CPU 0.00 s  wall 0.00 s

--------------------------------------------------------------------------------
                   State-averaged natural transition orbitals
--------------------------------------------------------------------------------
--------------------------------------------------------------------------------
  SA-NTO decomposition ...  CPU 0.01 s  wall 0.02 s

--------------------------------------------------------------------------------
                             Excited State Summary
--------------------------------------------------------------------------------
--------------------------------------------------------------------------------

  Excited state 1 (singlet, A)                                     [converged]
  ----------------------------------------------------------------------------
  Term symbol:  2 (1) A                                     R^2 =  1.73801e-13

  Total energy:                                            -77.9985372153 a.u.
  Excitation energy:                                               8.737507 eV

  Osc. strength:                                                      0.445696
  Trans. dip. moment [a.u.]:           [   1.045158,   -0.994796,   -0.009339]
  <i|r^2|0> [a.u.]:                    [   6.164756,   -0.249646,   -0.000297]
  Two-photon absorption cross-section (SoS) [a.u.]:                   0.001263
  Two-photon absorption matrix (SoS) [a.u.]:
                                       |    0.009271   -0.003424   -0.000546 |
                                       |   -0.003424    0.000215   -0.000343 |
                                       |   -0.000546   -0.000343    0.007651 |
  Two-photon absorption cross-section [a.u.]:                         0.000946
  Two-photon absorption matrix [a.u.]:
                                       |    0.002178   -0.004758    0.000636 |
                                       |   -0.004758   -0.011623    0.001600 |
                                       |    0.000636    0.001600    0.006395 |

  Dip. moment [a.u.]:                  [  -0.001000,    0.000642,    0.000626]
  Total dipole [Debye]:                                               0.003414
  <r^2> [a.u.]:                        [ 176.164443,   35.653969,   11.868681]
  Total <r^2> [a.u.]:                                               223.687093

  V1^2 = 0.9715, V2^2 = 0.0285

  Important amplitudes:
      occ i     occ j     vir a      vir b          v   
    -----------------------------------------------------
     8 (A) A              9 (A) A                 0.6811
     6 (A) A             14 (A) A                -0.0623
     4 (A) A             10 (A) A                -0.0608
     7 (A) A             16 (A) A                 0.0568
     5 (A) A             13 (A) A                -0.0513
     6 (A) A             23 (A) A                -0.0487
     8 (A) A             20 (A) A                 0.0350
     6 (A) A             19 (A) A                -0.0308
     3 (A) A             12 (A) A                 0.0281
     5 (A) A             22 (A) A                 0.0215
     7 (A) A             11 (A) A                 0.0211
     4 (A) A             24 (A) A                -0.0188
     3 (A) A             26 (A) A                -0.0185
     8 (A) A   8 (A) B   17 (A) A   20 (A) B     -0.0184
     8 (A) A   8 (A) B    9 (A) A   28 (A) B     -0.0168
     6 (A) A             26 (A) A                -0.0163
     7 (A) A             21 (A) A                 0.0149
     3 (A) A             14 (A) A                -0.0139
     6 (A) A             12 (A) A                -0.0133
     3 (A) A   4 (A) B    9 (A) A    9 (A) B      0.0129
     3 (A) A             19 (A) A                -0.0119
     8 (A) A   8 (A) B   18 (A) A   19 (A) B      0.0113
     7 (A) A             32 (A) A                 0.0095
     7 (A) A             36 (A) A                 0.0086
     3 (A) A             23 (A) A                -0.0081
     8 (A) A   8 (A) B   25 (A) A   29 (A) B      0.0076
     6 (A) A             35 (A) A                -0.0071
     6 (A) A             40 (A) A                -0.0068
     3 (A) A   6 (A) B    9 (A) A   28 (A) B     -0.0065
     6 (A) A   8 (A) A   19 (A) A   28 (A) A     -0.0061
     5 (A) A   7 (A) B    9 (A) A    9 (A) B     -0.0060
     5 (A) A   8 (A) B   11 (A) A   20 (A) B     -0.0059
     7 (A) A   8 (A) B   13 (A) A   20 (A) B      0.0059
     5 (A) A   8 (A) B   16 (A) A    9 (A) B     -0.0059
     5 (A) A   8 (A) B   11 (A) A    9 (A) B      0.0058
     3 (A) A   5 (A) B    9 (A) A   25 (A) B     -0.0058
     3 (A) A             40 (A) A                -0.0057
     7 (A) A   8 (A) B   22 (A) A   20 (A) B     -0.0057
     6 (A) A   8 (A) A    9 (A) A   18 (A) A     -0.0057
     8 (A) A   8 (A) B   19 (A) A   30 (A) B      0.0056
    -----------------------------------------------------

  Density matrix analysis:
  ------------------------
  NOs
    Occupation of frontier NOs:
       0.9495   1.0217
    Number of electrons: 16.000000
    Number of unpaired electrons: n_u =  2.31345, n_u,nl =  2.03266
    NO participation ratio (PR_NO):  2.864284
  
  
  Mulliken Population Analysis
  Atom      Charge (e)              h+              e-           Del q
  --------------------------------------------------------------------
   1 H        0.058871        0.020270       -0.012548        0.007722
   2 C       -0.116032        0.490941       -0.506022       -0.015080
   3 H        0.058327        0.020145       -0.012630        0.007515
   4 C       -0.117135        0.490684       -0.506276       -0.015593
   5 H        0.057654        0.020185       -0.012561        0.007624
   6 H        0.058316        0.020332       -0.012519        0.007812
  --------------------------------------------------------------------
  Sum:       -0.000000        1.062557       -1.062557        0.000000
  
  Multipole moment analysis of the density matrix
    Molecular charge:                      -0.000000
    Number of electrons:                   16.000000
      Center of electronic charge [Ang]: [ -1.560856,  -0.065624,   0.001957]
    Total nuclear charge:                  16.000000
      Center of nuclear charge [Ang]:    [ -1.560889,  -0.065602,   0.001978]
    Dipole moment [D]:                     0.003414
      Cartesian components [D]:          [ -0.002541,   0.001633,   0.001592]
    RMS size of the density [Ang]:         1.214225
      Cartesian components [Ang]:        [  0.804314,   0.787211,   0.455762]
  
  Exciton analysis of the difference density matrix
    <r_h> [Ang]:                  [ -1.560314,  -0.065837,   0.001713]
    <r_e> [Ang]:                  [ -1.560364,  -0.065673,   0.001659]
    |<r_e - r_h>| [Ang]:            0.000180
    Hole size [Ang]:                1.285426
      Cartesian components [Ang]: [  0.728405,   0.712665,   0.783489]
    Electron size [Ang]:            1.463186
      Cartesian components [Ang]: [  0.854019,   0.830497,   0.849612]

  Transition density matrix analysis:
  -----------------------------------
  
  CT numbers (Mulliken)
    omega =     0.9535
    <Phe> =    -0.1606
  
  Exciton analysis of the transition density matrix
    Trans. dipole moment [D]:             1.833787
      Cartesian components [D]:         [  1.328263,  -1.264260,  -0.011868]
    <r_h> [Ang]:                        [ -1.560083,  -0.066000,   0.001766]
    <r_e> [Ang]:                        [ -1.560396,  -0.065663,   0.001619]
    |<r_e - r_h>| [Ang]:                  0.000483
    Hole size [Ang]:                      1.214160
      Cartesian components [Ang]:       [  0.649573,   0.636469,   0.804453]
    Electron size [Ang]:                  1.486020
      Cartesian components [Ang]:       [  0.864443,   0.839395,   0.869717]
    RMS electron-hole separation [Ang]:   1.936620
      Cartesian components [Ang]:       [  1.106698,   1.075057,   1.170457]
    Covariance(r_h, r_e) [Ang^2]:        -0.034029
    Correlation coefficient:             -0.018860
    Center-of-mass size [Ang]:            0.950576
      Cartesian components [Ang]:       [  0.527644,   0.515657,   0.599403]

  Decomposition into state-averaged NTOs
    H- 0 -> L+ 0:  0.6699 ( 89.8%)
    H- 2 -> L+ 5:  0.0837 (  1.4%)
                   omega =  95.4%
  ----------------------------------------------------------------------------


  Excited state 2 (singlet, A)                                     [converged]
  ----------------------------------------------------------------------------
  Term symbol:  3 (1) A                                     R^2 =  1.28623e-13

  Total energy:                                            -77.9868045586 a.u.
  Excitation energy:                                               9.056769 eV

  Osc. strength:                                                      0.000017
  Trans. dip. moment [a.u.]:           [   0.003659,   -0.004645,    0.006288]
  <i|r^2|0> [a.u.]:                    [  -0.042235,   -0.087798,    0.150416]
  Two-photon absorption cross-section (SoS) [a.u.]:                   4.942602
  Two-photon absorption matrix (SoS) [a.u.]:
                                       |   -0.052714   -0.058946    0.542647 |
                                       |   -0.058946   -0.065383    0.556226 |
                                       |    0.542647    0.556226    0.118074 |
  Two-photon absorption cross-section [a.u.]:                         0.076916
  Two-photon absorption matrix [a.u.]:
                                       |    0.002612    0.006927   -0.054284 |
                                       |    0.006927    0.012102   -0.080212 |
                                       |   -0.054284   -0.080212   -0.014774 |

  Dip. moment [a.u.]:                  [  -0.002655,    0.017052,    0.002061]
  Total dipole [Debye]:                                               0.044175
  <r^2> [a.u.]:                        [ 174.595918,   33.966733,   13.172200]
  Total <r^2> [a.u.]:                                               221.734851

  V1^2 = 0.9542, V2^2 = 0.0458

  Important amplitudes:
      occ i     occ j     vir a      vir b          v   
    -----------------------------------------------------
     7 (A) A              9 (A) A                 0.6690
     8 (A) A             11 (A) A                 0.1489
     7 (A) A             20 (A) A                 0.0759
     5 (A) A   8 (A) B    9 (A) A    9 (A) B     -0.0316
     8 (A) A             16 (A) A                -0.0274
     8 (A) A             21 (A) A                 0.0176
     5 (A) A             28 (A) A                -0.0150
     4 (A) A   7 (A) B    9 (A) A   19 (A) B     -0.0135
     5 (A) A   7 (A) B    9 (A) A   16 (A) B      0.0134
     8 (A) A             10 (A) A                -0.0128
     7 (A) A   8 (A) B   20 (A) A   17 (A) B     -0.0105
     7 (A) A   8 (A) A    9 (A) A   28 (A) A      0.0098
     5 (A) A   8 (A) B    9 (A) A   20 (A) B     -0.0095
     4 (A) A   6 (A) B    9 (A) A   16 (A) B      0.0091
     5 (A) A   6 (A) A    9 (A) A   23 (A) A     -0.0091
     5 (A) A   6 (A) A    9 (A) A   14 (A) A     -0.0089
     5 (A) A   6 (A) B    9 (A) A   19 (A) B     -0.0086
     8 (A) A   7 (A) B    9 (A) A   28 (A) B     -0.0085
     4 (A) A   5 (A) A    9 (A) A   10 (A) A      0.0085
     6 (A) A   7 (A) B    9 (A) A   18 (A) B     -0.0083
     5 (A) A   6 (A) B    9 (A) A   23 (A) B     -0.0080
     3 (A) A   7 (A) B    9 (A) A   18 (A) B      0.0079
     5 (A) A   7 (A) A    9 (A) A   16 (A) A      0.0079
     4 (A) A   8 (A) B    9 (A) A   25 (A) B      0.0077
     7 (A) A   8 (A) B   17 (A) A   20 (A) B     -0.0074
     4 (A) A   7 (A) B   19 (A) A    9 (A) B     -0.0074
     5 (A) A   5 (A) B    9 (A) A   13 (A) B     -0.0072
     7 (A) A   8 (A) B   19 (A) A   18 (A) B      0.0072
     5 (A) A   8 (A) A    9 (A) A   20 (A) A     -0.0069
     4 (A) A   5 (A) B    9 (A) A   18 (A) B     -0.0067
     7 (A) A   7 (A) B   20 (A) A   22 (A) B     -0.0065
     7 (A) A   8 (A) B   17 (A) A    9 (A) B     -0.0065
     5 (A) A   6 (A) B    9 (A) A   14 (A) B     -0.0063
     4 (A) A   7 (A) A    9 (A) A   19 (A) A     -0.0061
     4 (A) A   5 (A) B   10 (A) A    9 (A) B     -0.0061
     5 (A) A   7 (A) B   11 (A) A   20 (A) B     -0.0060
     4 (A) A   7 (A) B    9 (A) A   14 (A) B      0.0060
     8 (A) A             12 (A) A                 0.0058
     4 (A) A   8 (A) A    9 (A) A   25 (A) A      0.0057
     6 (A) A   7 (A) A   19 (A) A   28 (A) A     -0.0057
    -----------------------------------------------------

  Density matrix analysis:
  ------------------------
  NOs
    Occupation of frontier NOs:
       0.9573   1.0544
    Number of electrons: 16.000000
    Number of unpaired electrons: n_u =  2.35537, n_u,nl =  2.06325
    NO participation ratio (PR_NO):  3.031609
  
  
  Mulliken Population Analysis
  Atom      Charge (e)              h+              e-           Del q
  --------------------------------------------------------------------
   1 H        0.148805        0.120000       -0.022344        0.097656
   2 C       -0.301591        0.270385       -0.471024       -0.200639
   3 H        0.151601        0.127943       -0.027153        0.100790
   4 C       -0.302150        0.273551       -0.474159       -0.200607
   5 H        0.156136        0.128578       -0.022472        0.106106
   6 H        0.147198        0.123221       -0.026526        0.096695
  --------------------------------------------------------------------
  Sum:       -0.000000        1.043677       -1.043677       -0.000000
  
  Multipole moment analysis of the density matrix
    Molecular charge:                      -0.000000
    Number of electrons:                   16.000000
      Center of electronic charge [Ang]: [ -1.560801,  -0.066166,   0.001910]
    Total nuclear charge:                  16.000000
      Center of nuclear charge [Ang]:    [ -1.560889,  -0.065602,   0.001978]
    Dipole moment [D]:                     0.044175
      Cartesian components [D]:          [ -0.006748,   0.043341,   0.005239]
    RMS size of the density [Ang]:         1.200114
      Cartesian components [Ang]:        [  0.787172,   0.768180,   0.480139]
  
  Exciton analysis of the difference density matrix
    <r_h> [Ang]:                  [ -1.568037,  -0.062768,   0.001874]
    <r_e> [Ang]:                  [ -1.567248,  -0.070921,   0.001093]
    |<r_e - r_h>| [Ang]:            0.008228
    Hole size [Ang]:                1.486180
      Cartesian components [Ang]: [  0.996466,   1.004448,   0.454831]
    Electron size [Ang]:            1.477796
      Cartesian components [Ang]: [  0.881530,   0.860364,   0.816430]

  Transition density matrix analysis:
  -----------------------------------
  
  CT numbers (Mulliken)
    omega =     0.9218
    <Phe> =    -0.0121
  
  Exciton analysis of the transition density matrix
    Trans. dipole moment [D]:             0.010970
      Cartesian components [D]:         [  0.004650,  -0.005904,   0.007991]
    <r_h> [Ang]:                        [ -1.568973,  -0.061915,   0.001950]
    <r_e> [Ang]:                        [ -1.566793,  -0.071914,   0.000977]
    |<r_e - r_h>| [Ang]:                  0.010280
    Hole size [Ang]:                      1.514596
      Cartesian components [Ang]:       [  1.018628,   1.029021,   0.444427]
    Electron size [Ang]:                  1.474898
      Cartesian components [Ang]:       [  0.872286,   0.849671,   0.832166]
    RMS electron-hole separation [Ang]:   2.094324
      Cartesian components [Ang]:       [  1.325282,   1.319550,   0.942659]
    Covariance(r_h, r_e) [Ang^2]:         0.041620
    Correlation coefficient:              0.018631
    Center-of-mass size [Ang]:            1.066837
      Cartesian components [Ang]:       [  0.678344,   0.674636,   0.472077]

  Decomposition into state-averaged NTOs
    H- 1 -> L+ 0:  0.6613 ( 87.5%)
    H- 0 -> L+ 2:  0.1487 (  4.4%)
                   omega =  92.2%
  ----------------------------------------------------------------------------


  Excited state 3 (singlet, A)                                     [converged]
  ----------------------------------------------------------------------------
  Term symbol:  4 (1) A                                     R^2 =  1.82684e-13

  Total energy:                                            -77.9827777486 a.u.
  Excitation energy:                                               9.166344 eV

  Osc. strength:                                                      0.025058
  Trans. dip. moment [a.u.]:           [  -0.015457,   -0.020064,    0.333078]
  <i|r^2|0> [a.u.]:                    [  -0.091920,   -0.001002,   -0.005140]
  Two-photon absorption cross-section (SoS) [a.u.]:                   0.007660
  Two-photon absorption matrix (SoS) [a.u.]:
                                       |   -0.016999   -0.002721    0.021638 |
                                       |   -0.002721    0.012070    0.015996 |
                                       |    0.021638    0.015996   -0.000841 |
  Two-photon absorption cross-section [a.u.]:                         0.009054
  Two-photon absorption matrix [a.u.]:
                                       |   -0.015324   -0.002122    0.028051 |
                                       |   -0.002122    0.006728    0.013650 |
                                       |    0.028051    0.013650    0.001334 |

  Dip. moment [a.u.]:                  [   0.006764,    0.026470,    0.001198]
  Total dipole [Debye]:                                               0.069508
  <r^2> [a.u.]:                        [ 180.938429,   40.608214,   11.027634]
  Total <r^2> [a.u.]:                                               232.574278

  V1^2 = 0.9587, V2^2 = 0.0413

  Important amplitudes:
      occ i     occ j     vir a      vir b          v   
    -----------------------------------------------------
     8 (A) A             10 (A) A                -0.6890
     8 (A) A             24 (A) A                -0.0507
     8 (A) A             18 (A) A                 0.0313
     4 (A) A              9 (A) A                 0.0238
     8 (A) A   8 (A) B    9 (A) A   12 (A) B     -0.0219
     8 (A) A   8 (A) B   10 (A) A   17 (A) B     -0.0173
     8 (A) A             15 (A) A                -0.0171
     5 (A) A   8 (A) B   11 (A) A   10 (A) B     -0.0165
     7 (A) A   8 (A) B   13 (A) A   10 (A) B      0.0141
     7 (A) A              9 (A) A                -0.0131
     4 (A) A   8 (A) B   12 (A) A   10 (A) B      0.0111
     6 (A) A   8 (A) A   10 (A) A   15 (A) A      0.0110
     7 (A) A   8 (A) B   22 (A) A   10 (A) B     -0.0108
     6 (A) A   8 (A) B   15 (A) A   10 (A) B     -0.0107
     4 (A) A   8 (A) A   10 (A) A   12 (A) A     -0.0106
     7 (A) A   8 (A) A   10 (A) A   22 (A) A      0.0099
     7 (A) A   8 (A) A   10 (A) A   13 (A) A     -0.0097
     5 (A) A   8 (A) B   21 (A) A   10 (A) B     -0.0094
     5 (A) A   8 (A) A   10 (A) A   11 (A) A      0.0094
     6 (A) A   8 (A) A   10 (A) A   18 (A) A      0.0088
     6 (A) A   8 (A) B   10 (A) A   10 (A) B      0.0087
     7 (A) A   8 (A) A   12 (A) A   16 (A) A     -0.0082
     5 (A) A   8 (A) A   10 (A) A   21 (A) A      0.0079
     3 (A) A   4 (A) B   10 (A) A    9 (A) B     -0.0079
     4 (A) A   8 (A) B   19 (A) A   10 (A) B     -0.0075
     8 (A) A   8 (A) B    9 (A) A   23 (A) B     -0.0075
     8 (A) A   8 (A) B   10 (A) A   28 (A) B      0.0073
     3 (A) A   8 (A) B   10 (A) A   10 (A) B     -0.0072
     5 (A) A   8 (A) B   10 (A) A   11 (A) B     -0.0071
     3 (A) A   8 (A) A   10 (A) A   24 (A) A      0.0071
     7 (A) A   8 (A) B   16 (A) A   12 (A) B      0.0070
     3 (A) A   8 (A) B   10 (A) A   18 (A) B      0.0069
     8 (A) A   8 (A) B    9 (A) A   19 (A) B      0.0068
     6 (A) A   8 (A) B   18 (A) A   10 (A) B     -0.0067
     3 (A) A   6 (A) B   10 (A) A   28 (A) B      0.0062
     7 (A) A   8 (A) B   12 (A) A   11 (A) B     -0.0058
     6 (A) A             28 (A) A                -0.0057
     3 (A) A   5 (A) B   10 (A) A   25 (A) B      0.0056
     5 (A) A   8 (A) A   10 (A) A   16 (A) A     -0.0056
     3 (A) A   8 (A) A   10 (A) A   18 (A) A      0.0056
    -----------------------------------------------------

  Density matrix analysis:
  ------------------------
  NOs
    Occupation of frontier NOs:
       0.9818   0.9847
    Number of electrons: 16.000000
    Number of unpaired electrons: n_u =  2.28599, n_u,nl =  2.02456
    NO participation ratio (PR_NO):  2.693620
  
  
  Mulliken Population Analysis
  Atom      Charge (e)              h+              e-           Del q
  --------------------------------------------------------------------
   1 H       -0.161011        0.053965       -0.266126       -0.212160
   2 C        0.326670        0.538965       -0.111343        0.427621
   3 H       -0.167680        0.053609       -0.272101       -0.218491
   4 C        0.325479        0.536709       -0.109687        0.427021
   5 H       -0.159940        0.054127       -0.264097       -0.209970
   6 H       -0.163518        0.053794       -0.267815       -0.214021
  --------------------------------------------------------------------
  Sum:       -0.000000        1.291168       -1.291168        0.000000
  
  Multipole moment analysis of the density matrix
    Molecular charge:                      -0.000000
    Number of electrons:                   16.000000
      Center of electronic charge [Ang]: [ -1.561112,  -0.066478,   0.001939]
    Total nuclear charge:                  16.000000
      Center of nuclear charge [Ang]:    [ -1.560889,  -0.065602,   0.001978]
    Dipole moment [D]:                     0.069508
      Cartesian components [D]:          [  0.017192,   0.067280,   0.003045]
    RMS size of the density [Ang]:         1.276311
      Cartesian components [Ang]:        [  0.854209,   0.840415,   0.439317]
  
  Exciton analysis of the difference density matrix
    <r_h> [Ang]:                  [ -1.560006,  -0.066366,   0.001815]
    <r_e> [Ang]:                  [ -1.563228,  -0.076816,   0.001537]
    |<r_e - r_h>| [Ang]:            0.010939
    Hole size [Ang]:                1.410190
      Cartesian components [Ang]: [  0.833882,   0.819843,   0.788119]
    Electron size [Ang]:            2.075264
      Cartesian components [Ang]: [  1.372729,   1.376497,   0.726355]

  Transition density matrix analysis:
  -----------------------------------
  
  CT numbers (Mulliken)
    omega =     0.9259
    <Phe> =    -0.0109
  
  Exciton analysis of the transition density matrix
    Trans. dipole moment [D]:             0.424522
      Cartesian components [D]:         [ -0.019644,  -0.025499,   0.423300]
    <r_h> [Ang]:                        [ -1.559307,  -0.065389,   0.001766]
    <r_e> [Ang]:                        [ -1.563841,  -0.080594,   0.001414]
    |<r_e - r_h>| [Ang]:                  0.015870
    Hole size [Ang]:                      1.213053
      Cartesian components [Ang]:       [  0.636647,   0.623672,   0.822929]
    Electron size [Ang]:                  2.295079
      Cartesian components [Ang]:       [  1.516931,   1.523671,   0.802952]
    RMS electron-hole separation [Ang]:   2.586071
      Cartesian components [Ang]:       [  1.637620,   1.639450,   1.148115]
    Covariance(r_h, r_e) [Ang^2]:         0.025686
    Correlation coefficient:              0.009226
    Center-of-mass size [Ang]:            1.302906
      Cartesian components [Ang]:       [  0.826290,   0.826667,   0.575700]

  Decomposition into state-averaged NTOs
    H- 0 -> L+ 1:  0.6796 ( 92.4%)
                   omega =  92.6%
  ----------------------------------------------------------------------------


  Excited state 4 (singlet, A)                                     [converged]
  ----------------------------------------------------------------------------
  Term symbol:  5 (1) A                                     R^2 =  1.16075e-13

  Total energy:                                            -77.9583207311 a.u.
  Excitation energy:                                               9.831854 eV

  Osc. strength:                                                      0.000004
  Trans. dip. moment [a.u.]:           [   0.001382,   -0.001751,    0.003452]
  <i|r^2|0> [a.u.]:                    [   0.025976,    0.017911,   -0.036187]
  Two-photon absorption cross-section (SoS) [a.u.]:                 149.356213
  Two-photon absorption matrix (SoS) [a.u.]:
                                       |    0.290403    0.324271   -3.019583 |
                                       |    0.324271    0.358213   -3.021567 |
                                       |   -3.019583   -3.021567   -0.648543 |
  Two-photon absorption cross-section [a.u.]:                        91.857767
  Two-photon absorption matrix [a.u.]:
                                       |    0.228715    0.254318   -2.359712 |
                                       |    0.254318    0.280146   -2.377912 |
                                       |   -2.359712   -2.377912   -0.508801 |

  Dip. moment [a.u.]:                  [  -0.031856,   -0.021586,   -0.003532]
  Total dipole [Debye]:                                               0.098219
  <r^2> [a.u.]:                        [ 181.173796,   40.513082,   10.768344]
  Total <r^2> [a.u.]:                                               232.455222

  V1^2 = 0.9635, V2^2 = 0.0365

  Important amplitudes:
      occ i     occ j     vir a      vir b          v   
    -----------------------------------------------------
     8 (A) A             11 (A) A                -0.6695
     7 (A) A              9 (A) A                 0.1509
     8 (A) A             21 (A) A                -0.0780
     8 (A) A             16 (A) A                 0.0644
     8 (A) A   8 (A) B    9 (A) A   13 (A) B      0.0167
     5 (A) A   8 (A) B   11 (A) A   11 (A) B     -0.0155
     8 (A) A   8 (A) B   11 (A) A   17 (A) B     -0.0140
     7 (A) A             20 (A) A                 0.0138
     7 (A) A   8 (A) B   13 (A) A   11 (A) B      0.0127
     8 (A) A             12 (A) A                -0.0122
     5 (A) A   8 (A) A   11 (A) A   21 (A) A      0.0110
     4 (A) A   8 (A) B   12 (A) A   11 (A) B      0.0110
     8 (A) A   8 (A) B    9 (A) A   22 (A) B     -0.0107
     7 (A) A   8 (A) A   11 (A) A   22 (A) A      0.0096
     6 (A) A              9 (A) A                -0.0091
     6 (A) A   8 (A) B   15 (A) A   11 (A) B     -0.0090
     6 (A) A   8 (A) B   10 (A) A   11 (A) B      0.0090
     7 (A) A   8 (A) B   22 (A) A   11 (A) B     -0.0089
     3 (A) A   4 (A) B   11 (A) A    9 (A) B     -0.0083
     3 (A) A   8 (A) B   11 (A) A   18 (A) B      0.0081
     6 (A) A   8 (A) A   11 (A) A   15 (A) A      0.0080
     7 (A) A   8 (A) A   13 (A) A   16 (A) A      0.0078
     7 (A) A   8 (A) A   11 (A) A   13 (A) A     -0.0077
     5 (A) A   8 (A) B   21 (A) A   11 (A) B     -0.0071
     4 (A) A   8 (A) B   19 (A) A   11 (A) B     -0.0070
     5 (A) A   8 (A) B    9 (A) A    9 (A) B     -0.0068
     4 (A) A   8 (A) A   11 (A) A   12 (A) A     -0.0063
     6 (A) A   8 (A) A   11 (A) A   18 (A) A      0.0062
     3 (A) A   6 (A) B   11 (A) A   28 (A) B      0.0060
     6 (A) A   8 (A) B   18 (A) A   11 (A) B     -0.0060
     7 (A) A   8 (A) B   16 (A) A   13 (A) B     -0.0057
     3 (A) A   8 (A) A   11 (A) A   18 (A) A      0.0056
     5 (A) A   8 (A) B   10 (A) A   10 (A) B     -0.0056
     3 (A) A   8 (A) B   11 (A) A   30 (A) B      0.0055
     3 (A) A   5 (A) B   11 (A) A   25 (A) B      0.0054
     6 (A) A   8 (A) B   11 (A) A   10 (A) B      0.0054
     7 (A) A   8 (A) B   12 (A) A   10 (A) B     -0.0054
     8 (A) A   8 (A) B   20 (A) A   22 (A) B     -0.0053
     3 (A) A   8 (A) A   11 (A) A   24 (A) A      0.0053
     5 (A) A   8 (A) A   11 (A) A   16 (A) A     -0.0049
    -----------------------------------------------------

  Density matrix analysis:
  ------------------------
  NOs
    Occupation of frontier NOs:
       0.9403   1.0282
    Number of electrons: 16.000000
    Number of unpaired electrons: n_u =  2.31925, n_u,nl =  2.04942
    NO participation ratio (PR_NO):  2.917117
  
  
  Mulliken Population Analysis
  Atom      Charge (e)              h+              e-           Del q
  --------------------------------------------------------------------
   1 H       -0.150786        0.045718       -0.247652       -0.201935
   2 C        0.275101        0.497116       -0.121063        0.376053
   3 H       -0.125034        0.047099       -0.222945       -0.175846
   4 C        0.272734        0.496420       -0.122144        0.374277
   5 H       -0.133053        0.047326       -0.230409       -0.183083
   6 H       -0.138962        0.045779       -0.235245       -0.189466
  --------------------------------------------------------------------
  Sum:       -0.000000        1.179458       -1.179458        0.000000
  
  Multipole moment analysis of the density matrix
    Molecular charge:                      -0.000000
    Number of electrons:                   16.000000
      Center of electronic charge [Ang]: [ -1.559835,  -0.064888,   0.002095]
    Total nuclear charge:                  16.000000
      Center of nuclear charge [Ang]:    [ -1.560889,  -0.065602,   0.001978]
    Dipole moment [D]:                     0.098219
      Cartesian components [D]:          [ -0.080970,  -0.054866,  -0.008977]
    RMS size of the density [Ang]:         1.277137
      Cartesian components [Ang]:        [  0.858940,   0.839548,   0.434121]
  
  Exciton analysis of the difference density matrix
    <r_h> [Ang]:                  [ -1.559716,  -0.065040,   0.001885]
    <r_e> [Ang]:                  [ -1.545917,  -0.054919,   0.003702]
    |<r_e - r_h>| [Ang]:            0.017210
    Hole size [Ang]:                1.395038
      Cartesian components [Ang]: [  0.818062,   0.807485,   0.790490]
    Electron size [Ang]:            2.124199
      Cartesian components [Ang]: [  1.442436,   1.403815,   0.678898]

  Transition density matrix analysis:
  -----------------------------------
  
  CT numbers (Mulliken)
    omega =     0.9298
    <Phe> =    -0.0135
  
  Exciton analysis of the transition density matrix
    Trans. dipole moment [D]:             0.005223
      Cartesian components [D]:         [  0.001756,  -0.002226,   0.004387]
    <r_h> [Ang]:                        [ -1.560618,  -0.065646,   0.001710]
    <r_e> [Ang]:                        [ -1.543279,  -0.052719,   0.004036]
    |<r_e - r_h>| [Ang]:                  0.021752
    Hole size [Ang]:                      1.228077
      Cartesian components [Ang]:       [  0.657455,   0.651076,   0.807481]
    Electron size [Ang]:                  2.262134
      Cartesian components [Ang]:       [  1.536756,   1.495164,   0.721189]
    RMS electron-hole separation [Ang]:   2.563405
      Cartesian components [Ang]:       [  1.663031,   1.623036,   1.082186]
    Covariance(r_h, r_e) [Ang^2]:         0.027426
    Correlation coefficient:              0.009872
    Center-of-mass size [Ang]:            1.292311
      Cartesian components [Ang]:       [  0.839994,   0.819261,   0.541562]

  Decomposition into state-averaged NTOs
    H- 0 -> L+ 2: -0.6649 ( 88.4%)
    H- 1 -> L+ 0:  0.1488 (  4.4%)
                   omega =  93.0%
  ----------------------------------------------------------------------------


  Excited state 5 (singlet, A)                                     [converged]
  ----------------------------------------------------------------------------
  Term symbol:  6 (1) A                                     R^2 =  1.52820e-13

  Total energy:                                            -77.9444605063 a.u.
  Excitation energy:                                              10.209009 eV

  Osc. strength:                                                      0.000000
  Trans. dip. moment [a.u.]:           [  -0.000185,   -0.000228,   -0.000193]
  <i|r^2|0> [a.u.]:                    [  -0.089220,    0.103672,   -0.015761]
  Two-photon absorption cross-section (SoS) [a.u.]:                 172.580933
  Two-photon absorption matrix (SoS) [a.u.]:
                                       |   -0.313873   -0.039530    3.289434 |
                                       |   -0.039530    0.385082   -3.259507 |
                                       |    3.289434   -3.259507   -0.075973 |
  Two-photon absorption cross-section [a.u.]:                        75.742688
  Two-photon absorption matrix [a.u.]:
                                       |   -0.207893   -0.025338    2.162242 |
                                       |   -0.025338    0.255475   -2.176285 |
                                       |    2.162242   -2.176285   -0.053585 |

  Dip. moment [a.u.]:                  [   0.012864,   -0.017387,   -0.000160]
  Total dipole [Debye]:                                               0.054976
[...]
    16   -1.482211863593e-03
    17   -1.742247620298e-03
    18   -2.054060403272e-04
    19   -3.394605464350e-03
    20    1.142624712375e-02
    21    9.365592105799e-01
    22   -2.605780826523e-04
    23    1.398279853574e-02
    24    8.124128503106e-04
    25    7.018829035591e-02
    26   -5.225222375588e-02
    27   -1.396274961171e+00
    28    9.825515637324e-02
    29   -9.219808051320e-02
    30   -9.916067330296e-04
    31    3.868396992713e-01
    32   -3.610648887993e-01
    33   -3.799750170458e-03
    34    1.559960499687e-02
    35   -1.464363109214e-03
    36   -1.785019821490e-03
    37   -5.900360673832e-05
    38   -3.089252023344e-03
    39    9.636143651220e-03
    40    9.277223668435e-01
    41    2.607640660229e-04
    42   -1.386014559141e-02
    43   -8.249122747532e-04
    44    1.028952456797e-02
    45    9.421783660926e-01
    46    1.414137938828e-02
    47    3.782508614017e-04
    48    6.862880176294e-04
Sym=X
Ene= 0.232869
Spin=Alpha
Occup=0
     1    2.603162325427e-02
     2    1.241535316072e+00
     3   -1.440086607021e-02
     4   -3.877495771798e-03
     5   -9.035165777075e-04
     6    3.454547915529e-03
     7   -3.942830242348e-03
     8   -5.608044616742e-02
     9   -1.554651551686e-01
    10   -1.581167271745e-01
    11   -1.661836032928e-02
    12   -5.620736682019e-01
    13   -5.565918841192e-01
    14   -5.911998981674e-02
    15    5.753026024025e-04
    16   -7.326962082561e-05
    17   -6.907413571950e-05
    18   -2.149600739346e-04
    19   -3.876182134188e-04
    20   -2.497987793738e-02
    21   -1.155858621247e+00
    22   -2.478849706407e-03
    23   -1.350081408461e-02
    24   -9.128720645767e-04
    25   -2.745803323659e-03
    26    3.360411437089e-03
    27    3.709853639882e-02
    28   -1.534645126927e-01
    29   -1.591454558003e-01
    30   -1.684478448539e-02
    31   -5.464129259076e-01
    32   -5.543603459385e-01
    33   -5.932478751787e-02
    34   -4.522832104992e-04
    35    7.028507481916e-05
    36    1.446885155967e-05
    37    4.568860032674e-04
    38    3.460708947278e-04
    39    2.494694211002e-02
    40    1.157192556188e+00
    41   -2.441129835562e-03
    42   -1.366040378802e-02
    43   -9.369965845730e-04
    44   -2.616464352868e-02
    45   -1.218865224559e+00
    46   -1.419520283750e-02
    47   -3.774084177936e-03
    48   -9.003300361159e-04
Sym=X
Ene= 0.239486
Spin=Alpha
Occup=0
     1   -1.620181987432e-02
     2   -1.049907864260e+00
     3    1.655182571984e-02
     4    8.985832103765e-03
     5    1.325871371328e-03
     6   -8.650894932568e-02
     7    7.981059552945e-02
     8    1.592317333125e+00
     9    5.273274292235e-02
    10   -6.090974481173e-02
    11   -9.462335449621e-04
    12    2.086918817189e-01
    13   -2.336241674911e-01
    14   -3.219757948402e-03
    15   -2.250475459264e-02
    16    2.625593158113e-03
    17    2.941642198001e-03
    18   -3.569031614290e-04
    19    1.293935173001e-02
    20   -1.718049791649e-02
    21   -1.123179680026e+00
    22   -8.515521089838e-03
    23   -1.770411030429e-02
    24   -1.440996535858e-03
    25    8.648495033112e-02
    26   -7.920614801459e-02
    27   -1.599563081919e+00
    28    5.307017359971e-02
    29   -6.185497058334e-02
    30   -1.418848966512e-03
    31    2.078851085897e-01
    32   -2.435823077269e-01
    33   -5.666446617365e-03
    34    2.264874114224e-02
    35   -2.580530296113e-03
    36   -3.029502209373e-03
    37    8.090616796984e-04
    38   -1.283128818316e-02
    39    1.689069933906e-02
    40    1.136419625085e+00
    41   -8.625589470822e-03
    42   -1.800449506770e-02
    43   -1.498257285230e-03
    44    1.551238608266e-02
    45    1.045103621428e+00
    46    1.638726540151e-02
    47    9.271561160762e-03
    48    1.311191541192e-03
Sym=X
Ene= 0.303232
Spin=Alpha
Occup=0
     1   -2.107582504967e-02
     2    1.689077881533e+00
     3   -2.281327595329e-02
     4    2.077073538823e-04
     5   -1.073722080474e-03
     6   -3.749248615749e-04
     7    1.788151132174e-04
     8    5.935515019821e-03
     9   -1.337798622599e-01
    10   -1.391971240875e-01
    11   -1.452070258070e-02
    12   -1.147771773261e+00
    13   -1.190729486277e+00
    14   -1.247817584507e-01
    15   -2.110229913074e-04
    16   -1.637760056954e-03
    17    1.849164933157e-03
    18   -3.254291927482e-02
    19   -1.518270977961e-03
    20    1.982683868120e-02
    21   -1.688073516908e+00
    22    1.311493559355e-03
    23   -2.290182901551e-02
    24   -1.280191629965e-03
    25    2.370942442322e-04
    26    3.473275461326e-04
    27   -1.593700657738e-02
    28    1.351073361373e-01
    29    1.402374521106e-01
    30    1.480336839268e-02
    31    1.139105164955e+00
    32    1.199437056580e+00
    33    1.254213187912e-01
    34    1.729220667706e-04
    35   -1.608506396154e-03
    36    1.871042945528e-03
    37   -3.234492565283e-02
    38   -1.734954063032e-03
    39    1.941347405031e-02
    40   -1.691713967326e+00
    41   -1.630835310877e-03
    42    2.275100839248e-02
    43    1.289158073922e-03
    44   -2.005821798460e-02
    45    1.702497804666e+00
    46    2.307961645587e-02
    47   -3.205764483692e-04
    48    1.069776755682e-03
Sym=X
Ene= 0.461759
Spin=Alpha
Occup=0
     1   -1.166045623801e-01
     2   -7.136267509725e-01
     3   -1.575498855314e-02
     4   -1.052216262899e-02
     5   -1.358106748658e-03
     6    6.063595197807e-02
     7    1.792186316731e-02
     8   -3.588687608889e+00
     9    1.022334367035e-01
    10   -9.886026659547e-02
    11   -9.815454740525e-04
    12    2.423324998186e+00
    13   -2.300879299695e+00
    14   -2.093382191350e-02
    15    5.403306459651e-02
    16   -3.400981299113e-03
    17   -4.689659980603e-03
    18   -7.462109583423e-04
    19    1.765118159311e-02
    20   -1.242905852618e-01
    21   -6.954086184808e-01
    22    8.625533940491e-03
    23    1.647415429845e-02
    24    1.381163155834e-03
    25   -6.083601806252e-02
    26   -1.624251041910e-02
    27    3.586959642566e+00
    28    1.056679465021e-01
    29   -1.008199831777e-01
    30   -1.190033939249e-03
    31    2.418460824686e+00
    32   -2.293788016210e+00
    33   -2.190002821189e-02
    34   -5.255346282396e-02
    35    3.247302384034e-03
    36    4.505474587529e-03
    37    5.020253075400e-04
    38   -1.922644682709e-02
    39    1.146439707180e-01
    40    7.080497533768e-01
    41    8.468580645699e-03
    42    1.630591383432e-02
    43    1.371613887999e-03
    44    1.096031523644e-01
    45    7.182563484346e-01
    46   -1.540100894029e-02
    47   -9.859425401263e-03
    48   -1.329813618583e-03
Sym=X
Ene= 0.577262
Spin=Alpha
Occup=0
     1    2.462914325276e-01
     2    3.730140658059e-02
     3   -1.833714984934e-02
     4    2.570801469512e-02
     5    6.480673256322e-04
     6   -4.056120815087e-03
     7   -1.560389604658e-01
     8   -4.802914288105e-01
     9    2.979457398210e-01
    10   -2.887816569539e-01
    11   -3.011205154484e-03
    12   -7.056738149319e-01
    13    6.867561667315e-01
    14    7.329562464230e-03
    15   -6.358016939652e-03
    16    3.893586554635e-03
    17    3.822243967745e-03
    18   -4.908804690458e-03
    19    6.036435648288e-02
    20    2.592045256369e-01
    21    1.939739413302e-02
    22   -2.618358727943e-02
    23    1.600175553593e-02
    24   -2.967198850351e-04
    25   -5.852587527450e-03
    26   -1.570727885271e-01
    27   -3.939903283838e-01
    28   -2.961356230155e-01
    29    2.842732891466e-01
    30    2.791020289689e-03
    31    7.724781816368e-01
    32   -7.427401370310e-01
    33   -7.746106804052e-03
    34   -6.331598115587e-03
    35    3.942318492484e-03
    36    3.754405143065e-03
    37   -3.739886976056e-03
    38    6.028488507263e-02
    39    2.506482848990e-01
    40    5.326916380061e-02
    41    2.750503528057e-02
    42   -1.692892737879e-02
    43    2.835538846027e-04
    44    2.511301133892e-01
    45    5.919533509584e-02
    46    1.810887158349e-02
    47   -2.580849260538e-02
    48   -6.922096213048e-04
Sym=X
Ene= 0.615676
Spin=Alpha
Occup=0
     1   -5.244199924835e-01
     2    1.978836846116e-01
     3   -6.157567644068e-02
     4    3.758871362509e-02
     5   -7.189460606672e-04
     6   -8.179517132170e-04
     7   -5.316744294324e-04
     8   -1.631662805451e-02
     9   -4.071134053272e-02
    10   -3.697196805344e-02
    11   -4.163460262738e-03
    12    3.106329270528e-01
    13    2.694881290448e-01
    14    3.038421142413e-02
    15    2.415837623806e-03
    16   -7.632914983806e-03
    17    8.173087480603e-03
    18   -1.480229143811e-01
    19   -6.136594708892e-03
    20    5.045916539884e-01
    21   -2.063416278278e-01
    22    4.233056694544e-02
    23   -5.851630876833e-02
    24   -1.452381533874e-03
    25    4.490605963820e-04
    26   -1.554656211589e-03
    27    3.332607084471e-02
    28   -3.978831594781e-02
    29   -4.032661394404e-02
    30   -4.243698658331e-03
    31    3.068586274988e-01
    32    2.900789028008e-01
    33    3.209214775248e-02
    34   -1.565068304129e-03
    35    7.449809590592e-03
    36   -8.588418255757e-03
    37    1.497112599390e-01
    38    5.899840953874e-03
    39   -5.163652719620e-01
    40    2.076639011473e-01
    41    4.077607481380e-02
    42   -5.868016639008e-02
    43   -1.583585798329e-03
    44    5.221326258902e-01
    45   -2.037809877252e-01
    46   -6.174763113661e-02
    47    3.775702712758e-02
    48   -6.343579159095e-04
Sym=X
Ene= 0.689153
Spin=Alpha
Occup=0
     1    3.787648787895e-04
     2    6.157236145100e-05
     3    1.075685570276e-03
     4    1.266805731947e-03
     5   -2.100342332081e-02
     6    2.827916930298e-05
     7    3.677982973199e-04
     8   -9.852612004497e-05
     9    3.150765624935e-02
    10    3.975826328779e-02
    11   -6.704635355607e-01
    12   -2.911418774445e-02
    13   -3.600151929704e-02
    14    6.136449597626e-01
    15   -1.399984804050e-03
    16    8.263834179291e-02
    17   -7.826812100249e-02
    18   -8.614701070163e-03
    19   -1.104154007759e-03
    20    4.412871807817e-04
    21   -2.090045746221e-04
    22    9.180713472782e-04
    23    1.119363140726e-03
    24   -2.073162890898e-02
    25    1.483673728315e-05
    26    4.908168374765e-04
    27   -4.244741789550e-04
    28    3.194705442090e-02
    29    3.985945657664e-02
    30   -6.700632984802e-01
    31   -2.963589676264e-02
    32   -3.621329142070e-02
    33    6.131464645292e-01
    34    1.121928029986e-03
    35   -8.277228052064e-02
    36    7.848782992823e-02
    37    8.531130191520e-03
    38    1.205062540093e-03
    39    2.265113756262e-04
    40   -5.625895689432e-04
    41    1.031632786479e-03
    42    1.389159764065e-03
    43   -2.106352130920e-02
    44    1.695846729075e-04
    45   -2.988907233371e-04
    46    8.876557972296e-04
    47    1.257723675755e-03
    48   -2.105313558156e-02
Sym=X
Ene= 0.708568
Spin=Alpha
Occup=0
     1   -4.748592001941e-01
     2    1.632621374838e-01
     3   -8.096251160805e-02
     4   -4.410337768501e-02
     5   -6.467447234203e-03
     6   -4.816422848185e-02
     7   -3.192568613064e-01
     8    5.183438825121e-01
     9    2.041922571399e-01
    10   -1.936904191816e-01
    11   -2.337385818391e-03
    12   -1.111469026702e-01
    13    9.259094997384e-02
    14    5.757426819815e-04
    15    1.942123278663e-01
    16   -2.047607955721e-02
    17   -2.392782686141e-02
    18    3.245184182522e-03
    19   -7.794287809037e-02
    20   -4.806362902981e-01
    21    1.569447676446e-01
    22    4.106178878412e-02
    23    8.189347162282e-02
    24    6.751824520596e-03
    25   -4.633781433527e-02
    26   -3.215771101553e-01
    27    4.461076469811e-01
    28   -2.056847218284e-01
    29    1.925238235840e-01
    30    1.179218276061e-03
    31    5.966577757892e-02
    32   -4.533928631179e-02
    33    9.921079903847e-04
    34    1.932184241429e-01
    35   -2.038026127638e-02
    36   -2.372564477575e-02
    37    1.840129758987e-03
    38   -7.501727379220e-02
    39   -4.690299400934e-01
    40    1.306645920118e-01
    41   -4.053387100768e-02
    42   -8.051471046243e-02
    43   -6.727021792597e-03
    44   -4.730084220952e-01
    45    1.445052105872e-01
    46    8.060375426355e-02
    47    4.371567611643e-02
    48    6.425170632943e-03
Sym=X
Ene= 0.784500
Spin=Alpha
Occup=0
     1    5.235292498534e-01
     2   -4.720327217692e-01
     3    1.101161042800e-01
     4    2.567704954631e-02
     5    6.731651420659e-03
     6    9.080930799303e-02
     7   -2.175494881513e-01
     8   -6.452305135196e-01
     9    1.104495181831e-01
    10   -1.053736488635e-01
    11   -1.040161318030e-04
    12    3.265511012951e-01
    13   -3.023522926728e-01
    14   -4.148120355159e-03
    15   -2.054628359404e-01
    16    1.748808901646e-02
    17    2.160043301974e-02
    18   -1.191527006728e-03
    19    1.001160876475e-02
    20    5.354146713121e-01
    21   -4.742314994169e-01
    22   -2.038871730627e-02
    23   -1.122623743148e-01
    24   -7.572135863121e-03
    25   -9.158536948375e-02
    26    2.115779918492e-01
    27    6.701245151627e-01
    28    1.117720967832e-01
    29   -1.043763234207e-01
    30   -1.697743236698e-03
    31    3.150064568932e-01
    32   -2.941520089524e-01
    33   -8.324569563518e-04
    34    2.080858560953e-01
    35   -1.756220038586e-02
    36   -2.239015057660e-02
    37    2.683710050126e-03
    38   -9.572384948950e-03
    39   -5.447491509630e-01
    40    4.707296671635e-01
    41   -2.063297811593e-02
    42   -1.135233352268e-01
    43   -7.772502219112e-03
    44   -5.320926338838e-01
    45    4.656513352999e-01
    46    1.097494379561e-01
    47    2.711033366014e-02
    48    6.818302759378e-03
Sym=X
Ene= 0.807977
Spin=Alpha
Occup=0
     1    5.443036231762e-04
     2   -9.979606049382e-04
     3    1.804076027545e-03
     4    2.014655531474e-03
     5   -3.377607506346e-02
     6    1.076343274364e-04
     7   -3.217750607776e-04
     8   -1.296231495009e-04
     9    3.623954311819e-02
    10    4.470478551769e-02
    11   -7.629716381248e-01
    12   -5.285012510112e-02
    13   -6.658094985999e-02
    14    1.126953907720e+00
    15    6.920244358659e-04
    16   -6.524133010970e-02
    17    6.188818518869e-02
    18    6.864630162115e-03
    19    8.629813843051e-04
    20    5.420046487913e-04
    21   -2.598762923436e-04
    22    1.686914997702e-03
    23    1.917850198556e-03
    24   -3.455322006046e-02
    25   -9.838090116358e-05
    26    1.135725058460e-04
    27    2.591386409569e-04
    28   -3.607460338037e-02
    29   -4.587172106564e-02
    30    7.632953557869e-01
    31    5.398465025859e-02
    32    6.715456646762e-02
    33   -1.127066786436e+00
    34    1.317513146425e-03
    35   -6.523727794218e-02
    36    6.183108491046e-02
    37    6.664721008461e-03
    38    9.827158865171e-04
    39   -5.450187800289e-04
    40    3.124992986576e-04
    41   -1.554513456199e-03
    42   -2.216620098137e-03
    43    3.425492824076e-02
    44   -5.404181687012e-04
    45    1.044184462721e-03
    46   -1.346410203007e-03
    47   -2.009199304582e-03
    48    3.376039721825e-02
Sym=X
Ene= 0.862238
Spin=Alpha
Occup=0
     1    1.458125616510e-02
     2   -1.096044340782e+00
     3    1.484783949217e-01
     4    5.667986571919e-02
     5    1.037442097107e-02
     6    4.391975036483e-04
     7    6.036654785935e-04
     8    1.844470544886e-03
     9   -4.071396899080e-01
    10   -4.298634030091e-01
    11   -4.439197920766e-02
    12    9.494312854448e-01
    13    9.993201068400e-01
    14    1.033725013490e-01
    15   -1.502862596199e-03
    16    1.170886236634e-02
    17   -1.340857448358e-02
    18    2.346808028437e-01
    19    8.295668247478e-03
    20   -1.342421464142e-02
    21    1.104383954336e+00
    22    5.140583210451e-02
    23    1.512098531379e-01
    24    1.137325132838e-02
    25   -1.957504171040e-04
    26    3.460766283273e-03
    27   -3.929312119252e-03
    28   -4.056118863994e-01
    29   -4.300308165021e-01
    30   -4.514970650327e-02
    31    9.451634391351e-01
    32    1.004587657440e+00
    33    1.053217652082e-01
    34    5.045115978434e-04
    35   -1.175699894719e-02
    36    1.357144978018e-02
    37   -2.362426131084e-01
    38   -9.807864152960e-03
    39    1.038340992786e-02
    40   -1.101634642225e+00
    41    4.904866075331e-02
    42    1.513066891028e-01
    43    1.139757983613e-02
    44   -1.056012555413e-02
    45    1.093144662967e+00
    46    1.486806866465e-01
    47    5.573051516035e-02
    48    1.031828683136e-02
Sym=X
Ene= 0.935856
Spin=Alpha
Occup=0
     1   -1.120510597122e-01
     2    1.271524366608e+00
     3   -1.800310042827e-01
     4    6.011503606221e-03
     5   -8.202441316440e-03
     6   -2.073308409503e-04
     7   -6.606941995266e-03
     8   -4.192565115445e-05
     9    4.700233100229e-01
    10    5.017206924661e-01
    11    5.190808369767e-02
    12   -1.459770160839e+00
    13   -1.547920772412e+00
    14   -1.606381036066e-01
    15   -7.401282637133e-04
    16   -5.613814295977e-03
    17    7.011526073540e-03
    18   -1.193899465078e-01
    19    7.075631162224e-04
    20    1.176243508246e-01
    21   -1.292159496373e+00
    22    9.924102028675e-03
    23   -1.835881273514e-01
    24   -1.031185494407e-02
    25    1.579721081833e-04
    26   -1.944793509403e-03
    27    7.312734165037e-03
    28   -4.774354118135e-01
    29   -4.953689803345e-01
    30   -5.215119062504e-02
    31    1.479802367932e+00
    32    1.525718103829e+00
    33    1.610357479236e-01
    34   -8.156093034838e-04
    35   -5.962407455673e-03
    36    7.119040457930e-03
    37   -1.205228310276e-01
    38   -6.212856186420e-03
    39    1.164960305356e-01
    40   -1.278933490326e+00
    41   -1.372476417966e-02
    42    1.817624811055e-01
    43    1.022431576677e-02
    44   -1.156291628156e-01
    45    1.292564225661e+00
    46    1.822149621402e-01
    47   -5.041732102976e-03
    48    8.328797867777e-03
Sym=X
Ene= 0.972276
Spin=Alpha
Occup=0
     1   -6.387075920026e-02
     2    9.404103584610e-01
     3   -9.271517747725e-02
     4   -9.854678650167e-02
     5   -1.026288059830e-02
     6    2.549694324609e-02
     7    2.582961738776e-01
     8    5.107551841299e-01
     9    4.851881366344e-01
    10   -4.518863959458e-01
    11   -3.556487299041e-03
    12   -1.508724780239e+00
    13    1.393407883666e+00
    14    1.041334093527e-02
    15   -5.480047757279e-02
    16   -1.295094274577e-02
    17   -9.522553319286e-03
    18    1.178967233458e-02
    19   -3.029120844816e-01
    20   -6.213769110475e-02
    21    8.989759732838e-01
    22    9.588690080848e-02
    23    9.133814635629e-02
    24    9.922316764666e-03
    25   -2.517646492334e-02
    26   -2.301741641931e-01
    27   -5.574920578897e-01
    28    4.745188501393e-01
    29   -4.575705409968e-01
    30   -5.032376602966e-03
    31   -1.469775790689e+00
    32    1.426938657134e+00
    33    1.599342076352e-02
    34    5.301990398134e-02
    35    1.266811350157e-02
    36    9.676994849337e-03
    37   -1.435937133465e-02
    38    2.985544106489e-01
    39    6.098814012590e-02
    40   -9.127621554766e-01
    41    9.388423028875e-02
    42    9.286026962942e-02
    43    1.006157832240e-02
    44    6.638387621479e-02
    45   -8.974652724533e-01
    46   -8.701497857564e-02
    47   -9.748256362364e-02
    48   -9.822913558804e-03
[5D]

======= END OF MOLDEN-FORMATTED INPUT FILE =======


        *************************************************************
        *                                                           *
        *  Thank you very much for using Q-Chem.  Have a nice day.  *
        *                                                           *
        *************************************************************


