                  Welcome to Q-Chem
     A Quantum Leap Into The Future Of Chemistry


 Q-Chem 5.4 (devel), Q-Chem, Inc., Pleasanton, CA (2021)

 E. Epifanovsky,  A. T. B. Gilbert,  Xintian Feng,  Joonho Lee,  Yuezhi Mao,  
 N. Mardirossian,  P. Pokhilko,  A. White,  M. Wormit,  M. P. Coons,  
 A. L. Dempwolff,  Zhengting Gan,  D. Hait,  P. R. Horn,  L. D. Jacobson,  
 I. Kaliman,  J. Kussmann,  A. W. Lange,  Ka Un Lao,  D. S. Levine,  Jie Liu,  
 S. C. McKenzie,  A. F. Morrison,  K. Nanda,  F. Plasser,  D. R. Rehn,  
 M. L. Vidal,  Zhi-Qiang You,  Ying Zhu,  B. Alam,  B. Albrecht,  
 A. Aldossary,  E. Alguire,  J. H. Andersen,  D. Barton,  K. Begam,  A. Behn,  
 Y. A. Bernard,  E. J. Berquist,  H. Burton,  A. Carreras,  K. Carter-Fenk,  
 R. Chakraborty,  A. D. Chien,  K. D. Closser,  V. Cofer-Shabica,  
 S. Dasgupta,  Jia Deng,  M. de Wergifosse,  M. Diedenhofen,  Hainam Do,  
 S. Ehlert,  Po-Tung Fang,  S. Fatehi,  Qingguo Feng,  T. Friedhoff,  
 J. Gayvert,  Qinghui Ge,  G. Gidofalvi,  M. Goldey,  J. Gomes,  
 C. Gonzalez-Espinoza,  S. Gulania,  A. Gunina,  M. W. D. Hanson-Heine,  
 P. H. P. Harbach,  A. W. Hauser,  M. F. Herbst,  M. Hernandez Vera,  
 M. Hodecker,  Z. C. Holden,  S. Houck,  Xunkun Huang,  Kerwin Hui,  
 B. C. Huynh,  M. Ivanov,  Hyunjun Ji,  Hanjie Jiang,  B. Kaduk,  S. Kaehler,  
 K. Khistyaev,  Jaehoon Kim,  P. Klunzinger,  Z. Koczor-Benda,  
 Joong Hoon Koh,  D. Kosenkov,  L. Koulias,  T. Kowalczyk,  C. M. Krauter,  
 K. Kue,  A. Kunitsa,  T. Kus,  A. Landau,  K. V. Lawler,  D. Lefrancois,  
 S. Lehtola,  Rain Li,  Yi-Pei Li,  Jiashu Liang,  M. Liebenthal,  
 Hung-Hsuan Lin,  You-Sheng Lin,  Fenglai Liu,  Kuan-Yu Liu,  
 M. Loipersberger,  A. Luenser,  A. Manjanath,  P. Manohar,  E. Mansoor,  
 S. F. Manzer,  Shan-Ping Mao,  A. V. Marenich,  T. Markovich,  S. Mason,  
 S. A. Maurer,  P. F. McLaughlin,  M. F. S. J. Menger,  J.-M. Mewes,  
 S. A. Mewes,  P. Morgante,  J. W. Mullinax,  K. J. Oosterbaan,  G. Paran,  
 Alexander C. Paul,  Suranjan K. Paul,  F. Pavosevic,  Zheng Pei,  S. Prager,  
 E. I. Proynov,  E. Ramos,  B. Rana,  A. E. Rask,  A. Rettig,  R. M. Richard,  
 F. Rob,  E. Rossomme,  T. Scheele,  M. Scheurer,  M. Schneider,  
 N. Sergueev,  S. M. Sharada,  W. Skomorowski,  D. W. Small,  C. J. Stein,  
 Yu-Chuan Su,  E. J. Sundstrom,  Zhen Tao,  J. Thirman,  T. Tsuchimochi,  
 N. M. Tubman,  S. P. Veccham,  O. Vydrov,  J. Wenzel,  J. Witte,  A. Yamada,  
 Kun Yao,  S. Yeganeh,  S. R. Yost,  A. Zech,  Igor Ying Zhang,  Xing Zhang,  
 Yu Zhang,  D. Zuev,  A. Aspuru-Guzik,  A. T. Bell,  N. A. Besley,  
 K. B. Bravaya,  B. R. Brooks,  D. Casanova,  Jeng-Da Chai,  S. Coriani,  
 C. J. Cramer,  A. E. DePrince, III,  R. A. DiStasio Jr.,  A. Dreuw,  
 B. D. Dunietz,  T. R. Furlani,  W. A. Goddard III,  S. Grimme,  
 S. Hammes-Schiffer,  T. Head-Gordon,  W. J. Hehre,  Chao-Ping Hsu,  
 T.-C. Jagau,  Yousung Jung,  A. Klamt,  Jing Kong,  D. S. Lambrecht,  
 WanZhen Liang,  N. J. Mayhall,  C. W. McCurdy,  J. B. Neaton,  
 C. Ochsenfeld,  J. A. Parkhill,  R. Peverati,  V. A. Rassolov,  Yihan Shao,  
 L. V. Slipchenko,  T. Stauch,  R. P. Steele,  J. E. Subotnik,  
 A. J. W. Thom,  A. Tkatchenko,  D. G. Truhlar,  T. Van Voorhis,  
 T. A. Wesolowski,  K. B. Whaley,  H. L. Woodcock III,  P. M. Zimmerman,  
 S. Faraji,  P. M. W. Gill,  M. Head-Gordon,  J. M. Herbert,  A. I. Krylov

 Additional authors for Version 5.4.1: 
 S. Kotaru,  Shaozhi Li,  Xiangyuan Li,  F. Matz,  A. Molle,  Haisheng Ren,  
 Yingli Su,  Hung-Yi Tsai,  C. Utku,  Fang Wang

 Contributors to earlier versions of Q-Chem not listed above: 
 R. D. Adamson,  B. Austin,  R. Baer,  J. Baker,  G. J. O. Beran,  
 K. Brandhorst,  S. T. Brown,  E. F. C. Byrd,  A. K. Chakraborty,  
 G. K. L. Chan,  Chun-Min Chang,  Yunqing Chen,  C.-L. Cheng,  
 Siu Hung Chien,  D. M. Chipman,  D. L. Crittenden,  H. Dachsel,  
 R. J. Doerksen,  A. D. Dutoi,  R. G. Edgar,  J. Fosso-Tande,  
 L. Fusti-Molnar,  D. Ghosh,  A. Ghysels,  A. Golubeva-Zadorozhnaya,  
 J. Gonthier,  M. S. Gordon,  S. R. Gwaltney,  G. Hawkins,  J. E. Herr,  
 A. Heyden,  S. Hirata,  E. G. Hohenstein,  G. Kedziora,  F. J. Keil,  
 C. Kelley,  Jihan Kim,  R. A. King,  R. Z. Khaliullin,  P. P. Korambath,  
 W. Kurlancheek,  A. Laurent,  A. M. Lee,  M. S. Lee,  S. V. Levchenko,  
 Ching Yeh Lin,  D. Liotard,  E. Livshits,  R. C. Lochan,  I. Lotan,  
 L. A. Martinez-Martinez,  P. E. Maslen,  N. Nair,  D. P. O'Neill,  
 D. Neuhauser,  E. Neuscamman,  C. M. Oana,  R. Olivares-Amaya,  R. Olson,  
 T. M. Perrine,  B. Peters,  P. A. Pieniazek,  A. Prociuk,  Y. M. Rhee,  
 J. Ritchie,  M. A. Rohrdanz,  E. Rosta,  N. J. Russ,  H. F. Schaefer III,  
 M. W. Schmidt,  N. E. Schultz,  S. Sharma,  N. Shenvi,  C. D. Sherrill,  
 A. C. Simmonett,  A. Sodt,  T. Stein,  D. Stuck,  K. S. Thanthiriwatte,  
 V. Vanovschi,  L. Vogt,  Tao Wang,  A. Warshel,  M. A. Watson,  
 C. F. Williams,  Q. Wu,  X. Xu,  Jun Yang,  W. Zhang,  Yan Zhao

 Please cite Q-Chem as follows:
 Y. Shao et al., Mol. Phys. 113, 184-215 (2015)
 DOI: 10.1080/00268976.2014.952696

 Q-Chem 5.4.1 for Intel X86 EM64T Linux

 Parts of Q-Chem use Armadillo 9.800.1 (Horizon Scraper).
 http://arma.sourceforge.net/

 Q-Chem begins on Tue Mar 21 11:40:24 2023  

 Host: cpu186.baobab
0

     Scratch files written to /scratch/fum/qchem61717//
 Processing $rem in /home/share/wesolowski/qc5.aug2021.FDE/config/preferences:
 Processing $rem in /home/fum/.qchemrc:

 Checking the input file for inconsistencies... 	...done.

--------------------------------------------------------------
User input:
--------------------------------------------------------------
$comment
generated from CCJob.Templates
$end

$rem
sym_ignore = true
method = adc(2)
ee_states = 10
basis = cc-pVDZ
mem_static = 1024
mem_total = 40000
adc_davidson_maxiter = 900
adc_davidson_conv = 6
adc_print = 3
adc_prop_es = true
adc_prop_es2es = true
adc_prop_tpa = true
molden_format = True
state_analysis = true
print_orbitals = 15
gen_scfman = false
fde_export_density = true
fde_details = 3
$end

$molecule
0 1
H -0.021473075557406452 -0.24687616184204142 0.06353970438469429
C -1.0779973308496082 -0.5245262833619746 -0.0006516674130983863
H -1.3011216606534965 -1.592948796146325 -0.07928328341538875
C -2.0446738367504724 0.3939502304619077 0.0049009989144778035
H -1.8215884479464342 1.4623850692465001 0.08350591291301512
H -3.1012080111423836 0.11631151534210138 -0.059218363087079444                     
$end
--------------------------------------------------------------
 ----------------------------------------------------------------
             Standard Nuclear Orientation (Angstroms)
    I     Atom           X                Y                Z
 ----------------------------------------------------------------
    1      H      -0.0214730756    -0.2468761618     0.0635397044
    2      C      -1.0779973308    -0.5245262834    -0.0006516674
    3      H      -1.3011216607    -1.5929487961    -0.0792832834
    4      C      -2.0446738368     0.3939502305     0.0049009989
    5      H      -1.8215884479     1.4623850692     0.0835059129
    6      H      -3.1012080111     0.1163115153    -0.0592183631
 ----------------------------------------------------------------
 Nuclear Repulsion Energy =          33.20984274 hartrees
 There are        8 alpha and        8 beta electrons
 Requested basis set is cc-pVDZ
 There are 24 shells and 48 basis functions
 Total memory of 40000 MB is distributed as follows: 
   MEM_STATIC is set to 1024 MB
   QALLOC/CCMAN JOB total memory use is  38976 MB
 Warning: actual memory use might exceed 40000 MB

 Total QAlloc Memory Limit  40000 MB
 Mega-Array Size      1001 MB
 MEM_STATIC part      1024 MB

                       Distance Matrix (Angstroms)
             H (  1)   C (  2)   H (  3)   C (  4)   H (  5)
   C (  2)  1.094282
   H (  3)  1.862743  1.094301
   C (  4)  2.123073  1.333452  2.123140
   H (  5)  2.482416  2.123164  3.103619  1.094303
   H (  6)  3.103505  2.123084  2.482395  1.094285  1.862716

 A cutoff of  1.0D-11 yielded    300 shell pairs
 There are      1220 function pairs (      1329 Cartesian)
 Smallest overlap matrix eigenvalue = 4.81E-03

 Scale SEOQF with 1.000000e-01/1.000000e-01/1.000000e+00

 Standard Electronic Orientation quadrupole field applied
 Nucleus-field energy     =     0.0000000022 hartrees
 Guess from superposition of atomic densities
 Warning:  Energy on first SCF cycle will be non-variational
 SAD guess density has 16.000000 electrons
 A restricted Hartree-Fock SCF calculation will be
 performed using Pulay DIIS extrapolation
 SCF converges when DIIS error is below 1.0E-08
 using 10 threads for integral computing
 -------------------------------------------------------
 OpenMP Integral computing Module                
 Release: version 1.0, May 2013, Q-Chem Inc. Pittsburgh 
 -------------------------------------------------------
 ---------------------------------------
  Cycle       Energy         DIIS Error
 ---------------------------------------
    1     -78.3977610496      9.93E-02
    2     -78.0175857116      7.13E-03
    3     -78.0380514523      1.83E-03
    4     -78.0395275580      5.64E-04
    5     -78.0396451673      5.81E-05
    6     -78.0396470308      9.29E-06
    7     -78.0396470922      1.95E-06
    8     -78.0396470949      1.67E-07
    9     -78.0396470949      1.81E-08
   10     -78.0396470949      4.40E-09 Convergence criterion met
 ---------------------------------------
 SCF time:  CPU 1.97 s  wall 2.31 s
 SCF   energy in the final basis set = -78.03964709
 Total energy in the final basis set = -78.03964709
Exporting Density Matrix to file 'Densmat_SCF.txt'.
Export successful
================================================================================
|                                                                              |
|                                 A D C  M A N                                 |
|                                                                              |
 ------------------------------------------------------------------------------ 
|                                                                              |
| Components:                                                                  |
|                                                                              |
| - libvmm - 1.3-trunk                                                         |
|   Authors:                                                                   |
|   Evgeny Epifanovsky, Ilya Kaliman                                           |
|                                                                              |
| - libtensor - 2.5-trunk                                                      |
|   Authors:                                                                   |
|   Evgeny Epifanovsky, Michael Wormit, Dmitry Zuev, Sam Manzer,               |
|   Ilya Kaliman                                                               |
|                                                                              |
| - libwfa - 1.1-trunk                                                         |
|   Authors:                                                                   |
|   Felix Plasser, Stefanie Mewes (Baeppler), Benjamin Thomitzni,              |
|   Michael Wormit, Feng Chen, Anna I. Krylov, Pavel Pokhilko                  |
|                                                                              |
| - libadc - 1.1-trunk                                                         |
|   Authors:                                                                   |
|   Michael Wormit, Adrian L. Dempwolff, Philipp H. P. Harbach,                |
|   Caroline Krauter, Dirk Rehn, Matthias Schneider, Jan Wenzel                |
|                                                                              |
| - adcman - 2.6-trunk                                                         |
|   Authors:                                                                   |
|   Michael Wormit, Adrian L. Dempwolff, Philipp H. P. Harbach,                |
|   Caroline Krauter, Daniel Lefrancois, Jan-Michael Mewes, Dirk Rehn,         |
|   Matthias Schneider, Jan Wenzel, Andreas Dreuw                              |
|                                                                              |
| Authors of earlier versions of ADCMAN:                                       |
| Andreas Dreuw, Jan Hendrik Starcke, Dirk Rehn, Michael Wormit                |
|                                                                              |
================================================================================

 Created directory /scratch/fum/qchem61717/plots
  Import QC data ...  CPU 0.00 s  wall 0.00 s

 Alpha MOs, Restricted
 -- Occupied --                  
-11.239 -11.237  -1.030  -0.786  -0.635  -0.582  -0.500  -0.374
  1 A     2 A     3 A     4 A     5 A     6 A     7 A     8 A                  
 -- Virtual --                   
  0.168   0.203   0.231   0.236   0.303   0.463   0.580   0.609
  9 A    10 A    11 A    12 A    13 A    14 A    15 A    16 A                  
  0.689   0.705   0.776   0.807   0.858   0.928   0.971   1.006
 17 A    18 A    19 A    20 A    21 A    22 A    23 A    24 A                  
  1.130   1.237   1.241   1.263   1.291   1.593   1.728   1.744
 25 A    26 A    27 A    28 A    29 A    30 A    31 A    32 A                  
  1.811   1.852   1.854   1.901   1.963   1.972   2.224   2.248
 33 A    34 A    35 A    36 A    37 A    38 A    39 A    40 A                  
  2.355   2.423   2.493   2.623   2.679   2.795   3.099   3.369
 41 A    42 A    43 A    44 A    45 A    46 A    47 A    48 A                  

 Beta MOs, Restricted
 -- Occupied --                  
-11.239 -11.237  -1.030  -0.786  -0.635  -0.582  -0.500  -0.374
  1 A     2 A     3 A     4 A     5 A     6 A     7 A     8 A                  
 -- Virtual --                   
  0.168   0.203   0.231   0.236   0.303   0.463   0.580   0.609
  9 A    10 A    11 A    12 A    13 A    14 A    15 A    16 A                  
  0.689   0.705   0.776   0.807   0.858   0.928   0.971   1.006
 17 A    18 A    19 A    20 A    21 A    22 A    23 A    24 A                  
  1.130   1.237   1.241   1.263   1.291   1.593   1.728   1.744
 25 A    26 A    27 A    28 A    29 A    30 A    31 A    32 A                  
  1.811   1.852   1.854   1.901   1.963   1.972   2.224   2.248
 33 A    34 A    35 A    36 A    37 A    38 A    39 A    40 A                  
  2.355   2.423   2.493   2.623   2.679   2.795   3.099   3.369
 41 A    42 A    43 A    44 A    45 A    46 A    47 A    48 A                  
  Import AO data ...  CPU 0.00 s  wall 0.00 s
  Using point group: C1
  Irreducible representations in point group: A
  Molecular orbitals: 
  Occupied MOs:
  Block   0:   1 (  A) A   2 (  A) A   3 (  A) A   4 (  A) A   5 (  A) A
                  -11.24      -11.24       -1.03     -0.7859      -0.635
               6 (  A) A   7 (  A) A   8 (  A) A
                 -0.5823     -0.4995     -0.3744
  Block   1:   1 (  A) B   2 (  A) B   3 (  A) B   4 (  A) B   5 (  A) B
                  -11.24      -11.24       -1.03     -0.7859      -0.635
               6 (  A) B   7 (  A) B   8 (  A) B
                 -0.5823     -0.4995     -0.3744
  Virtual MOs:
  Block   0:   9 (  A) A  10 (  A) A  11 (  A) A  12 (  A) A  13 (  A) A
                  0.1679      0.2026       0.231      0.2364       0.303
              14 (  A) A  15 (  A) A  16 (  A) A  17 (  A) A  18 (  A) A
                  0.4628      0.5798      0.6089      0.6887      0.7048
              19 (  A) A  20 (  A) A  21 (  A) A  22 (  A) A
                  0.7757      0.8074      0.8584       0.928
  Block   1:  23 (  A) A  24 (  A) A  25 (  A) A  26 (  A) A  27 (  A) A
                  0.9706       1.006        1.13       1.237       1.241
              28 (  A) A  29 (  A) A  30 (  A) A  31 (  A) A  32 (  A) A
                   1.263       1.291       1.593       1.728       1.744
              33 (  A) A  34 (  A) A  35 (  A) A  36 (  A) A
                   1.811       1.852       1.854       1.901
  Block   2:  37 (  A) A  38 (  A) A  39 (  A) A  40 (  A) A  41 (  A) A
                   1.963       1.972       2.224       2.248       2.355
              42 (  A) A  43 (  A) A  44 (  A) A  45 (  A) A  46 (  A) A
                   2.423       2.493       2.623       2.679       2.795
              47 (  A) A  48 (  A) A
                   3.099       3.369
  Block   3:   9 (  A) B  10 (  A) B  11 (  A) B  12 (  A) B  13 (  A) B
                  0.1679      0.2026       0.231      0.2364       0.303
              14 (  A) B  15 (  A) B  16 (  A) B  17 (  A) B  18 (  A) B
                  0.4628      0.5798      0.6089      0.6887      0.7048
              19 (  A) B  20 (  A) B  21 (  A) B  22 (  A) B
                  0.7757      0.8074      0.8584       0.928
  Block   4:  23 (  A) B  24 (  A) B  25 (  A) B  26 (  A) B  27 (  A) B
                  0.9706       1.006        1.13       1.237       1.241
              28 (  A) B  29 (  A) B  30 (  A) B  31 (  A) B  32 (  A) B
                   1.263       1.291       1.593       1.728       1.744
              33 (  A) B  34 (  A) B  35 (  A) B  36 (  A) B
                   1.811       1.852       1.854       1.901
  Block   5:  37 (  A) B  38 (  A) B  39 (  A) B  40 (  A) B  41 (  A) B
                   1.963       1.972       2.224       2.248       2.355
              42 (  A) B  43 (  A) B  44 (  A) B  45 (  A) B  46 (  A) B
                   2.423       2.493       2.623       2.679       2.795
              47 (  A) B  48 (  A) B
                   3.099       3.369
  Import MO data ...  CPU 0.01 s  wall 0.01 s
  Import HF data ...  CPU 0.62 s  wall 0.19 s
  Import 2e integrals ...  CPU 1.31 s  wall 0.23 s

--------------------------------------------------------------------------------
                                   HF Summary                                   
--------------------------------------------------------------------------------
  Energy:                                                  -78.0396470949 a.u.
  Dip. moment [a.u.]:                  [  -0.000004,    0.000002,    0.000013]
  Total dipole [Debye]:                                               0.000034
  <r^2> [a.u.]:                        [ 175.821376,   35.299908,   11.680194]
  Total <r^2> [a.u.]:                                               222.801478
--------------------------------------------------------------------------------
  HF properties ...  CPU 0.03 s  wall 0.01 s
  MP(1) calculation ...  CPU 0.01 s  wall 0.01 s
  N^6 prerequesite intermediates ...  CPU 0.87 s  wall 0.15 s
  Difference density matrix of state mp2_gs printed to ASCII file 'State_mp2_gs_Difference.txt'
Exporting MP density matrix to file 'Densmat_MP.txt'.
Export successful
  Total density matrix of state mp2_gs printed to ASCII file 'State_mp2_gs_Total.txt'
Exporting MP density matrix to file 'Densmat_MP.txt'.
Export successful

--------------------------------------------------------------------------------
                                 MP(2) Summary                                  
--------------------------------------------------------------------------------
  MP energy contribution:                                   -0.2804898874 a.u.
  Total energy:                                            -78.3201369823 a.u.
  Dip. moment [a.u.]:                  [  -0.000004,    0.000002,    0.000012]
  Total dipole [Debye]:                                               0.000033
  <r^2> [a.u.]:                        [ 175.861585,   35.335746,   11.507768]
  Total <r^2> [a.u.]:                                               222.705098

  Density matrix analysis:
  ------------------------
  NOs
    Occupation of frontier NOs:
       0.0455   1.9380
    Number of electrons: 16.000000
    Number of unpaired electrons: n_u =  0.40725, n_u,nl =  0.04580
    NO participation ratio (PR_NO): 13.896440
  
  
  Mulliken Population Analysis
  Atom      Charge (e)              h+              e-           Del q
  --------------------------------------------------------------------
   1 H        0.054971        0.013907       -0.011309        0.002598
   2 C       -0.109946        0.094596       -0.099791       -0.005195
   3 H        0.054981        0.013907       -0.011309        0.002597
   4 C       -0.109955        0.094595       -0.099791       -0.005196
   5 H        0.054979        0.013907       -0.011309        0.002597
   6 H        0.054970        0.013907       -0.011309        0.002598
  --------------------------------------------------------------------
  Sum:       -0.000000        0.244819       -0.244819        0.000000
  
  Multipole moment analysis of the density matrix
    Molecular charge:                      0.000000
    Number of electrons:                   16.000000
      Center of electronic charge [Ang]: [ -1.561338,  -0.065287,   0.002127]
    Total nuclear charge:                  16.000000
      Center of nuclear charge [Ang]:    [ -1.561339,  -0.065287,   0.002127]
    Dipole moment [D]:                     0.000033
      Cartesian components [D]:          [ -0.000010,   0.000005,   0.000031]
    RMS size of the density [Ang]:         1.206520
      Cartesian components [Ang]:        [  0.800071,   0.783694,   0.448778]
  
  Exciton analysis of the difference density matrix
    <r_h> [Ang]:                  [ -1.561338,  -0.065287,   0.002125]
    <r_e> [Ang]:                  [ -1.561339,  -0.065286,   0.002125]
    |<r_e - r_h>| [Ang]:            0.000001
    Hole size [Ang]:                1.401655
      Cartesian components [Ang]: [  0.852982,   0.840267,   0.728703]
    Electron size [Ang]:            1.361762
      Cartesian components [Ang]: [  0.879528,   0.864316,   0.577741]
--------------------------------------------------------------------------------
  MP(2) calculation ...  CPU 0.44 s  wall 0.22 s
  Start ADC(2)-s ...  CPU 0.02 s  wall 0.01 s
  ADC(2) intermediates ...  CPU 0.04 s  wall 0.01 s
  Starting Davidson for singlet states of irrep A ... 
--------------------------------------------------------------------------------
   It NVec Conv  Avg. Norm  Max. Norm  Conv. states           Remark
--------------------------------------------------------------------------------
        10    0  1.329e-01  4.687e-01  0.4117 n n n n n n n n Guess.
    1   20    0  2.335e-02  1.125e-01  0.3261 n n n n n n n n 
    2   30    0  6.157e-03  2.461e-02  0.3213 n n n n n n n n 
    3   40    0  2.090e-03  1.049e-02  0.3209 n n n n n n n n 
    4   50    0  5.367e-04  3.450e-03  0.3209 n n n n n n n n 
    5   20    0  3.124e-04  1.665e-03  0.3209 n n n n n n n n Subspace collapsed.
    6   30    0  2.321e-04  1.616e-03  0.3209 n n n n n n n n 
    7   40    0  1.285e-04  7.766e-04  0.3209 n n n n n n n n 
    8   50    0  5.198e-05  3.349e-04  0.3209 n n n n n n n n 
    9   20    2  2.789e-05  1.919e-04  0.3209 n y n y n n n n Subspace collapsed.
   10   30    2  2.164e-05  1.767e-04  0.3209 n y n y n n n n 
   11   40    4  1.100e-05  8.860e-05  0.3209 n y y y y n n n 
   12   50    6  4.699e-06  2.884e-05  0.3209 y y y y y y n n 
   13   20    6  2.924e-06  1.937e-05  0.3209 y y y y y y n n Subspace collapsed.
   14   30    6  2.120e-06  1.395e-05  0.3209 y y y y y y n n 
   15   40    6  1.572e-06  1.144e-05  0.3209 y y y y y y n n 
   16   50    6  1.307e-06  1.127e-05  0.3209 y y y y y y n n 
   17   20    6  6.762e-07  5.704e-06  0.3209 y y y y y y n n Subspace collapsed.
   18   30    7  5.484e-07  4.654e-06  0.3209 y y y y y y n n 
   19   40    8  5.003e-07  4.667e-06  0.3209 y y y y y y y n 
   20   50    9  3.836e-07  3.666e-06  0.3209 y y y y y y y y 
   21   20    9  2.914e-07  2.812e-06  0.3209 y y y y y y y y Subspace collapsed.
   22   30    9  2.002e-07  1.940e-06  0.3209 y y y y y y y y 
   23   38    9  1.722e-07  1.684e-06  0.3209 y y y y y y y y 
   24   45    9  1.356e-07  1.336e-06  0.3209 y y y y y y y y 
   25   50    9  1.032e-07  1.020e-06  0.3209 y y y y y y y y 
   26   15   10  7.897e-08  7.820e-07  0.3209 y y y y y y y y Converged.
--------------------------------------------------------------------------------
  Davidson Summary: 
 ------------------------------------------------------------
  State  0: excitation energy =   0.3209 a.u.   (converged)
  State  1: excitation energy =   0.3290 a.u.   (converged)
  State  2: excitation energy =   0.3360 a.u.   (converged)
  State  3: excitation energy =   0.3579 a.u.   (converged)
  State  4: excitation energy =   0.3733 a.u.   (converged)
  State  5: excitation energy =   0.3866 a.u.   (converged)
  State  6: excitation energy =   0.4202 a.u.   (converged)
  State  7: excitation energy =   0.4435 a.u.   (converged)
  State  8: excitation energy =   0.4537 a.u.   (converged)
  State  9: excitation energy =   0.4585 a.u.   (converged)
 ------------------------------------------------------------

  Singlet states of irrep A ...  CPU 180.92 s  wall 57.73 s
  TDMs ...  CPU 3.23 s  wall 1.09 s
  SDMs ...  CPU 4.32 s  wall 1.38 s
  Starting TPA DIIS iterations ... 
------------------------------------ 
   It     Res. Norm  Remark
------------------------------------
                       Guess.
    1     4.395e+00  
    2     5.832e+00  
    3     1.086e+00  
    4     2.634e-01  
    5     6.572e-02  
    6     2.778e-02  
    7     8.479e-03  
    8     1.552e-03  
    9     5.832e-04  
   10     9.777e-05  
   11     3.155e-05  
   12     4.881e-06  
   13     1.646e-06  
   14     4.795e-07  Converged.
   ... Converged in 14 steps (norm: 4.79485e-07)
------------------------------------
  Starting TPA DIIS iterations ... 
------------------------------------ 
   It     Res. Norm  Remark
------------------------------------
                       Guess.
    1     4.190e+00  
    2     5.548e+00  
    3     1.037e+00  
    4     2.614e-01  
    5     6.544e-02  
    6     2.777e-02  
    7     8.333e-03  
    8     1.570e-03  
    9     5.913e-04  
   10     9.730e-05  
   11     3.183e-05  
   12     4.851e-06  
   13     1.670e-06  
   14     4.752e-07  Converged.
   ... Converged in 14 steps (norm: 4.75174e-07)
------------------------------------
  Starting TPA DIIS iterations ... 
------------------------------------ 
   It     Res. Norm  Remark
------------------------------------
                       Guess.
    1     6.844e-01  
    2     4.765e-01  
    3     1.676e-01  
    4     3.521e-02  
    5     9.904e-03  
    6     2.624e-03  
    7     1.103e-03  
    8     4.757e-04  
    9     1.269e-04  
   10     3.098e-05  
   11     5.042e-06  
   12     1.520e-06  
   13     4.847e-07  Converged.
   ... Converged in 13 steps (norm: 4.84651e-07)
------------------------------------
  Starting TPA DIIS iterations ... 
------------------------------------ 
   It     Res. Norm  Remark
------------------------------------
                       Guess.
    1     4.591e+00  
    2     6.183e+00  
    3     1.142e+00  
    4     2.834e-01  
    5     7.140e-02  
    6     3.038e-02  
    7     9.260e-03  
    8     1.694e-03  
    9     6.397e-04  
   10     1.077e-04  
   11     3.498e-05  
   12     5.444e-06  
   13     1.845e-06  
   14     5.362e-07  Converged.
   ... Converged in 14 steps (norm: 5.36186e-07)
------------------------------------
  Starting TPA DIIS iterations ... 
------------------------------------ 
   It     Res. Norm  Remark
------------------------------------
                       Guess.
    1     4.376e+00  
    2     5.882e+00  
    3     1.090e+00  
    4     2.811e-01  
    5     7.110e-02  
    6     3.038e-02  
    7     9.102e-03  
    8     1.714e-03  
    9     6.489e-04  
   10     1.072e-04  
   11     3.528e-05  
   12     5.408e-06  
   13     1.873e-06  
   14     5.311e-07  Converged.
   ... Converged in 14 steps (norm: 5.31101e-07)
------------------------------------
  Starting TPA DIIS iterations ... 
------------------------------------ 
   It     Res. Norm  Remark
------------------------------------
                       Guess.
    1     6.926e-01  
    2     4.880e-01  
    3     1.741e-01  
    4     3.711e-02  
    5     1.049e-02  
    6     3.009e-03  
    7     1.210e-03  
    8     5.262e-04  
    9     1.442e-04  
   10     3.436e-05  
   11     5.486e-06  
   12     1.690e-06  
   13     5.424e-07  Converged.
   ... Converged in 13 steps (norm: 5.42411e-07)
------------------------------------
  Starting TPA DIIS iterations ... 
------------------------------------ 
   It     Res. Norm  Remark
------------------------------------
                       Guess.
    1     4.771e+00  
    2     6.509e+00  
    3     1.193e+00  
    4     3.022e-01  
    5     7.676e-02  
    6     3.286e-02  
    7     1.000e-02  
    8     1.829e-03  
    9     6.935e-04  
   10     1.171e-04  
   11     3.828e-05  
   12     5.986e-06  
   13     2.039e-06  
   14     5.908e-07  Converged.
   ... Converged in 14 steps (norm: 5.90806e-07)
------------------------------------
  Starting TPA DIIS iterations ... 
------------------------------------ 
   It     Res. Norm  Remark
------------------------------------
                       Guess.
    1     4.547e+00  
    2     6.193e+00  
    3     1.139e+00  
    4     2.996e-01  
    5     7.645e-02  
    6     3.287e-02  
    7     9.830e-03  
    8     1.851e-03  
    9     7.036e-04  
   10     1.166e-04  
   11     3.859e-05  
   12     5.944e-06  
   13     2.070e-06  
   14     5.850e-07  Converged.
   ... Converged in 14 steps (norm: 5.84955e-07)
------------------------------------
  Starting TPA DIIS iterations ... 
------------------------------------ 
   It     Res. Norm  Remark
------------------------------------
                       Guess.
    1     6.998e-01  
    2     4.983e-01  
    3     1.800e-01  
    4     3.888e-02  
    5     1.104e-02  
    6     3.408e-03  
    7     1.299e-03  
    8     5.767e-04  
    9     1.613e-04  
   10     3.714e-05  
   11     5.899e-06  
   12     1.854e-06  
   13     5.989e-07  Converged.
   ... Converged in 13 steps (norm: 5.98877e-07)
------------------------------------
  Starting TPA DIIS iterations ... 
------------------------------------ 
   It     Res. Norm  Remark
------------------------------------
                       Guess.
    1     5.421e+00  
    2     7.719e+00  
    3     1.377e+00  
    4     3.744e-01  
    5     9.728e-02  
    6     4.242e-02  
    7     1.284e-02  
    8     2.341e-03  
    9     9.009e-04  
   10     1.537e-04  
   11     5.126e-05  
   12     8.126e-06  
   13     2.817e-06  
   14     8.079e-07  Converged.
   ... Converged in 14 steps (norm: 8.07914e-07)
------------------------------------
  Starting TPA DIIS iterations ... 
------------------------------------ 
   It     Res. Norm  Remark
------------------------------------
                       Guess.
    1     5.164e+00  
    2     7.342e+00  
    3     1.314e+00  
    4     3.705e-01  
    5     9.691e-02  
    6     4.248e-02  
    7     1.262e-02  
    8     2.374e-03  
    9     9.150e-04  
   10     1.530e-04  
   11     5.161e-05  
   12     8.058e-06  
   13     2.863e-06  
   14     7.989e-07  Converged.
   ... Converged in 14 steps (norm: 7.98864e-07)
------------------------------------
  Starting TPA DIIS iterations ... 
------------------------------------ 
   It     Res. Norm  Remark
------------------------------------
                       Guess.
    1     7.235e-01  
    2     5.334e-01  
    3     2.008e-01  
    4     4.539e-02  
    5     1.312e-02  
    6     5.225e-03  
    7     1.601e-03  
    8     7.867e-04  
    9     2.295e-04  
   10     4.408e-05  
   11     7.436e-06  
   12     2.500e-06  
   13     8.282e-07  Converged.
   ... Converged in 13 steps (norm: 8.28166e-07)
------------------------------------
  Starting TPA DIIS iterations ... 
------------------------------------ 
   It     Res. Norm  Remark
------------------------------------
                       Guess.
    1     5.971e+00  
    2     8.776e+00  
    3     1.531e+00  
    4     4.401e-01  
    5     1.159e-01  
    6     5.122e-02  
    7     1.542e-02  
    8     2.806e-03  
    9     1.092e-03  
   10     1.873e-04  
   11     6.344e-05  
   12     1.014e-05  
   13     3.566e-06  
   14     1.016e-06  
   15     3.311e-07  Converged.
   ... Converged in 15 steps (norm: 3.31094e-07)
------------------------------------
  Starting TPA DIIS iterations ... 
------------------------------------ 
   It     Res. Norm  Remark
------------------------------------
                       Guess.
    1     5.686e+00  
    2     8.347e+00  
    3     1.460e+00  
    4     4.349e-01  
    5     1.155e-01  
    6     5.134e-02  
    7     1.516e-02  
    8     2.849e-03  
    9     1.109e-03  
   10     1.865e-04  
   11     6.381e-05  
   12     1.004e-05  
   13     3.625e-06  
   14     1.004e-06  
   15     3.287e-07  Converged.
   ... Converged in 15 steps (norm: 3.28737e-07)
------------------------------------
  Starting TPA DIIS iterations ... 
------------------------------------ 
   It     Res. Norm  Remark
------------------------------------
                       Guess.
    1     7.412e-01  
    2     5.610e-01  
    3     2.176e-01  
    4     5.105e-02  
    5     1.504e-02  
    6     7.224e-03  
    7     1.897e-03  
    8     9.843e-04  
    9     2.903e-04  
   10     4.682e-05  
   11     8.819e-06  
   12     3.104e-06  
   13     1.052e-06  
   14     5.936e-07  Converged.
   ... Converged in 14 steps (norm: 5.93648e-07)
------------------------------------
  Starting TPA DIIS iterations ... 
------------------------------------ 
   It     Res. Norm  Remark
------------------------------------
                       Guess.
    1     6.521e+00  
    2     9.865e+00  
    3     1.685e+00  
    4     5.098e-01  
    5     1.357e-01  
    6     6.066e-02  
    7     1.816e-02  
    8     3.298e-03  
    9     1.296e-03  
   10     2.234e-04  
   11     7.660e-05  
   12     1.231e-05  
   13     4.386e-06  
   14     1.249e-06  
   15     4.102e-07  Converged.
   ... Converged in 15 steps (norm: 4.10224e-07)
------------------------------------
  Starting TPA DIIS iterations ... 
------------------------------------ 
   It     Res. Norm  Remark
------------------------------------
                       Guess.
    1     6.209e+00  
    2     9.382e+00  
    3     1.607e+00  
    4     5.031e-01  
    5     1.352e-01  
    6     6.084e-02  
    7     1.786e-02  
    8     3.353e-03  
    9     1.318e-03  
   10     2.224e-04  
   11     7.696e-05  
   12     1.218e-05  
   13     4.457e-06  
   14     1.233e-06  
   15     4.059e-07  Converged.
   ... Converged in 15 steps (norm: 4.05948e-07)
------------------------------------
  Starting TPA DIIS iterations ... 
------------------------------------ 
   It     Res. Norm  Remark
------------------------------------
                       Guess.
    1     7.571e-01  
    2     5.869e-01  
    3     2.340e-01  
    4     5.688e-02  
    5     1.711e-02  
    6     9.619e-03  
    7     2.252e-03  
    8     1.184e-03  
    9     3.508e-04  
   10     4.816e-05  
   11     1.031e-05  
   12     3.757e-06  
   13     1.301e-06  
   14     7.327e-07  Converged.
   ... Converged in 14 steps (norm: 7.32721e-07)
------------------------------------
  Starting TPA DIIS iterations ... 
------------------------------------ 
   It     Res. Norm  Remark
------------------------------------
                       Guess.
    1     8.342e+00  
    2     1.366e+01  
    3     2.185e+00  
    4     7.633e-01  
    5     2.077e-01  
    6     9.574e-02  
    7     2.815e-02  
    8     5.085e-03  
    9     2.051e-03  
   10     3.568e-04  
   11     1.249e-04  
   12     2.041e-05  
   13     7.415e-06  
   14     2.204e-06  
   15     7.127e-07  Converged.
   ... Converged in 15 steps (norm: 7.12707e-07)
------------------------------------
  Starting TPA DIIS iterations ... 
------------------------------------ 
   It     Res. Norm  Remark
------------------------------------
                       Guess.
    1     7.939e+00  
    2     1.299e+01  
    3     2.082e+00  
    4     7.505e-01  
    5     2.070e-01  
    6     9.622e-02  
    7     2.771e-02  
    8     5.183e-03  
    9     2.088e-03  
   10     3.551e-04  
   11     1.251e-04  
   12     2.013e-05  
   13     7.519e-06  
   14     2.162e-06  
   15     6.954e-07  Converged.
   ... Converged in 15 steps (norm: 6.95399e-07)
------------------------------------
  Starting TPA DIIS iterations ... 
------------------------------------ 
   It     Res. Norm  Remark
------------------------------------
                       Guess.
    1     8.003e-01  
    2     6.633e-01  
    3     2.845e-01  
    4     7.710e-02  
    5     2.506e-02  
    6     1.928e-02  
    7     3.719e-03  
    8     1.731e-03  
    9     5.362e-04  
   10     5.508e-05  
   11     1.604e-05  
   12     6.187e-06  
   13     2.335e-06  
   14     1.290e-06  
   15     6.345e-07  Converged.
   ... Converged in 15 steps (norm: 6.34458e-07)
------------------------------------
  Starting TPA DIIS iterations ... 
------------------------------------ 
   It     Res. Norm  Remark
------------------------------------
                       Guess.
    1     1.014e+01  
    2     1.766e+01  
    3     2.667e+00  
    4     1.041e+00  
    5     2.874e-01  
    6     1.355e-01  
    7     3.921e-02  
    8     7.052e-03  
    9     2.902e-03  
   10     5.060e-04  
   11     1.764e-04  
   12     2.966e-05  
   13     1.065e-05  
   14     3.433e-06  
   15     1.113e-06  
   16     2.728e-07  Converged.
   ... Converged in 16 steps (norm: 2.7284e-07)
------------------------------------
  Starting TPA DIIS iterations ... 
------------------------------------ 
   It     Res. Norm  Remark
------------------------------------
                       Guess.
    1     9.647e+00  
    2     1.679e+01  
    3     2.540e+00  
    4     1.021e+00  
    5     2.865e-01  
    6     1.363e-01  
    7     3.861e-02  
    8     7.202e-03  
    9     2.956e-03  
   10     5.035e-04  
   11     1.767e-04  
   12     2.921e-05  
   13     1.078e-05  
   14     3.332e-06  
   15     1.075e-06  
   16     2.308e-07  Converged.
   ... Converged in 16 steps (norm: 2.30807e-07)
------------------------------------
  Starting TPA DIIS iterations ... 
------------------------------------ 
   It     Res. Norm  Remark
------------------------------------
                       Guess.
    1     8.333e-01  
    2     7.281e-01  
    3     3.302e-01  
    4     9.866e-02  
    5     3.452e-02  
    6     2.890e-02  
    7     5.444e-03  
    8     2.032e-03  
    9     6.994e-04  
   10     7.137e-05  
   11     2.285e-05  
   12     8.906e-06  
   13     3.820e-06  
   14     2.046e-06  
   15     1.049e-06  
   16     1.265e-07  Converged.
   ... Converged in 16 steps (norm: 1.26521e-07)
------------------------------------
  Starting TPA DIIS iterations ... 
------------------------------------ 
   It     Res. Norm  Remark
------------------------------------
                       Guess.
    1     1.113e+01  
    2     1.997e+01  
    3     2.928e+00  
    4     1.204e+00  
    5     3.343e-01  
    6     1.593e-01  
    7     4.573e-02  
    8     8.210e-03  
    9     3.408e-03  
   10     5.944e-04  
   11     2.057e-04  
   12     3.534e-05  
   13     1.257e-05  
   14     4.220e-06  
   15     1.426e-06  
   16     3.570e-07  Converged.
   ... Converged in 16 steps (norm: 3.57017e-07)
------------------------------------
  Starting TPA DIIS iterations ... 
------------------------------------ 
   It     Res. Norm  Remark
------------------------------------
                       Guess.
    1     1.059e+01  
    2     1.898e+01  
    3     2.788e+00  
    4     1.178e+00  
    5     3.334e-01  
    6     1.604e-01  
    7     4.504e-02  
    8     8.392e-03  
    9     3.474e-03  
   10     5.913e-04  
   11     2.061e-04  
   12     3.480e-05  
   13     1.272e-05  
   14     4.074e-06  
   15     1.374e-06  
   16     2.894e-07  Converged.
   ... Converged in 16 steps (norm: 2.89375e-07)
------------------------------------
  Starting TPA DIIS iterations ... 
------------------------------------ 
   It     Res. Norm  Remark
------------------------------------
                       Guess.
    1     8.487e-01  
    2     7.604e-01  
    3     3.538e-01  
    4     1.113e-01  
    5     4.031e-02  
    6     3.350e-02  
    7     6.466e-03  
    8     2.121e-03  
    9     7.838e-04  
   10     8.284e-05  
   11     2.705e-05  
   12     1.052e-05  
   13     4.965e-06  
   14     2.497e-06  
   15     1.315e-06  
   16     1.591e-07  Converged.
   ... Converged in 16 steps (norm: 1.59081e-07)
------------------------------------
  Starting TPA DIIS iterations ... 
------------------------------------ 
   It     Res. Norm  Remark
------------------------------------
                       Guess.
    1     1.165e+01  
    2     2.119e+01  
    3     3.062e+00  
    4     1.290e+00  
    5     3.596e-01  
    6     1.721e-01  
    7     4.924e-02  
    8     8.831e-03  
    9     3.682e-03  
   10     6.418e-04  
   11     2.212e-04  
   12     3.848e-05  
   13     1.364e-05  
   14     4.659e-06  
   15     1.622e-06  
   16     4.067e-07  Converged.
   ... Converged in 16 steps (norm: 4.06745e-07)
------------------------------------
  Starting TPA DIIS iterations ... 
------------------------------------ 
   It     Res. Norm  Remark
------------------------------------
                       Guess.
    1     1.108e+01  
    2     2.015e+01  
    3     2.916e+00  
    4     1.262e+00  
    5     3.585e-01  
    6     1.734e-01  
    7     4.850e-02  
    8     9.031e-03  
    9     3.753e-03  
   10     6.385e-04  
   11     2.217e-04  
   12     3.788e-05  
   13     1.378e-05  
   14     4.486e-06  
   15     1.561e-06  
   16     3.232e-07  Converged.
   ... Converged in 16 steps (norm: 3.232e-07)
------------------------------------
  Starting TPA DIIS iterations ... 
------------------------------------ 
   It     Res. Norm  Remark
------------------------------------
                       Guess.
    1     8.561e-01  
    2     7.765e-01  
    3     3.657e-01  
    4     1.182e-01  
    5     4.346e-02  
    6     3.565e-02  
    7     7.011e-03  
    8     2.154e-03  
    9     8.267e-04  
   10     8.916e-05  
   11     2.936e-05  
   12     1.139e-05  
   13     5.688e-06  
   14     2.714e-06  
   15     1.471e-06  
   16     1.931e-07  Converged.
   ... Converged in 16 steps (norm: 1.93062e-07)
------------------------------------
  Two-photon absorbption ...  CPU 161.87 s  wall 45.25 s
  Transition density matrix of state singlet_A_1 printed to ASCII file 'State_singlet_A_1_Transition.txt'
  Transition density matrix of state singlet_A_2 printed to ASCII file 'State_singlet_A_2_Transition.txt'
  Transition density matrix of state singlet_A_3 printed to ASCII file 'State_singlet_A_3_Transition.txt'
  Transition density matrix of state singlet_A_4 printed to ASCII file 'State_singlet_A_4_Transition.txt'
  Transition density matrix of state singlet_A_5 printed to ASCII file 'State_singlet_A_5_Transition.txt'
  Transition density matrix of state singlet_A_6 printed to ASCII file 'State_singlet_A_6_Transition.txt'
  Transition density matrix of state singlet_A_7 printed to ASCII file 'State_singlet_A_7_Transition.txt'
  Transition density matrix of state singlet_A_8 printed to ASCII file 'State_singlet_A_8_Transition.txt'
  Transition density matrix of state singlet_A_9 printed to ASCII file 'State_singlet_A_9_Transition.txt'
  Transition density matrix of state singlet_A_10 printed to ASCII file 'State_singlet_A_10_Transition.txt'
  Transition properties ...  CPU 0.37 s  wall 0.56 s
  Difference density matrix of state singlet_A_1 printed to ASCII file 'State_singlet_A_1_Difference.txt'
  Total density matrix of state singlet_A_1 printed to ASCII file 'State_singlet_A_1_Total.txt'
  Difference density matrix of state singlet_A_2 printed to ASCII file 'State_singlet_A_2_Difference.txt'
  Total density matrix of state singlet_A_2 printed to ASCII file 'State_singlet_A_2_Total.txt'
  Difference density matrix of state singlet_A_3 printed to ASCII file 'State_singlet_A_3_Difference.txt'
  Total density matrix of state singlet_A_3 printed to ASCII file 'State_singlet_A_3_Total.txt'
  Difference density matrix of state singlet_A_4 printed to ASCII file 'State_singlet_A_4_Difference.txt'
  Total density matrix of state singlet_A_4 printed to ASCII file 'State_singlet_A_4_Total.txt'
  Difference density matrix of state singlet_A_5 printed to ASCII file 'State_singlet_A_5_Difference.txt'
  Total density matrix of state singlet_A_5 printed to ASCII file 'State_singlet_A_5_Total.txt'
  Difference density matrix of state singlet_A_6 printed to ASCII file 'State_singlet_A_6_Difference.txt'
  Total density matrix of state singlet_A_6 printed to ASCII file 'State_singlet_A_6_Total.txt'
  Difference density matrix of state singlet_A_7 printed to ASCII file 'State_singlet_A_7_Difference.txt'
  Total density matrix of state singlet_A_7 printed to ASCII file 'State_singlet_A_7_Total.txt'
  Difference density matrix of state singlet_A_8 printed to ASCII file 'State_singlet_A_8_Difference.txt'
  Total density matrix of state singlet_A_8 printed to ASCII file 'State_singlet_A_8_Total.txt'
  Difference density matrix of state singlet_A_9 printed to ASCII file 'State_singlet_A_9_Difference.txt'
  Total density matrix of state singlet_A_9 printed to ASCII file 'State_singlet_A_9_Total.txt'
  Difference density matrix of state singlet_A_10 printed to ASCII file 'State_singlet_A_10_Difference.txt'
  Total density matrix of state singlet_A_10 printed to ASCII file 'State_singlet_A_10_Total.txt'
  Properties ...  CPU 0.75 s  wall 0.93 s
  ISR TDMS ...  CPU 29.75 s  wall 9.64 s
  ISR transition properties ...  CPU 0.67 s  wall 0.29 s
  Sum-over-states TPA ...  CPU 0.00 s  wall 0.00 s

--------------------------------------------------------------------------------
                   State-averaged natural transition orbitals
--------------------------------------------------------------------------------
--------------------------------------------------------------------------------
  SA-NTO decomposition ...  CPU 0.02 s  wall 0.04 s

--------------------------------------------------------------------------------
                             Excited State Summary
--------------------------------------------------------------------------------
--------------------------------------------------------------------------------

  Excited state 1 (singlet, A)                                     [converged]
  ----------------------------------------------------------------------------
  Term symbol:  2 (1) A                                     R^2 =  5.74833e-13

  Total energy:                                            -77.9992532400 a.u.
  Excitation energy:                                               8.731691 eV

  Osc. strength:                                                      0.446166
  Trans. dip. moment [a.u.]:           [   1.046925,   -0.994768,   -0.005388]
  <i|r^2|0> [a.u.]:                    [   6.177865,   -0.245498,    0.000121]
  Two-photon absorption cross-section (SoS) [a.u.]:                   0.000000
  Two-photon absorption matrix (SoS) [a.u.]:
                                       |    0.000020   -0.000006    0.000034 |
                                       |   -0.000006    0.000024    0.000062 |
                                       |    0.000034    0.000062    0.000029 |
  Two-photon absorption cross-section [a.u.]:                         0.000001
  Two-photon absorption matrix [a.u.]:
                                       |    0.000001    0.000016   -0.000248 |
                                       |    0.000016    0.000014   -0.000212 |
                                       |   -0.000248   -0.000212   -0.000040 |

  Dip. moment [a.u.]:                  [  -0.000003,    0.000001,    0.000015]
  Total dipole [Debye]:                                               0.000039
  <r^2> [a.u.]:                        [ 176.608658,   36.022506,   11.918633]
  Total <r^2> [a.u.]:                                               224.549797

  V1^2 = 0.9713, V2^2 = 0.0287

  Important amplitudes:
      occ i     occ j     vir a      vir b          v   
    -----------------------------------------------------
     8 (A) A              9 (A) A                 0.6809
     6 (A) A             14 (A) A                -0.0617
     4 (A) A             10 (A) A                 0.0614
     7 (A) A             16 (A) A                -0.0575
     5 (A) A             13 (A) A                -0.0527
     6 (A) A             23 (A) A                -0.0485
     8 (A) A             20 (A) A                 0.0348
     6 (A) A             19 (A) A                -0.0302
     3 (A) A             12 (A) A                -0.0285
     5 (A) A             22 (A) A                 0.0218
     4 (A) A             24 (A) A                 0.0188
     3 (A) A             26 (A) A                 0.0187
     7 (A) A             11 (A) A                 0.0186
     8 (A) A   8 (A) B   17 (A) A   20 (A) B     -0.0184
     8 (A) A   8 (A) B    9 (A) A   28 (A) B     -0.0168
     6 (A) A             26 (A) A                 0.0163
     7 (A) A             21 (A) A                -0.0152
     3 (A) A             14 (A) A                -0.0143
     6 (A) A             12 (A) A                 0.0136
     3 (A) A   4 (A) B    9 (A) A    9 (A) B     -0.0129
     3 (A) A             19 (A) A                -0.0121
     8 (A) A   8 (A) B   18 (A) A   19 (A) B      0.0111
     7 (A) A             32 (A) A                -0.0097
     7 (A) A             36 (A) A                -0.0086
     3 (A) A             23 (A) A                -0.0082
     8 (A) A   8 (A) B   25 (A) A   29 (A) B     -0.0076
     6 (A) A             35 (A) A                 0.0072
     6 (A) A             40 (A) A                -0.0067
     3 (A) A   6 (A) B    9 (A) A   28 (A) B     -0.0065
     5 (A) A   8 (A) B   11 (A) A    9 (A) B     -0.0062
     7 (A) A   8 (A) B   13 (A) A   20 (A) B     -0.0060
     5 (A) A   8 (A) B   11 (A) A   20 (A) B      0.0060
     5 (A) A   7 (A) B    9 (A) A    9 (A) B      0.0060
     5 (A) A             27 (A) A                -0.0060
     6 (A) A   8 (A) A   19 (A) A   28 (A) A     -0.0060
     5 (A) A   8 (A) B   16 (A) A    9 (A) B     -0.0059
     3 (A) A   5 (A) B    9 (A) A   25 (A) B     -0.0058
     7 (A) A   8 (A) B   22 (A) A   20 (A) B      0.0057
     3 (A) A             40 (A) A                -0.0056
     8 (A) A   8 (A) B   19 (A) A   30 (A) B      0.0056
    -----------------------------------------------------

  Density matrix analysis:
  ------------------------
  NOs
    Occupation of frontier NOs:
       0.9491   1.0219
    Number of electrons: 16.000000
    Number of unpaired electrons: n_u =  2.31679, n_u,nl =  2.03329
    NO participation ratio (PR_NO):  2.874036
  
  
  Mulliken Population Analysis
  Atom      Charge (e)              h+              e-           Del q
  --------------------------------------------------------------------
   1 H        0.062973        0.020442       -0.012440        0.008001
   2 C       -0.125949        0.490665       -0.506668       -0.016003
   3 H        0.062983        0.020442       -0.012439        0.008003
   4 C       -0.125961        0.490664       -0.506670       -0.016005
   5 H        0.062983        0.020443       -0.012440        0.008004
   6 H        0.062971        0.020441       -0.012440        0.008001
  --------------------------------------------------------------------
  Sum:       -0.000000        1.063098       -1.063098        0.000000
  
  Multipole moment analysis of the density matrix
    Molecular charge:                      -0.000000
    Number of electrons:                   16.000000
      Center of electronic charge [Ang]: [ -1.561339,  -0.065287,   0.002127]
    Total nuclear charge:                  16.000000
      Center of nuclear charge [Ang]:    [ -1.561339,  -0.065287,   0.002127]
    Dipole moment [D]:                     0.000039
      Cartesian components [D]:          [ -0.000007,   0.000002,   0.000038]
    RMS size of the density [Ang]:         1.219827
      Cartesian components [Ang]:        [  0.808201,   0.791325,   0.456720]
  
  Exciton analysis of the difference density matrix
    <r_h> [Ang]:                  [ -1.561335,  -0.065287,   0.002121]
    <r_e> [Ang]:                  [ -1.561336,  -0.065286,   0.002120]
    |<r_e - r_h>| [Ang]:            0.000002
    Hole size [Ang]:                1.287314
      Cartesian components [Ang]: [  0.730137,   0.714875,   0.782962]
    Electron size [Ang]:            1.463927
      Cartesian components [Ang]: [  0.854332,   0.831832,   0.849267]

  Transition density matrix analysis:
  -----------------------------------
  
  CT numbers (Mulliken)
    omega =     0.9532
    <Phe> =    -0.1603
  
  Exciton analysis of the transition density matrix
    Trans. dipole moment [D]:             1.835365
      Cartesian components [D]:         [  1.330509,  -1.264224,  -0.006847]
    <r_h> [Ang]:                        [ -1.561335,  -0.065288,   0.002122]
    <r_e> [Ang]:                        [ -1.561336,  -0.065286,   0.002119]
    |<r_e - r_h>| [Ang]:                  0.000004
    Hole size [Ang]:                      1.214406
      Cartesian components [Ang]:       [  0.649876,   0.637115,   0.804070]
    Electron size [Ang]:                  1.486831
      Cartesian components [Ang]:       [  0.864787,   0.840730,   0.869474]
    RMS electron-hole separation [Ang]:   1.937237
      Cartesian components [Ang]:       [  1.106699,   1.076507,   1.170144]
    Covariance(r_h, r_e) [Ang^2]:        -0.033718
    Correlation coefficient:             -0.018674
    Center-of-mass size [Ang]:            0.951054
      Cartesian components [Ang]:       [  0.528112,   0.516386,   0.599122]

  Decomposition into state-averaged NTOs
    H- 0 -> L+ 0:  0.6696 ( 89.7%)
    H- 2 -> L+ 5: -0.0830 (  1.4%)
                   omega =  95.3%
  ----------------------------------------------------------------------------


  Excited state 2 (singlet, A)                                     [converged]
  ----------------------------------------------------------------------------
  Term symbol:  3 (1) A                                     R^2 =  6.27433e-13

  Total energy:                                            -77.9911473299 a.u.
  Excitation energy:                                               8.952264 eV

  Osc. strength:                                                      0.000000
  Trans. dip. moment [a.u.]:           [   0.000544,   -0.000503,   -0.000010]
  <i|r^2|0> [a.u.]:                    [   0.079975,    0.075897,   -0.152786]
  Two-photon absorption cross-section (SoS) [a.u.]:                   4.564691
  Two-photon absorption matrix (SoS) [a.u.]:
                                       |    0.065937    0.058210   -0.513449 |
                                       |    0.058210    0.049458   -0.541763 |
                                       |   -0.513449   -0.541763   -0.115448 |
  Two-photon absorption cross-section [a.u.]:                         0.193219
  Two-photon absorption matrix [a.u.]:
                                       |    0.040901   -0.008578    0.102672 |
                                       |   -0.008578   -0.063303    0.102208 |
                                       |    0.102672    0.102208    0.022397 |

  Dip. moment [a.u.]:                  [  -0.000043,    0.000059,    0.000030]
  Total dipole [Debye]:                                               0.000200
  <r^2> [a.u.]:                        [ 174.942854,   34.369396,   13.214675]
  Total <r^2> [a.u.]:                                               222.526925

  V1^2 = 0.9541, V2^2 = 0.0459

  Important amplitudes:
      occ i     occ j     vir a      vir b          v   
    -----------------------------------------------------
     7 (A) A              9 (A) A                 0.6685
     8 (A) A             11 (A) A                 0.1513
     7 (A) A             20 (A) A                 0.0756
     5 (A) A   8 (A) B    9 (A) A    9 (A) B      0.0315
     8 (A) A             16 (A) A                 0.0281
     8 (A) A             21 (A) A                -0.0178
     5 (A) A             28 (A) A                 0.0150
     4 (A) A   7 (A) B    9 (A) A   19 (A) B      0.0136
     5 (A) A   7 (A) B    9 (A) A   16 (A) B      0.0134
     7 (A) A   8 (A) B   20 (A) A   17 (A) B     -0.0106
     7 (A) A   8 (A) A    9 (A) A   28 (A) A      0.0098
     5 (A) A   8 (A) B    9 (A) A   20 (A) B      0.0094
     4 (A) A   6 (A) B    9 (A) A   16 (A) B      0.0091
     5 (A) A   6 (A) A    9 (A) A   23 (A) A      0.0090
     5 (A) A   6 (A) A    9 (A) A   14 (A) A      0.0089
     5 (A) A   6 (A) B    9 (A) A   19 (A) B      0.0086
     8 (A) A   7 (A) B    9 (A) A   28 (A) B     -0.0085
     6 (A) A   7 (A) B    9 (A) A   18 (A) B     -0.0085
     4 (A) A   5 (A) A    9 (A) A   10 (A) A      0.0085
     5 (A) A   6 (A) B    9 (A) A   23 (A) B      0.0080
     3 (A) A   7 (A) B    9 (A) A   18 (A) B      0.0080
     5 (A) A   7 (A) A    9 (A) A   16 (A) A      0.0078
     4 (A) A   8 (A) B    9 (A) A   25 (A) B      0.0076
     4 (A) A   7 (A) B   19 (A) A    9 (A) B      0.0075
     7 (A) A   8 (A) B   17 (A) A   20 (A) B     -0.0074
     5 (A) A   5 (A) B    9 (A) A   13 (A) B      0.0073
     7 (A) A   8 (A) B   19 (A) A   18 (A) B      0.0071
     4 (A) A   5 (A) B    9 (A) A   18 (A) B     -0.0069
     5 (A) A   8 (A) A    9 (A) A   20 (A) A      0.0068
     7 (A) A   7 (A) B   20 (A) A   22 (A) B      0.0066
     7 (A) A   8 (A) B   17 (A) A    9 (A) B     -0.0065
     5 (A) A   6 (A) B    9 (A) A   14 (A) B      0.0063
     5 (A) A   7 (A) B   11 (A) A   20 (A) B      0.0062
     4 (A) A   5 (A) B   10 (A) A    9 (A) B     -0.0061
     4 (A) A   7 (A) A    9 (A) A   19 (A) A      0.0061
     5 (A) A             38 (A) A                 0.0060
     4 (A) A   6 (A) B   16 (A) A    9 (A) B      0.0058
     4 (A) A   8 (A) A    9 (A) A   25 (A) A      0.0056
     6 (A) A   7 (A) A   19 (A) A   28 (A) A     -0.0056
     5 (A) A   7 (A) A   11 (A) A   20 (A) A      0.0054
    -----------------------------------------------------

  Density matrix analysis:
  ------------------------
  NOs
    Occupation of frontier NOs:
       0.9560   1.0553
    Number of electrons: 16.000000
    Number of unpaired electrons: n_u =  2.35843, n_u,nl =  2.06488
    NO participation ratio (PR_NO):  3.045171
  
  
  Mulliken Population Analysis
  Atom      Charge (e)              h+              e-           Del q
  --------------------------------------------------------------------
   1 H        0.155101        0.124918       -0.024789        0.100129
   2 C       -0.310173        0.272574       -0.472802       -0.200227
   3 H        0.155066        0.124883       -0.024798        0.100085
   4 C       -0.310180        0.272593       -0.472818       -0.200225
   5 H        0.155080        0.124891       -0.024791        0.100101
   6 H        0.155107        0.124932       -0.024795        0.100137
  --------------------------------------------------------------------
  Sum:       -0.000000        1.044792       -1.044792        0.000000
  
  Multipole moment analysis of the density matrix
    Molecular charge:                      -0.000000
    Number of electrons:                   16.000000
      Center of electronic charge [Ang]: [ -1.561337,  -0.065288,   0.002127]
    Total nuclear charge:                  16.000000
      Center of nuclear charge [Ang]:    [ -1.561339,  -0.065287,   0.002127]
    Dipole moment [D]:                     0.000200
      Cartesian components [D]:          [ -0.000110,   0.000149,   0.000076]
    RMS size of the density [Ang]:         1.205229
      Cartesian components [Ang]:        [  0.789961,   0.772828,   0.480911]
  
  Exciton analysis of the difference density matrix
    <r_h> [Ang]:                  [ -1.561371,  -0.065263,   0.002129]
    <r_e> [Ang]:                  [ -1.561352,  -0.065291,   0.002120]
    |<r_e - r_h>| [Ang]:            0.000036
    Hole size [Ang]:                1.496151
      Cartesian components [Ang]: [  1.013936,   1.001234,   0.455995]
    Electron size [Ang]:            1.480126
      Cartesian components [Ang]: [  0.884243,   0.862243,   0.815734]

  Transition density matrix analysis:
  -----------------------------------
  
  CT numbers (Mulliken)
    omega =     0.9214
    <Phe> =    -0.0114
  
  Exciton analysis of the transition density matrix
    Trans. dipole moment [D]:             0.000942
      Cartesian components [D]:         [  0.000691,  -0.000640,  -0.000012]
    <r_h> [Ang]:                        [ -1.561377,  -0.065258,   0.002131]
    <r_e> [Ang]:                        [ -1.561348,  -0.065295,   0.002118]
    |<r_e - r_h>| [Ang]:                  0.000049
    Hole size [Ang]:                      1.527105
      Cartesian components [Ang]:       [  1.038760,   1.026004,   0.447597]
    Electron size [Ang]:                  1.475535
      Cartesian components [Ang]:       [  0.873156,   0.850441,   0.831595]
    RMS electron-hole separation [Ang]:   2.103526
      Cartesian components [Ang]:       [  1.340970,   1.317644,   0.943630]
    Covariance(r_h, r_e) [Ang^2]:         0.042215
    Correlation coefficient:              0.018735
    Center-of-mass size [Ang]:            1.071644
      Cartesian components [Ang]:       [  0.686413,   0.673736,   0.472586]

  Decomposition into state-averaged NTOs
    H- 1 -> L+ 0:  0.6608 ( 87.3%)
    H- 0 -> L+ 2:  0.1512 (  4.6%)
                   omega =  92.1%
  ----------------------------------------------------------------------------


  Excited state 3 (singlet, A)                                     [converged]
  ----------------------------------------------------------------------------
  Term symbol:  4 (1) A                                     R^2 =  5.94116e-13

  Total energy:                                            -77.9841850889 a.u.
  Excitation energy:                                               9.141716 eV

  Osc. strength:                                                      0.023629
  Trans. dip. moment [a.u.]:           [  -0.006228,   -0.028394,    0.323507]
  <i|r^2|0> [a.u.]:                    [  -0.036529,   -0.007205,   -0.002609]
  Two-photon absorption cross-section (SoS) [a.u.]:                   0.000016
  Two-photon absorption matrix (SoS) [a.u.]:
                                       |    0.001369    0.000071    0.000145 |
                                       |    0.000071   -0.001418   -0.000039 |
                                       |    0.000145   -0.000039   -0.000101 |
  Two-photon absorption cross-section [a.u.]:                         0.000008
  Two-photon absorption matrix [a.u.]:
                                       |    0.000942    0.000069    0.000132 |
                                       |    0.000069   -0.001073   -0.000040 |
                                       |    0.000132   -0.000040   -0.000059 |

  Dip. moment [a.u.]:                  [   0.000030,    0.000048,   -0.000012]
  Total dipole [Debye]:                                               0.000148
  <r^2> [a.u.]:                        [ 181.386159,   41.010579,   11.057297]
  Total <r^2> [a.u.]:                                               233.454035

  V1^2 = 0.9580, V2^2 = 0.0420

  Important amplitudes:
      occ i     occ j     vir a      vir b          v   
    -----------------------------------------------------
     8 (A) A             10 (A) A                -0.6887
     8 (A) A             24 (A) A                -0.0508
     8 (A) A             18 (A) A                 0.0332
     4 (A) A              9 (A) A                -0.0247
     8 (A) A   8 (A) B    9 (A) A   12 (A) B      0.0223
     8 (A) A   8 (A) B   10 (A) A   17 (A) B     -0.0172
     5 (A) A   8 (A) B   11 (A) A   10 (A) B      0.0169
     8 (A) A             15 (A) A                -0.0149
     7 (A) A   8 (A) B   13 (A) A   10 (A) B     -0.0143
     4 (A) A   8 (A) B   12 (A) A   10 (A) B      0.0113
     6 (A) A   8 (A) A   10 (A) A   15 (A) A      0.0112
     7 (A) A   8 (A) B   22 (A) A   10 (A) B      0.0109
     6 (A) A   8 (A) B   15 (A) A   10 (A) B     -0.0109
     4 (A) A   8 (A) A   10 (A) A   12 (A) A     -0.0108
     7 (A) A   8 (A) A   10 (A) A   22 (A) A     -0.0099
     7 (A) A   8 (A) A   10 (A) A   13 (A) A      0.0098
     5 (A) A   8 (A) A   10 (A) A   11 (A) A     -0.0097
     5 (A) A   8 (A) B   21 (A) A   10 (A) B     -0.0094
     6 (A) A   8 (A) B   10 (A) A   10 (A) B      0.0090
     6 (A) A   8 (A) A   10 (A) A   18 (A) A      0.0086
     7 (A) A   8 (A) A   12 (A) A   16 (A) A     -0.0084
     3 (A) A   4 (A) B   10 (A) A    9 (A) B      0.0080
     5 (A) A   8 (A) A   10 (A) A   21 (A) A      0.0079
     4 (A) A   8 (A) B   19 (A) A   10 (A) B      0.0076
     8 (A) A   8 (A) B    9 (A) A   23 (A) B     -0.0075
     8 (A) A   8 (A) B   10 (A) A   28 (A) B      0.0074
     5 (A) A   8 (A) B   10 (A) A   11 (A) B      0.0072
     7 (A) A   8 (A) B   16 (A) A   12 (A) B      0.0072
     3 (A) A   8 (A) A   10 (A) A   24 (A) A      0.0072
     3 (A) A   8 (A) B   10 (A) A   10 (A) B     -0.0071
     8 (A) A   8 (A) B    9 (A) A   19 (A) B      0.0070
     3 (A) A   8 (A) B   10 (A) A   18 (A) B      0.0068
     6 (A) A   8 (A) B   18 (A) A   10 (A) B     -0.0065
     3 (A) A   6 (A) B   10 (A) A   28 (A) B      0.0062
     7 (A) A   8 (A) B   12 (A) A   11 (A) B      0.0059
     6 (A) A             28 (A) A                -0.0058
     5 (A) A   8 (A) A   10 (A) A   16 (A) A     -0.0057
     3 (A) A   5 (A) B   10 (A) A   25 (A) B      0.0056
     6 (A) A   8 (A) A   11 (A) A   16 (A) A     -0.0055
     4 (A) A   8 (A) A   10 (A) A   23 (A) A      0.0055
    -----------------------------------------------------

  Density matrix analysis:
  ------------------------
  NOs
    Occupation of frontier NOs:
       0.9812   0.9847
    Number of electrons: 16.000000
    Number of unpaired electrons: n_u =  2.28864, n_u,nl =  2.02504
    NO participation ratio (PR_NO):  2.701214
  
  
  Mulliken Population Analysis
  Atom      Charge (e)              h+              e-           Del q
  --------------------------------------------------------------------
   1 H       -0.155072        0.054350       -0.264394       -0.210043
   2 C        0.310139        0.538084       -0.117998        0.420085
   3 H       -0.155067        0.054351       -0.264399       -0.210047
   4 C        0.310131        0.538079       -0.117994        0.420086
   5 H       -0.155051        0.054352       -0.264382       -0.210030
   6 H       -0.155081        0.054351       -0.264401       -0.210051
  --------------------------------------------------------------------
  Sum:       -0.000000        1.293568       -1.293568        0.000000
  
  Multipole moment analysis of the density matrix
    Molecular charge:                      -0.000000
    Number of electrons:                   16.000000
      Center of electronic charge [Ang]: [ -1.561340,  -0.065288,   0.002128]
    Total nuclear charge:                  16.000000
      Center of nuclear charge [Ang]:    [ -1.561339,  -0.065287,   0.002127]
    Dipole moment [D]:                     0.000148
      Cartesian components [D]:          [  0.000077,   0.000123,  -0.000031]
    RMS size of the density [Ang]:         1.282113
      Cartesian components [Ang]:        [  0.858370,   0.844687,   0.439907]
  
  Exciton analysis of the difference density matrix
    <r_h> [Ang]:                  [ -1.561337,  -0.065288,   0.002124]
    <r_e> [Ang]:                  [ -1.561351,  -0.065307,   0.002134]
    |<r_e - r_h>| [Ang]:            0.000026
    Hole size [Ang]:                1.412896
      Cartesian components [Ang]: [  0.836484,   0.822753,   0.787178]
    Electron size [Ang]:            2.079215
      Cartesian components [Ang]: [  1.376811,   1.380360,   0.722587]

  Transition density matrix analysis:
  -----------------------------------
  
  CT numbers (Mulliken)
    omega =     0.9250
    <Phe> =    -0.0109
  
  Exciton analysis of the transition density matrix
    Trans. dipole moment [D]:             0.412792
      Cartesian components [D]:         [ -0.007914,  -0.036085,   0.411136]
    <r_h> [Ang]:                        [ -1.561334,  -0.065288,   0.002120]
    <r_e> [Ang]:                        [ -1.561355,  -0.065315,   0.002136]
    |<r_e - r_h>| [Ang]:                  0.000038
    Hole size [Ang]:                      1.212756
      Cartesian components [Ang]:       [  0.636131,   0.623938,   0.822688]
    Electron size [Ang]:                  2.301724
      Cartesian components [Ang]:       [  1.523247,   1.529480,   0.798963]
    RMS electron-hole separation [Ang]:   2.591578
      Cartesian components [Ang]:       [  1.643106,   1.644697,   1.145185]
    Covariance(r_h, r_e) [Ang^2]:         0.026218
    Correlation coefficient:              0.009392
    Center-of-mass size [Ang]:            1.305866
      Cartesian components [Ang]:       [  0.829170,   0.829486,   0.574209]

  Decomposition into state-averaged NTOs
    H- 0 -> L+ 1:  0.6794 ( 92.3%)
                   omega =  92.5%
  ----------------------------------------------------------------------------


  Excited state 4 (singlet, A)                                     [converged]
  ----------------------------------------------------------------------------
  Term symbol:  5 (1) A                                     R^2 =  3.68027e-13

  Total energy:                                            -77.9622624143 a.u.
  Excitation energy:                                               9.738262 eV

  Osc. strength:                                                      0.000000
  Trans. dip. moment [a.u.]:           [  -0.000165,    0.000154,    0.000006]
  <i|r^2|0> [a.u.]:                    [   0.014412,    0.016639,   -0.031987]
  Two-photon absorption cross-section (SoS) [a.u.]:                 134.710820
  Two-photon absorption matrix (SoS) [a.u.]:
                                       |    0.323703    0.314521   -2.791667 |
                                       |    0.314521    0.303448   -2.941327 |
                                       |   -2.791667   -2.941327   -0.627201 |
  Two-photon absorption cross-section [a.u.]:                        80.103582
  Two-photon absorption matrix [a.u.]:
                                       |    0.291317    0.244588   -2.149980 |
                                       |    0.244588    0.192192   -2.269998 |
                                       |   -2.149980   -2.269998   -0.483567 |

  Dip. moment [a.u.]:                  [  -0.000054,   -0.000047,   -0.000023]
  Total dipole [Debye]:                                               0.000192
  <r^2> [a.u.]:                        [ 181.495253,   41.012206,   10.786763]
  Total <r^2> [a.u.]:                                               233.294222

  V1^2 = 0.9633, V2^2 = 0.0367

  Important amplitudes:
      occ i     occ j     vir a      vir b          v   
    -----------------------------------------------------
     8 (A) A             11 (A) A                 0.6688
     7 (A) A              9 (A) A                -0.1534
     8 (A) A             21 (A) A                -0.0779
     8 (A) A             16 (A) A                 0.0674
     8 (A) A   8 (A) B    9 (A) A   13 (A) B      0.0167
     5 (A) A   8 (A) B   11 (A) A   11 (A) B     -0.0157
     7 (A) A             20 (A) A                -0.0140
     8 (A) A   8 (A) B   11 (A) A   17 (A) B      0.0137
     7 (A) A   8 (A) B   13 (A) A   11 (A) B      0.0127
     4 (A) A   8 (A) B   12 (A) A   11 (A) B     -0.0111
     8 (A) A   8 (A) B    9 (A) A   22 (A) B     -0.0110
     5 (A) A   8 (A) A   11 (A) A   21 (A) A     -0.0109
     7 (A) A   8 (A) A   11 (A) A   22 (A) A      0.0095
     6 (A) A   8 (A) B   10 (A) A   11 (A) B     -0.0091
     6 (A) A   8 (A) B   15 (A) A   11 (A) B      0.0089
     7 (A) A   8 (A) B   22 (A) A   11 (A) B     -0.0089
     3 (A) A   4 (A) B   11 (A) A    9 (A) B     -0.0083
     3 (A) A   8 (A) B   11 (A) A   18 (A) B     -0.0080
     6 (A) A   8 (A) A   11 (A) A   15 (A) A     -0.0079
     7 (A) A   8 (A) A   13 (A) A   16 (A) A     -0.0079
     7 (A) A   8 (A) A   11 (A) A   13 (A) A     -0.0075
     4 (A) A   8 (A) B   19 (A) A   11 (A) B     -0.0070
     5 (A) A   8 (A) B   21 (A) A   11 (A) B      0.0069
     5 (A) A   8 (A) B    9 (A) A    9 (A) B     -0.0069
     4 (A) A   8 (A) A   11 (A) A   12 (A) A      0.0062
     3 (A) A   6 (A) B   11 (A) A   28 (A) B     -0.0060
     6 (A) A   8 (A) A   11 (A) A   18 (A) A     -0.0059
     6 (A) A   8 (A) B   18 (A) A   11 (A) B      0.0058
     7 (A) A   8 (A) B   16 (A) A   13 (A) B      0.0057
     3 (A) A   8 (A) B   11 (A) A   30 (A) B     -0.0056
     5 (A) A   8 (A) B   10 (A) A   10 (A) B     -0.0055
     7 (A) A   8 (A) B   12 (A) A   10 (A) B     -0.0055
     8 (A) A   8 (A) B   20 (A) A   22 (A) B     -0.0055
     6 (A) A   8 (A) B   11 (A) A   10 (A) B     -0.0055
     3 (A) A   8 (A) A   11 (A) A   18 (A) A     -0.0054
     3 (A) A   5 (A) B   11 (A) A   25 (A) B     -0.0054
     3 (A) A   8 (A) A   11 (A) A   24 (A) A     -0.0053
     5 (A) A   8 (A) A   11 (A) A   16 (A) A      0.0049
     6 (A) A   8 (A) A   10 (A) A   16 (A) A      0.0047
     8 (A) A   8 (A) B   11 (A) A   28 (A) B     -0.0043
    -----------------------------------------------------

  Density matrix analysis:
  ------------------------
  NOs
    Occupation of frontier NOs:
       0.9387   1.0294
    Number of electrons: 16.000000
    Number of unpaired electrons: n_u =  2.32235, n_u,nl =  2.05104
    NO participation ratio (PR_NO):  2.932591
  
  
  Mulliken Population Analysis
  Atom      Charge (e)              h+              e-           Del q
  --------------------------------------------------------------------
   1 H       -0.125417        0.046014       -0.226403       -0.180389
   2 C        0.251094        0.495268       -0.134228        0.361040
   3 H       -0.125674        0.046000       -0.226654       -0.180655
   4 C        0.251079        0.495268       -0.134234        0.361035
   5 H       -0.125688        0.046001       -0.226668       -0.180667
   6 H       -0.125395        0.046015       -0.226379       -0.180364
  --------------------------------------------------------------------
  Sum:       -0.000000        1.174567       -1.174567        0.000000
  
  Multipole moment analysis of the density matrix
    Molecular charge:                      -0.000000
    Number of electrons:                   16.000000
      Center of electronic charge [Ang]: [ -1.561337,  -0.065285,   0.002128]
    Total nuclear charge:                  16.000000
      Center of nuclear charge [Ang]:    [ -1.561339,  -0.065287,   0.002127]
    Dipole moment [D]:                     0.000192
      Cartesian components [D]:          [ -0.000138,  -0.000120,  -0.000058]
    RMS size of the density [Ang]:         1.281025
      Cartesian components [Ang]:        [  0.859487,   0.844704,   0.434492]
  
  Exciton analysis of the difference density matrix
    <r_h> [Ang]:                  [ -1.561337,  -0.065285,   0.002123]
    <r_e> [Ang]:                  [ -1.561314,  -0.065262,   0.002139]
    |<r_e - r_h>| [Ang]:            0.000035
    Hole size [Ang]:                1.394925
      Cartesian components [Ang]: [  0.819513,   0.806383,   0.789913]
    Electron size [Ang]:            2.114342
      Cartesian components [Ang]: [  1.419435,   1.415479,   0.672359]

  Transition density matrix analysis:
  -----------------------------------
  
  CT numbers (Mulliken)
    omega =     0.9293
    <Phe> =    -0.0146
  
  Exciton analysis of the transition density matrix
    Trans. dipole moment [D]:             0.000287
      Cartesian components [D]:         [ -0.000209,   0.000196,   0.000007]
    <r_h> [Ang]:                        [ -1.561338,  -0.065286,   0.002121]
    <r_e> [Ang]:                        [ -1.561311,  -0.065257,   0.002141]
    |<r_e - r_h>| [Ang]:                  0.000045
    Hole size [Ang]:                      1.229178
      Cartesian components [Ang]:       [  0.661889,   0.649657,   0.806677]
    Electron size [Ang]:                  2.247918
      Cartesian components [Ang]:       [  1.508953,   1.506024,   0.712805]
    RMS electron-hole separation [Ang]:   2.550896
      Cartesian components [Ang]:       [  1.638885,   1.631979,   1.075998]
    Covariance(r_h, r_e) [Ang^2]:         0.028471
    Correlation coefficient:              0.010304
    Center-of-mass size [Ang]:            1.286561
      Cartesian components [Ang]:       [  0.828270,   0.824161,   0.538485]

  Decomposition into state-averaged NTOs
    H- 0 -> L+ 2:  0.6641 ( 88.2%)
    H- 1 -> L+ 0: -0.1513 (  4.6%)
                   omega =  92.9%
  ----------------------------------------------------------------------------


  Excited state 5 (singlet, A)                                     [converged]
  ----------------------------------------------------------------------------
  Term symbol:  6 (1) A                                     R^2 =  9.62692e-13

  Total energy:                                            -77.9468225722 a.u.
  Excitation energy:                                              10.158402 eV

  Osc. strength:                                                      0.000000
  Trans. dip. moment [a.u.]:           [  -0.000032,   -0.000023,    0.000001]
  <i|r^2|0> [a.u.]:                    [   0.082684,   -0.095368,    0.017020]
  Two-photon absorption cross-section (SoS) [a.u.]:                 223.473972
  Two-photon absorption matrix (SoS) [a.u.]:
                                       |    0.420339    0.018061   -3.823053 |
                                       |    0.018061   -0.388983    3.626171 |
                                       |   -3.823053    3.626171    0.070448 |
  Two-photon absorption cross-section [a.u.]:                       115.479757
  Two-photon absorption matrix [a.u.]:
                                       |    0.339968    0.038056   -2.743833 |
                                       |    0.038056   -0.239177    2.610065 |
                                       |   -2.743833    2.610065    0.042800 |

  Dip. moment [a.u.]:                  [   0.000036,   -0.000055,   -0.000001]
  Total dipole [Debye]:                                               0.000166
  <r^2> [a.u.]:                        [ 180.367948,   39.751391,   11.600729]
  Total <r^2> [a.u.]:                                               231.720069

  V1^2 = 0.9554, V2^2 = 0.0446

  Important amplitudes:
      occ i     occ j     vir a      vir b          v   
    -----------------------------------------------------
     8 (A) A             12 (A) A                -0.5697
     6 (A) A              9 (A) A                -0.3821
     8 (A) A             19 (A) A                -0.0525
     6 (A) A             20 (A) A                -0.0520
     8 (A) A             23 (A) A                 0.0293
     8 (A) A   8 (A) B    9 (A) A   10 (A) B      0.0205
     8 (A) A             26 (A) A                 0.0184
     3 (A) A              9 (A) A                -0.0159
     4 (A) A   8 (A) B    9 (A) A    9 (A) B     -0.0158
     5 (A) A   8 (A) B   11 (A) A   12 (A) B      0.0149
     8 (A) A   8 (A) B   12 (A) A   17 (A) B     -0.0133
[...]
    16   -1.243348173827e-03
    17   -1.914339504849e-03
    18    1.171922732470e-04
    19   -2.908493894012e-03
    20    1.150073289903e-02
    21    9.277985371148e-01
    22   -5.131370109785e-04
    23    1.372299787248e-02
    24    9.058495208073e-04
    25    7.034913253418e-02
    26   -5.223878796856e-02
    27   -1.383654587332e+00
    28    9.994131164167e-02
    29   -9.469683500556e-02
    30   -2.968092723465e-03
    31    3.853690656387e-01
    32   -3.651538236007e-01
    33   -1.148169512935e-02
    34    1.506517338480e-02
    35   -1.241153824672e-03
    36   -1.913018299542e-03
    37    1.173623402256e-04
    38   -2.907809669561e-03
    39    1.149639666553e-02
    40    9.277957151642e-01
    41    5.128478532144e-04
    42   -1.372278792914e-02
    43   -9.053190686347e-04
    44    1.150097094326e-02
    45    9.277882428465e-01
    46    1.374765546872e-02
    47    2.012253585620e-04
    48    5.706795328509e-04
Sym=X
Ene= 0.231048
Spin=Alpha
Occup=0
     1   -2.986286116003e-02
     2   -1.167651340065e+00
     3    1.294856636779e-02
     4    3.508888017841e-03
     5    7.942964073806e-04
     6    6.494620572552e-05
     7   -7.022412538885e-05
     8   -1.011153599973e-03
     9    1.545432718798e-01
    10    1.626336903634e-01
    11    1.726159299390e-02
    12    5.300243597867e-01
    13    5.579312859107e-01
    14    5.921726088139e-02
    15   -1.713326826970e-05
    16   -2.299071683379e-04
    17   -8.844054711325e-05
    18   -1.386886028293e-03
    19   -6.090339948691e-05
    20    2.989669958457e-02
    21    1.169159643517e+00
    22    2.853725507774e-03
    23    1.311884090250e-02
    24    9.707682945772e-04
    25   -6.634698177277e-05
    26    7.133751307466e-05
    27    1.046432248653e-03
    28    1.545410428540e-01
    29    1.626395001829e-01
    30    1.723393463016e-02
    31    5.299849495064e-01
    32    5.579227266204e-01
    33    5.910431322926e-02
    34    1.710121917305e-05
    35    2.314420546491e-04
    36    8.754197315582e-05
    37    1.385479037041e-03
    38    6.080320020088e-05
    39   -2.989701092698e-02
    40   -1.169141863448e+00
    41    2.853567886287e-03
    42    1.311903841181e-02
    43    9.692676874041e-04
    44    2.986261522590e-02
    45    1.167588908382e+00
    46    1.294822450921e-02
    47    3.508649667552e-03
    48    7.926788045434e-04
Sym=X
Ene= 0.236440
Spin=Alpha
Occup=0
     1    1.931503485751e-02
     2    1.073057327778e+00
     3   -1.589862061272e-02
     4   -9.220975290215e-03
     5   -1.254854695482e-03
     6    8.712321559952e-02
     7   -8.232504654132e-02
     8   -1.545050731494e+00
     9   -5.904004171498e-02
    10    5.575126837031e-02
    11    1.381410999271e-03
    12   -2.425563166194e-01
    13    2.292542024953e-01
    14    4.820906208332e-03
    15    2.128149998822e-02
    16   -2.496444874012e-03
    17   -2.886367080946e-03
    18    6.130446766193e-04
    19   -1.241247007305e-02
    20    1.928186401224e-02
    21    1.071277045043e+00
    22    8.391718405812e-03
    23    1.631135626244e-02
    24    1.454546495123e-03
    25   -8.712192890087e-02
    26    8.232158534648e-02
    27    1.545042352509e+00
    28   -5.904083808071e-02
    29    5.575375155565e-02
    30    1.392693938398e-03
    31   -2.425537541480e-01
    32    2.292776002002e-01
    33    4.867569065289e-03
    34   -2.128157885345e-02
    35    2.494396437822e-03
    36    2.886402195868e-03
    37   -6.141123931543e-04
    38    1.241203877670e-02
    39   -1.928135923394e-02
    40   -1.071293229706e+00
    41    8.392201077518e-03
    42    1.631169353762e-02
    43    1.454850515444e-03
    44   -1.931381775356e-02
    45   -1.073028060628e+00
    46   -1.589787205916e-02
    47   -9.221927942506e-03
    48   -1.253699044640e-03
Sym=X
Ene= 0.302962
Spin=Alpha
Occup=0
     1   -2.106808155443e-02
     2    1.657782292918e+00
     3   -2.350676619451e-02
     4    4.051137787107e-04
     5   -1.122249422026e-03
     6    1.454709045485e-07
     7   -3.600554643189e-06
     8    3.400399516838e-05
     9   -1.356151955601e-01
    10   -1.426603581130e-01
    11   -1.513884023133e-02
    12   -1.124923990662e+00
    13   -1.183251624461e+00
    14   -1.255321069057e-01
    15    5.571001973807e-05
    16   -1.620624677538e-03
    17    2.103033375692e-03
    18   -3.407621554080e-02
    19   -1.754704548308e-03
    20    2.107079774677e-02
    21   -1.657805678474e+00
    22    1.601502310881e-03
    23   -2.344596451782e-02
    24   -1.322777563436e-03
    25    1.782129442081e-06
    26   -2.893343311214e-06
    27   -3.177412217534e-05
    28    1.356202383299e-01
    29    1.426648742711e-01
    30    1.512455889816e-02
    31    1.124896368342e+00
    32    1.183269572198e+00
    33    1.254830040036e-01
    34    5.711357363755e-05
    35   -1.618251927759e-03
    36    2.103854573153e-03
    37   -3.407472734535e-02
    38   -1.755535604718e-03
    39    2.106680315784e-02
    40   -1.657800143432e+00
    41   -1.602483663579e-03
    42    2.344541218488e-02
    43    1.322157423938e-03
    44   -2.106307759234e-02
    45    1.657810341010e+00
    46    2.350740497822e-02
    47   -4.054588201074e-04
    48    1.120660704287e-03
Sym=X
Ene= 0.462770
Spin=Alpha
Occup=0
     1   -1.144452552279e-01
     2   -6.987103589290e-01
     3   -1.496701658246e-02
     4   -1.030182840582e-02
     5   -1.368031068764e-03
     6    6.251485493818e-02
     7    1.658600143368e-02
     8   -3.641005898463e+00
     9    1.044199289737e-01
    10   -9.899357686810e-02
    11   -2.577758543844e-03
    12    2.432870681310e+00
    13   -2.311376671895e+00
    14   -1.546550319179e-02
    15    5.296830349280e-02
    16   -3.230119260070e-03
    17   -4.572746087825e-03
    18   -1.082998697891e-03
    19    2.011953323851e-02
    20   -1.143932935627e-01
    21   -6.987901976615e-01
    22    9.540480142729e-03
    23    1.546415230388e-02
    24    1.367159255882e-03
    25   -6.251595213344e-02
    26   -1.657884922508e-02
    27    3.641011689668e+00
    28    1.044335275406e-01
    29   -9.900261555352e-02
    30   -2.583776242276e-03
    31    2.432850509544e+00
    32   -2.311342267805e+00
    33   -1.549155510545e-02
    34   -5.296345697364e-02
    35    3.225409041429e-03
    36    4.566730587654e-03
    37    1.082316418731e-03
    38   -2.012570213983e-02
    39    1.143572456041e-01
    40    6.988244805292e-01
    41    9.539636846831e-03
    42    1.546335672744e-02
    43    1.365206611196e-03
    44    1.144159016193e-01
    45    6.987327263154e-01
    46   -1.496574516447e-02
    47   -1.029958823020e-02
    48   -1.366465834639e-03
Sym=X
Ene= 0.579809
Spin=Alpha
Occup=0
     1    2.377871966987e-01
     2    4.780063105450e-02
     3   -2.207370398446e-02
     4    2.697587405223e-02
     5    6.303465204021e-04
     6   -6.251796900888e-03
     7   -1.690067800978e-01
     8   -4.173605200754e-01
     9    3.055442821581e-01
    10   -2.902469664448e-01
    11   -1.961902503778e-03
    12   -7.483361774613e-01
    13    7.104254643516e-01
    14    8.565173530105e-03
    15   -1.982304783901e-03
    16    3.660080200800e-03
    17    3.274904629463e-03
    18   -3.045711009163e-03
    19    5.979219831634e-02
    20    2.377586037508e-01
    21    4.785385478077e-02
    22   -2.808510530188e-02
    23    2.065310900619e-02
    24   -4.045684229911e-05
    25   -6.259671548165e-03
    26   -1.690109740176e-01
    27   -4.169992715155e-01
    28   -3.055353628702e-01
    29    2.902291664599e-01
    30    1.959718617035e-03
    31    7.486054436017e-01
    32   -7.106467174708e-01
    33   -8.570522828477e-03
    34   -1.981903284557e-03
    35    3.660050777477e-03
    36    3.274340700933e-03
    37   -3.039183956991e-03
    38    5.979247191443e-02
    39    2.377174093058e-01
    40    4.798389925038e-02
    41    2.809154968293e-02
    42   -2.065833601116e-02
    43    3.967108873994e-05
    44    2.378077822298e-01
    45    4.788703058405e-02
    46    2.207293934908e-02
    47   -2.697664453227e-02
    48   -6.308566878617e-04
Sym=X
Ene= 0.608869
Spin=Alpha
Occup=0
     1   -5.193048590138e-01
     2    2.451695548325e-01
     3   -5.952178729125e-02
     4    3.705320906374e-02
     5   -5.013224637687e-04
     6    4.874176574519e-06
     7   -1.416409110423e-05
     8    2.956781733111e-04
     9   -3.564322251322e-02
    10   -3.750438902839e-02
    11   -3.972888438652e-03
    12    2.610484377173e-01
    13    2.749037818310e-01
    14    2.917352436864e-02
    15    1.955020112264e-04
    16   -7.188570670711e-03
    17    9.039618897795e-03
    18   -1.485799606542e-01
    19   -7.648386191337e-03
    20    5.194163495618e-01
    21   -2.451864636458e-01
    22    4.006795720167e-02
    23   -5.752129206164e-02
    24   -1.667687465264e-03
    25   -5.639100737229e-06
    26    1.462749583752e-05
    27   -2.460977198032e-04
    28   -3.563127844132e-02
    29   -3.751849015322e-02
    30   -3.981312014875e-03
    31    2.610137154752e-01
    32    2.749690216486e-01
    33    2.911582474793e-02
    34   -1.934734414422e-04
    35    7.182768258921e-03
    36   -9.043888677238e-03
    37    1.485884245454e-01
    38    7.646589197654e-03
    39   -5.194651015175e-01
    40    2.452214310324e-01
    41    4.006260428161e-02
    42   -5.752157697621e-02
    43   -1.671245860997e-03
    44    5.192998958000e-01
    45   -2.452109210989e-01
    46   -5.952348965026e-02
    47    3.705396981604e-02
    48   -5.015994281914e-04
Sym=X
Ene= 0.688657
Spin=Alpha
Occup=0
     1    2.017207606220e-03
     2    3.671534577103e-03
     3    6.219285204202e-04
     4    1.421128834754e-03
     5   -1.879300320257e-02
     6    1.035855360974e-04
     7   -1.191389130149e-03
     8    4.552245770474e-03
     9    3.200780563274e-02
    10    4.072908700743e-02
    11   -6.706276567213e-01
    12   -3.666185775584e-02
    13   -3.016896073158e-02
    14    6.127139365360e-01
    15   -8.539171571560e-04
    16    8.260017045122e-02
    17   -7.837263507900e-02
    18   -8.737639619006e-03
    19   -4.385463203549e-04
    20    2.012168358153e-03
    21    3.697305100394e-03
    22    6.070366468555e-04
    23    1.403786852934e-03
    24   -1.879130547067e-02
    25   -1.018784544938e-04
    26    1.216246306439e-03
    27   -4.571250870778e-03
    28    3.198941469278e-02
    29    4.069502163783e-02
    30   -6.706294978927e-01
    31   -3.663341452158e-02
    32   -3.012919253484e-02
    33    6.127151087893e-01
    34    8.442575397666e-04
    35   -8.259907008186e-02
    36    7.837377471518e-02
    37    8.746626746124e-03
    38    4.425766177592e-04
    39   -1.995007291694e-03
    40   -3.686672817215e-03
    41    6.046098641445e-04
    42    1.407418172477e-03
    43   -1.879105762058e-02
    44   -1.989073904511e-03
    45   -3.712827193941e-03
    46    6.130033956631e-04
    47    1.414767352078e-03
    48   -1.879357377941e-02
Sym=X
Ene= 0.704774
Spin=Alpha
Occup=0
     1   -4.879299333831e-01
     2    1.637575157175e-01
     3   -7.809639188647e-02
     4   -4.435099334198e-02
     5   -6.727122724293e-03
     6   -4.595726713342e-02
     7   -3.012925722951e-01
     8    4.636827003933e-01
     9    1.958938887826e-01
    10   -1.860825704921e-01
    11   -1.868320512023e-03
    12   -5.743790453848e-02
    13    5.525393509545e-02
    14   -4.437069016609e-03
    15    1.911493164308e-01
    16   -2.063123638164e-02
    17   -2.390799978644e-02
    18    3.770946043129e-03
    19   -7.662407921356e-02
    20   -4.879606974445e-01
    21    1.639470941487e-01
    22    4.035420068078e-02
    23    8.026881010670e-02
    24    6.493791992957e-03
    25   -4.595150349456e-02
    26   -3.012933496647e-01
    27    4.633902042536e-01
    28   -1.958948841621e-01
    29    1.860825497390e-01
    30    1.833208440662e-03
    31    5.723915813210e-02
    32   -5.508188737970e-02
    33    4.475977328667e-03
    34    1.911518000199e-01
    35   -2.062191146674e-02
    36   -2.389607530861e-02
    37    3.766965605220e-03
    38   -7.661433770437e-02
    39   -4.879353832267e-01
    40    1.638748135614e-01
    41   -4.035321191809e-02
    42   -8.026603571004e-02
    43   -6.490963701563e-03
    44   -4.879324948651e-01
    45    1.636963981330e-01
    46    7.809682296421e-02
    47    4.434999662680e-02
    48    6.722020227593e-03
Sym=X
Ene= 0.775743
Spin=Alpha
Occup=0
     1    5.387902385431e-01
     2   -4.806979294062e-01
     3    1.077424892522e-01
     4    2.643587771900e-02
     5    6.808400459292e-03
     6    8.893531859087e-02
     7   -2.266996357135e-01
     8   -5.667528052235e-01
     9    1.034608706286e-01
    10   -9.836571163276e-02
    11    3.245787219376e-04
    12    2.941702828828e-01
    13   -2.795807028039e-01
    14   -2.356420347259e-03
    15   -2.032225933738e-01
    16    1.701261479029e-02
    17    2.221923613055e-02
    18   -1.461996801161e-04
    19    7.668438751967e-03
    20    5.386693798164e-01
    21   -4.807639837697e-01
    22   -2.093515796956e-02
    23   -1.088859314008e-01
    24   -7.552033866640e-03
    25   -8.893655930353e-02
    26    2.267011167968e-01
    27    5.668087314715e-01
    28    1.034747320602e-01
    29   -9.836248253643e-02
    30    2.993823315820e-04
    31    2.941126493593e-01
    32   -2.795619209287e-01
    33   -2.299216829893e-03
    34    2.032297173582e-01
    35   -1.699034868916e-02
    36   -2.220593916751e-02
    37    1.506301347521e-04
    38   -7.667450789685e-03
    39   -5.386998317901e-01
    40    4.807688961778e-01
    41   -2.093651468710e-02
    42   -1.088886539612e-01
    43   -7.546912218787e-03
    44   -5.388138152145e-01
    45    4.806725035713e-01
    46    1.077389343232e-01
    47    2.644056845226e-02
    48    6.802545710254e-03
Sym=X
Ene= 0.807404
Spin=Alpha
Occup=0
     1    1.054268459010e-04
     2    5.760285234918e-04
     3    1.041215868280e-03
     4    2.047140253326e-03
     5   -3.144691708585e-02
     6    1.051167193562e-04
     7   -1.983837826990e-03
     8    1.001906994568e-03
     9    3.721287281193e-02
    10    4.573304092605e-02
    11   -7.642427034110e-01
    12   -5.521732834459e-02
    13   -6.684856997493e-02
    14    1.124369991728e+00
    15    7.659808369915e-04
    16   -6.537338183108e-02
    17    6.203883628012e-02
    18    6.896521606129e-03
    19    6.109345943487e-04
    20    1.066746411242e-04
    21    5.019119378014e-04
    22    1.332390346161e-03
    23    2.350593487384e-03
    24   -3.140473215353e-02
    25    1.019846674535e-04
    26   -1.977371541267e-03
    27    9.983734690310e-04
    28   -3.715172947415e-02
    29   -4.569595380494e-02
    30    7.642496202594e-01
    31    5.514006511939e-02
    32    6.676362195177e-02
    33   -1.124379127659e+00
    34    7.766241498920e-04
    35   -6.537282812583e-02
    36    6.203667257828e-02
    37    6.915520011475e-03
    38    6.154338210574e-04
    39    8.873584933075e-05
    40    5.978447736550e-04
    41   -1.334937774590e-03
    42   -2.364842617504e-03
    43    3.140122497796e-02
    44    9.108648967127e-05
    45    5.260848179608e-04
    46   -1.041544804206e-03
    47   -2.053967802058e-03
    48    3.144554558973e-02
Sym=X
Ene= 0.858423
Spin=Alpha
Occup=0
     1    1.432059487043e-02
     2   -1.075768444221e+00
     3    1.463491438733e-01
     4    5.610714420659e-02
     5    9.910006269517e-03
     6    3.006366957234e-06
     7    1.221563319731e-05
     8    7.382375299371e-07
     9   -4.117029289857e-01
    10   -4.330499914927e-01
    11   -4.597389804427e-02
    12    9.372826004479e-01
    13    9.858285028074e-01
    14    1.046571770988e-01
    15   -3.093979841539e-04
    16    1.131492474756e-02
    17   -1.383385051112e-02
    18    2.303661609833e-01
    19    1.183423718860e-02
    20   -1.428468146593e-02
    21    1.075661310570e+00
    22    4.853593144017e-02
    23    1.488744988804e-01
    24    1.183836994094e-02
    25   -2.587750703352e-06
    26   -8.145463626831e-06
    27    2.464319049696e-07
    28   -4.117150594444e-01
    29   -4.330702277909e-01
    30   -4.589485086975e-02
    31    9.373019341700e-01
    32    9.858796531709e-01
    33    1.044846855295e-01
    34    3.078551730637e-04
    35   -1.131469347232e-02
    36    1.383518701199e-02
    37   -2.303734577655e-01
    38   -1.183851756236e-02
    39    1.428028175670e-02
    40   -1.075669523428e+00
    41    4.852733377780e-02
    42    1.488791199257e-01
    43    1.183433963728e-02
    44   -1.431417594745e-02
    45    1.075773687603e+00
    46    1.463540756922e-01
    47    5.610249024053e-02
    48    9.902574303897e-03
Sym=X
Ene= 0.927998
Spin=Alpha
Occup=0
     1   -1.416802520614e-01
     2    1.231218939419e+00
     3   -1.826908602067e-01
     4    5.763165854402e-03
     5   -8.627951143533e-03
     6   -1.826786726517e-06
     7   -5.624873370246e-05
     8    9.666621044281e-05
     9    4.739863619363e-01
    10    4.985719678552e-01
    11    5.289548545029e-02
    12   -1.382937377009e+00
    13   -1.454761770325e+00
    14   -1.543356808845e-01
    15    1.192234252475e-04
    16   -6.487924493466e-03
    17    7.220555429041e-03
    18   -1.256131863006e-01
    19   -6.428731695516e-03
    20    1.416540530144e-01
    21   -1.231302297063e+00
    22    1.507097550759e-02
    23   -1.820838133258e-01
    24   -1.008193276917e-02
    25   -2.148149261919e-06
    26   -4.607155808717e-05
    27    1.029060884564e-04
    28   -4.739888013157e-01
    29   -4.985581542371e-01
    30   -5.287081640315e-02
    31    1.382940888816e+00
    32    1.454702277113e+00
    33    1.542648254019e-01
    34    1.234399929769e-04
    35   -6.471119078530e-03
    36    7.214022221944e-03
    37   -1.256089022718e-01
    38   -6.441932823600e-03
    39    1.416476298647e-01
    40   -1.231246038669e+00
    41   -1.508133250971e-02
    42    1.820746633377e-01
    43    1.007612065712e-02
    44   -1.416909157522e-01
    45    1.231230389465e+00
    46    1.826919930837e-01
    47   -5.764200274829e-03
    48    8.616736844590e-03
Sym=X
Ene= 0.970580
Spin=Alpha
Occup=0
     1   -5.972697063658e-02
     2    8.967190944018e-01
     3   -8.759920675277e-02
     4   -9.665750256233e-02
     5   -9.402873281215e-03
     6    2.706953546728e-02
     7    2.528960806332e-01
     8    5.139443403391e-01
     9    4.831149061475e-01
    10   -4.587877994228e-01
    11   -4.781502546857e-03
    12   -1.474783419012e+00
    13    1.400617079897e+00
    14    1.350352297348e-02
    15   -5.794370715678e-02
    16   -1.119886664970e-02
    17   -1.030894823627e-02
    18    1.506456758322e-02
    19   -2.963860515779e-01
    20   -5.976071523380e-02
    21    8.967032416841e-01
    22    9.203218498502e-02
    23    9.230260358830e-02
    24    1.064140985209e-02
    25   -2.706883185810e-02
    26   -2.528274430820e-01
    27   -5.140548664669e-01
    28    4.830994882807e-01
    29   -4.587954749503e-01
    30   -4.797974151913e-03
    31   -1.474732240678e+00
    32    1.400674939387e+00
    33    1.355157014362e-02
    34    5.793883046485e-02
    35    1.119834000925e-02
    36    1.031097339310e-02
    37   -1.506865674730e-02
    38    2.963729502181e-01
    39    5.976057778042e-02
    40   -8.967145413521e-01
    41    9.202641629264e-02
    42    9.230465787650e-02
    43    1.064232706504e-02
    44    5.973441227099e-02
    45   -8.966442296392e-01
    46   -8.758976693767e-02
    47   -9.665473853054e-02
    48   -9.397167363078e-03
[5D]

======= END OF MOLDEN-FORMATTED INPUT FILE =======


        *************************************************************
        *                                                           *
        *  Thank you very much for using Q-Chem.  Have a nice day.  *
        *                                                           *
        *************************************************************


