                  Welcome to Q-Chem
     A Quantum Leap Into The Future Of Chemistry


 Q-Chem 5.4 (devel), Q-Chem, Inc., Pleasanton, CA (2021)

 E. Epifanovsky,  A. T. B. Gilbert,  Xintian Feng,  Joonho Lee,  Yuezhi Mao,  
 N. Mardirossian,  P. Pokhilko,  A. White,  M. Wormit,  M. P. Coons,  
 A. L. Dempwolff,  Zhengting Gan,  D. Hait,  P. R. Horn,  L. D. Jacobson,  
 I. Kaliman,  J. Kussmann,  A. W. Lange,  Ka Un Lao,  D. S. Levine,  Jie Liu,  
 S. C. McKenzie,  A. F. Morrison,  K. Nanda,  F. Plasser,  D. R. Rehn,  
 M. L. Vidal,  Zhi-Qiang You,  Ying Zhu,  B. Alam,  B. Albrecht,  
 A. Aldossary,  E. Alguire,  J. H. Andersen,  D. Barton,  K. Begam,  A. Behn,  
 Y. A. Bernard,  E. J. Berquist,  H. Burton,  A. Carreras,  K. Carter-Fenk,  
 R. Chakraborty,  A. D. Chien,  K. D. Closser,  V. Cofer-Shabica,  
 S. Dasgupta,  Jia Deng,  M. de Wergifosse,  M. Diedenhofen,  Hainam Do,  
 S. Ehlert,  Po-Tung Fang,  S. Fatehi,  Qingguo Feng,  T. Friedhoff,  
 J. Gayvert,  Qinghui Ge,  G. Gidofalvi,  M. Goldey,  J. Gomes,  
 C. Gonzalez-Espinoza,  S. Gulania,  A. Gunina,  M. W. D. Hanson-Heine,  
 P. H. P. Harbach,  A. W. Hauser,  M. F. Herbst,  M. Hernandez Vera,  
 M. Hodecker,  Z. C. Holden,  S. Houck,  Xunkun Huang,  Kerwin Hui,  
 B. C. Huynh,  M. Ivanov,  Hyunjun Ji,  Hanjie Jiang,  B. Kaduk,  S. Kaehler,  
 K. Khistyaev,  Jaehoon Kim,  P. Klunzinger,  Z. Koczor-Benda,  
 Joong Hoon Koh,  D. Kosenkov,  L. Koulias,  T. Kowalczyk,  C. M. Krauter,  
 K. Kue,  A. Kunitsa,  T. Kus,  A. Landau,  K. V. Lawler,  D. Lefrancois,  
 S. Lehtola,  Rain Li,  Yi-Pei Li,  Jiashu Liang,  M. Liebenthal,  
 Hung-Hsuan Lin,  You-Sheng Lin,  Fenglai Liu,  Kuan-Yu Liu,  
 M. Loipersberger,  A. Luenser,  A. Manjanath,  P. Manohar,  E. Mansoor,  
 S. F. Manzer,  Shan-Ping Mao,  A. V. Marenich,  T. Markovich,  S. Mason,  
 S. A. Maurer,  P. F. McLaughlin,  M. F. S. J. Menger,  J.-M. Mewes,  
 S. A. Mewes,  P. Morgante,  J. W. Mullinax,  K. J. Oosterbaan,  G. Paran,  
 Alexander C. Paul,  Suranjan K. Paul,  F. Pavosevic,  Zheng Pei,  S. Prager,  
 E. I. Proynov,  E. Ramos,  B. Rana,  A. E. Rask,  A. Rettig,  R. M. Richard,  
 F. Rob,  E. Rossomme,  T. Scheele,  M. Scheurer,  M. Schneider,  
 N. Sergueev,  S. M. Sharada,  W. Skomorowski,  D. W. Small,  C. J. Stein,  
 Yu-Chuan Su,  E. J. Sundstrom,  Zhen Tao,  J. Thirman,  T. Tsuchimochi,  
 N. M. Tubman,  S. P. Veccham,  O. Vydrov,  J. Wenzel,  J. Witte,  A. Yamada,  
 Kun Yao,  S. Yeganeh,  S. R. Yost,  A. Zech,  Igor Ying Zhang,  Xing Zhang,  
 Yu Zhang,  D. Zuev,  A. Aspuru-Guzik,  A. T. Bell,  N. A. Besley,  
 K. B. Bravaya,  B. R. Brooks,  D. Casanova,  Jeng-Da Chai,  S. Coriani,  
 C. J. Cramer,  A. E. DePrince, III,  R. A. DiStasio Jr.,  A. Dreuw,  
 B. D. Dunietz,  T. R. Furlani,  W. A. Goddard III,  S. Grimme,  
 S. Hammes-Schiffer,  T. Head-Gordon,  W. J. Hehre,  Chao-Ping Hsu,  
 T.-C. Jagau,  Yousung Jung,  A. Klamt,  Jing Kong,  D. S. Lambrecht,  
 WanZhen Liang,  N. J. Mayhall,  C. W. McCurdy,  J. B. Neaton,  
 C. Ochsenfeld,  J. A. Parkhill,  R. Peverati,  V. A. Rassolov,  Yihan Shao,  
 L. V. Slipchenko,  T. Stauch,  R. P. Steele,  J. E. Subotnik,  
 A. J. W. Thom,  A. Tkatchenko,  D. G. Truhlar,  T. Van Voorhis,  
 T. A. Wesolowski,  K. B. Whaley,  H. L. Woodcock III,  P. M. Zimmerman,  
 S. Faraji,  P. M. W. Gill,  M. Head-Gordon,  J. M. Herbert,  A. I. Krylov

 Additional authors for Version 5.4.1: 
 S. Kotaru,  Shaozhi Li,  Xiangyuan Li,  F. Matz,  A. Molle,  Haisheng Ren,  
 Yingli Su,  Hung-Yi Tsai,  C. Utku,  Fang Wang

 Contributors to earlier versions of Q-Chem not listed above: 
 R. D. Adamson,  B. Austin,  R. Baer,  J. Baker,  G. J. O. Beran,  
 K. Brandhorst,  S. T. Brown,  E. F. C. Byrd,  A. K. Chakraborty,  
 G. K. L. Chan,  Chun-Min Chang,  Yunqing Chen,  C.-L. Cheng,  
 Siu Hung Chien,  D. M. Chipman,  D. L. Crittenden,  H. Dachsel,  
 R. J. Doerksen,  A. D. Dutoi,  R. G. Edgar,  J. Fosso-Tande,  
 L. Fusti-Molnar,  D. Ghosh,  A. Ghysels,  A. Golubeva-Zadorozhnaya,  
 J. Gonthier,  M. S. Gordon,  S. R. Gwaltney,  G. Hawkins,  J. E. Herr,  
 A. Heyden,  S. Hirata,  E. G. Hohenstein,  G. Kedziora,  F. J. Keil,  
 C. Kelley,  Jihan Kim,  R. A. King,  R. Z. Khaliullin,  P. P. Korambath,  
 W. Kurlancheek,  A. Laurent,  A. M. Lee,  M. S. Lee,  S. V. Levchenko,  
 Ching Yeh Lin,  D. Liotard,  E. Livshits,  R. C. Lochan,  I. Lotan,  
 L. A. Martinez-Martinez,  P. E. Maslen,  N. Nair,  D. P. O'Neill,  
 D. Neuhauser,  E. Neuscamman,  C. M. Oana,  R. Olivares-Amaya,  R. Olson,  
 T. M. Perrine,  B. Peters,  P. A. Pieniazek,  A. Prociuk,  Y. M. Rhee,  
 J. Ritchie,  M. A. Rohrdanz,  E. Rosta,  N. J. Russ,  H. F. Schaefer III,  
 M. W. Schmidt,  N. E. Schultz,  S. Sharma,  N. Shenvi,  C. D. Sherrill,  
 A. C. Simmonett,  A. Sodt,  T. Stein,  D. Stuck,  K. S. Thanthiriwatte,  
 V. Vanovschi,  L. Vogt,  Tao Wang,  A. Warshel,  M. A. Watson,  
 C. F. Williams,  Q. Wu,  X. Xu,  Jun Yang,  W. Zhang,  Yan Zhao

 Please cite Q-Chem as follows:
 Y. Shao et al., Mol. Phys. 113, 184-215 (2015)
 DOI: 10.1080/00268976.2014.952696

 Q-Chem 5.4.1 for Intel X86 EM64T Linux

 Parts of Q-Chem use Armadillo 9.800.1 (Horizon Scraper).
 http://arma.sourceforge.net/

 Q-Chem begins on Tue Mar 21 11:34:37 2023  

 Host: cpu186.baobab
0

     Scratch files written to /scratch/fum/qchem59265//
 Processing $rem in /home/share/wesolowski/qc5.aug2021.FDE/config/preferences:
 Processing $rem in /home/fum/.qchemrc:

 Checking the input file for inconsistencies... 	...done.

--------------------------------------------------------------
User input:
--------------------------------------------------------------
$comment
generated from CCJob.Templates
$end

$rem
sym_ignore = true
method = adc(2)
ee_states = 10
basis = cc-pVDZ
mem_static = 1024
mem_total = 40000
adc_davidson_maxiter = 900
adc_davidson_conv = 6
adc_print = 3
adc_prop_es = true
adc_prop_es2es = true
adc_prop_tpa = true
molden_format = True
state_analysis = true
print_orbitals = 15
gen_scfman = false
fde_export_density = true
fde_details = 3
$end

$molecule
0 1
H -0.021463507614903784 -0.24717561786445874 0.06597449314858479
C -1.0776361348491572 -0.524452351294009 -0.0019237804784669106
H -1.3012062046993025 -1.5929405442181015 -0.07889597828562192
C -2.044164124906399 0.3941229623499651 0.009480339387228278
H -1.8212516679457789 1.4624479893053328 0.0840818596142795
H -3.100965619130172 0.1166822273517108 -0.060689872019928634                     
$end
--------------------------------------------------------------
 ----------------------------------------------------------------
             Standard Nuclear Orientation (Angstroms)
    I     Atom           X                Y                Z
 ----------------------------------------------------------------
    1      H      -0.0214635076    -0.2471756179     0.0659744931
    2      C      -1.0776361348    -0.5244523513    -0.0019237805
    3      H      -1.3012062047    -1.5929405442    -0.0788959783
    4      C      -2.0441641249     0.3941229623     0.0094803394
    5      H      -1.8212516679     1.4624479893     0.0840818596
    6      H      -3.1009656191     0.1166822274    -0.0606898720
 ----------------------------------------------------------------
 Nuclear Repulsion Energy =          33.20991195 hartrees
 There are        8 alpha and        8 beta electrons
 Requested basis set is cc-pVDZ
 There are 24 shells and 48 basis functions
 Total memory of 40000 MB is distributed as follows: 
   MEM_STATIC is set to 1024 MB
   QALLOC/CCMAN JOB total memory use is  38976 MB
 Warning: actual memory use might exceed 40000 MB

 Total QAlloc Memory Limit  40000 MB
 Mega-Array Size      1001 MB
 MEM_STATIC part      1024 MB

                       Distance Matrix (Angstroms)
             H (  1)   C (  2)   H (  3)   C (  4)   H (  5)
   C (  2)  1.094072
   H (  3)  1.862743  1.094338
   C (  4)  2.122681  1.333449  2.123257
   H (  5)  2.482414  2.123237  3.103612  1.093880
   H (  6)  3.103509  2.123292  2.482393  1.094864  1.862716

 A cutoff of  1.0D-11 yielded    300 shell pairs
 There are      1220 function pairs (      1329 Cartesian)
 Smallest overlap matrix eigenvalue = 4.81E-03

 Scale SEOQF with 1.000000e-01/1.000000e-01/1.000000e+00

 Standard Electronic Orientation quadrupole field applied
 Nucleus-field energy     =     0.0000000022 hartrees
 Guess from superposition of atomic densities
 Warning:  Energy on first SCF cycle will be non-variational
 SAD guess density has 16.000000 electrons
 A restricted Hartree-Fock SCF calculation will be
 performed using Pulay DIIS extrapolation
 SCF converges when DIIS error is below 1.0E-08
 using 10 threads for integral computing
 -------------------------------------------------------
 OpenMP Integral computing Module                
 Release: version 1.0, May 2013, Q-Chem Inc. Pittsburgh 
 -------------------------------------------------------
 ---------------------------------------
  Cycle       Energy         DIIS Error
 ---------------------------------------
    1     -78.3977747566      9.93E-02
    2     -78.0175890215      7.13E-03
    3     -78.0380550491      1.83E-03
    4     -78.0395311735      5.64E-04
    5     -78.0396487878      5.81E-05
    6     -78.0396506512      9.29E-06
    7     -78.0396507126      1.95E-06
    8     -78.0396507153      1.90E-07
    9     -78.0396507153      7.85E-08
   10     -78.0396507153      9.40E-09 Convergence criterion met
 ---------------------------------------
 SCF time:  CPU 1.95 s  wall 2.25 s
 SCF   energy in the final basis set = -78.03965072
 Total energy in the final basis set = -78.03965072
Exporting Density Matrix to file 'Densmat_SCF.txt'.
Export successful
================================================================================
|                                                                              |
|                                 A D C  M A N                                 |
|                                                                              |
 ------------------------------------------------------------------------------ 
|                                                                              |
| Components:                                                                  |
|                                                                              |
| - libvmm - 1.3-trunk                                                         |
|   Authors:                                                                   |
|   Evgeny Epifanovsky, Ilya Kaliman                                           |
|                                                                              |
| - libtensor - 2.5-trunk                                                      |
|   Authors:                                                                   |
|   Evgeny Epifanovsky, Michael Wormit, Dmitry Zuev, Sam Manzer,               |
|   Ilya Kaliman                                                               |
|                                                                              |
| - libwfa - 1.1-trunk                                                         |
|   Authors:                                                                   |
|   Felix Plasser, Stefanie Mewes (Baeppler), Benjamin Thomitzni,              |
|   Michael Wormit, Feng Chen, Anna I. Krylov, Pavel Pokhilko                  |
|                                                                              |
| - libadc - 1.1-trunk                                                         |
|   Authors:                                                                   |
|   Michael Wormit, Adrian L. Dempwolff, Philipp H. P. Harbach,                |
|   Caroline Krauter, Dirk Rehn, Matthias Schneider, Jan Wenzel                |
|                                                                              |
| - adcman - 2.6-trunk                                                         |
|   Authors:                                                                   |
|   Michael Wormit, Adrian L. Dempwolff, Philipp H. P. Harbach,                |
|   Caroline Krauter, Daniel Lefrancois, Jan-Michael Mewes, Dirk Rehn,         |
|   Matthias Schneider, Jan Wenzel, Andreas Dreuw                              |
|                                                                              |
| Authors of earlier versions of ADCMAN:                                       |
| Andreas Dreuw, Jan Hendrik Starcke, Dirk Rehn, Michael Wormit                |
|                                                                              |
================================================================================

 Created directory /scratch/fum/qchem59265/plots
  Import QC data ...  CPU 0.00 s  wall 0.00 s

 Alpha MOs, Restricted
 -- Occupied --                  
-11.239 -11.237  -1.030  -0.786  -0.635  -0.582  -0.500  -0.374
  1 A     2 A     3 A     4 A     5 A     6 A     7 A     8 A                  
 -- Virtual --                   
  0.168   0.203   0.231   0.236   0.303   0.463   0.580   0.609
  9 A    10 A    11 A    12 A    13 A    14 A    15 A    16 A                  
  0.689   0.705   0.776   0.807   0.858   0.928   0.971   1.006
 17 A    18 A    19 A    20 A    21 A    22 A    23 A    24 A                  
  1.130   1.237   1.241   1.263   1.291   1.593   1.728   1.744
 25 A    26 A    27 A    28 A    29 A    30 A    31 A    32 A                  
  1.811   1.852   1.854   1.901   1.963   1.972   2.224   2.248
 33 A    34 A    35 A    36 A    37 A    38 A    39 A    40 A                  
  2.356   2.423   2.493   2.623   2.679   2.795   3.099   3.369
 41 A    42 A    43 A    44 A    45 A    46 A    47 A    48 A                  

 Beta MOs, Restricted
 -- Occupied --                  
-11.239 -11.237  -1.030  -0.786  -0.635  -0.582  -0.500  -0.374
  1 A     2 A     3 A     4 A     5 A     6 A     7 A     8 A                  
 -- Virtual --                   
  0.168   0.203   0.231   0.236   0.303   0.463   0.580   0.609
  9 A    10 A    11 A    12 A    13 A    14 A    15 A    16 A                  
  0.689   0.705   0.776   0.807   0.858   0.928   0.971   1.006
 17 A    18 A    19 A    20 A    21 A    22 A    23 A    24 A                  
  1.130   1.237   1.241   1.263   1.291   1.593   1.728   1.744
 25 A    26 A    27 A    28 A    29 A    30 A    31 A    32 A                  
  1.811   1.852   1.854   1.901   1.963   1.972   2.224   2.248
 33 A    34 A    35 A    36 A    37 A    38 A    39 A    40 A                  
  2.356   2.423   2.493   2.623   2.679   2.795   3.099   3.369
 41 A    42 A    43 A    44 A    45 A    46 A    47 A    48 A                  
  Import AO data ...  CPU 0.00 s  wall 0.00 s
  Using point group: C1
  Irreducible representations in point group: A
  Molecular orbitals: 
  Occupied MOs:
  Block   0:   1 (  A) A   2 (  A) A   3 (  A) A   4 (  A) A   5 (  A) A
                  -11.24      -11.24       -1.03     -0.7859      -0.635
               6 (  A) A   7 (  A) A   8 (  A) A
                 -0.5823     -0.4995     -0.3744
  Block   1:   1 (  A) B   2 (  A) B   3 (  A) B   4 (  A) B   5 (  A) B
                  -11.24      -11.24       -1.03     -0.7859      -0.635
               6 (  A) B   7 (  A) B   8 (  A) B
                 -0.5823     -0.4995     -0.3744
  Virtual MOs:
  Block   0:   9 (  A) A  10 (  A) A  11 (  A) A  12 (  A) A  13 (  A) A
                  0.1679      0.2026       0.231      0.2364       0.303
              14 (  A) A  15 (  A) A  16 (  A) A  17 (  A) A  18 (  A) A
                  0.4628      0.5798      0.6089      0.6887      0.7048
              19 (  A) A  20 (  A) A  21 (  A) A  22 (  A) A
                  0.7757      0.8074      0.8584       0.928
  Block   1:  23 (  A) A  24 (  A) A  25 (  A) A  26 (  A) A  27 (  A) A
                  0.9706       1.006        1.13       1.237       1.241
              28 (  A) A  29 (  A) A  30 (  A) A  31 (  A) A  32 (  A) A
                   1.263       1.291       1.593       1.728       1.744
              33 (  A) A  34 (  A) A  35 (  A) A  36 (  A) A
                   1.811       1.852       1.854       1.901
  Block   2:  37 (  A) A  38 (  A) A  39 (  A) A  40 (  A) A  41 (  A) A
                   1.963       1.972       2.224       2.248       2.356
              42 (  A) A  43 (  A) A  44 (  A) A  45 (  A) A  46 (  A) A
                   2.423       2.493       2.623       2.679       2.795
              47 (  A) A  48 (  A) A
                   3.099       3.369
  Block   3:   9 (  A) B  10 (  A) B  11 (  A) B  12 (  A) B  13 (  A) B
                  0.1679      0.2026       0.231      0.2364       0.303
              14 (  A) B  15 (  A) B  16 (  A) B  17 (  A) B  18 (  A) B
                  0.4628      0.5798      0.6089      0.6887      0.7048
              19 (  A) B  20 (  A) B  21 (  A) B  22 (  A) B
                  0.7757      0.8074      0.8584       0.928
  Block   4:  23 (  A) B  24 (  A) B  25 (  A) B  26 (  A) B  27 (  A) B
                  0.9706       1.006        1.13       1.237       1.241
              28 (  A) B  29 (  A) B  30 (  A) B  31 (  A) B  32 (  A) B
                   1.263       1.291       1.593       1.728       1.744
              33 (  A) B  34 (  A) B  35 (  A) B  36 (  A) B
                   1.811       1.852       1.854       1.901
  Block   5:  37 (  A) B  38 (  A) B  39 (  A) B  40 (  A) B  41 (  A) B
                   1.963       1.972       2.224       2.248       2.356
              42 (  A) B  43 (  A) B  44 (  A) B  45 (  A) B  46 (  A) B
                   2.423       2.493       2.623       2.679       2.795
              47 (  A) B  48 (  A) B
                   3.099       3.369
  Import MO data ...  CPU 0.03 s  wall 0.01 s
  Import HF data ...  CPU 0.68 s  wall 0.19 s
  Import 2e integrals ...  CPU 1.14 s  wall 0.21 s

--------------------------------------------------------------------------------
                                   HF Summary                                   
--------------------------------------------------------------------------------
  Energy:                                                  -78.0396507153 a.u.
  Dip. moment [a.u.]:                  [   0.000183,    0.000212,   -0.001226]
  Total dipole [Debye]:                                               0.003197
  <r^2> [a.u.]:                        [ 175.754270,   35.300770,   11.683246]
  Total <r^2> [a.u.]:                                               222.738285
--------------------------------------------------------------------------------
  HF properties ...  CPU 0.03 s  wall 0.02 s
  MP(1) calculation ...  CPU 0.01 s  wall 0.01 s
  N^6 prerequesite intermediates ...  CPU 0.57 s  wall 0.10 s
  Difference density matrix of state mp2_gs printed to ASCII file 'State_mp2_gs_Difference.txt'
Exporting MP density matrix to file 'Densmat_MP.txt'.
Export successful
  Total density matrix of state mp2_gs printed to ASCII file 'State_mp2_gs_Total.txt'
Exporting MP density matrix to file 'Densmat_MP.txt'.
Export successful

--------------------------------------------------------------------------------
                                 MP(2) Summary                                  
--------------------------------------------------------------------------------
  MP energy contribution:                                   -0.2804887948 a.u.
  Total energy:                                            -78.3201395102 a.u.
  Dip. moment [a.u.]:                  [   0.000155,    0.000179,   -0.001214]
  Total dipole [Debye]:                                               0.003143
  <r^2> [a.u.]:                        [ 175.794189,   35.336688,   11.510859]
  Total <r^2> [a.u.]:                                               222.641735

  Density matrix analysis:
  ------------------------
  NOs
    Occupation of frontier NOs:
       0.0455   1.9380
    Number of electrons: 16.000000
    Number of unpaired electrons: n_u =  0.40725, n_u,nl =  0.04580
    NO participation ratio (PR_NO): 13.896560
  
  
  Mulliken Population Analysis
  Atom      Charge (e)              h+              e-           Del q
  --------------------------------------------------------------------
   1 H        0.054914        0.013911       -0.011308        0.002603
   2 C       -0.109814        0.094586       -0.099782       -0.005196
   3 H        0.055010        0.013904       -0.011309        0.002594
   4 C       -0.110079        0.094602       -0.099798       -0.005195
   5 H        0.054917        0.013909       -0.011309        0.002599
   6 H        0.055051        0.013904       -0.011309        0.002595
  --------------------------------------------------------------------
  Sum:        0.000000        0.244816       -0.244816       -0.000000
  
  Multipole moment analysis of the density matrix
    Molecular charge:                      0.000000
    Number of electrons:                   16.000000
      Center of electronic charge [Ang]: [ -1.560986,  -0.065191,   0.003528]
    Total nuclear charge:                  16.000000
      Center of nuclear charge [Ang]:    [ -1.560981,  -0.065185,   0.003488]
    Dipole moment [D]:                     0.003143
      Cartesian components [D]:          [  0.000394,   0.000456,  -0.003085]
    RMS size of the density [Ang]:         1.206519
      Cartesian components [Ang]:        [  0.800022,   0.783712,   0.448830]
  
  Exciton analysis of the difference density matrix
    <r_h> [Ang]:                  [ -1.561100,  -0.065255,   0.003717]
    <r_e> [Ang]:                  [ -1.561040,  -0.065185,   0.003690]
    |<r_e - r_h>| [Ang]:            0.000096
    Hole size [Ang]:                1.401654
      Cartesian components [Ang]: [  0.853021,   0.840223,   0.728709]
    Electron size [Ang]:            1.361761
      Cartesian components [Ang]: [  0.879484,   0.864331,   0.577784]
--------------------------------------------------------------------------------
  MP(2) calculation ...  CPU 0.47 s  wall 0.25 s
  Start ADC(2)-s ...  CPU 0.02 s  wall 0.01 s
  ADC(2) intermediates ...  CPU 0.04 s  wall 0.01 s
  Starting Davidson for singlet states of irrep A ... 
--------------------------------------------------------------------------------
   It NVec Conv  Avg. Norm  Max. Norm  Conv. states           Remark
--------------------------------------------------------------------------------
        10    0  1.329e-01  4.687e-01  0.4117 n n n n n n n n Guess.
    1   20    0  2.314e-02  1.125e-01  0.3261 n n n n n n n n 
    2   30    0  5.911e-03  2.462e-02  0.3213 n n n n n n n n 
    3   40    0  1.953e-03  1.049e-02  0.3209 n n n n n n n n 
    4   50    0  5.172e-04  3.451e-03  0.3209 n n n n n n n n 
    5   20    0  2.634e-04  1.667e-03  0.3209 n n n n n n n n Subspace collapsed.
    6   30    0  1.222e-04  7.780e-04  0.3209 n n n n n n n n 
    7   40    0  9.926e-05  7.760e-04  0.3209 n n n n n n n n 
    8   50    0  5.356e-05  3.361e-04  0.3209 n n n n n n n n 
    9   20    0  2.956e-05  1.962e-04  0.3209 n n n n n n n n Subspace collapsed.
   10   30    3  2.365e-05  1.840e-04  0.3209 n y y y n n n n 
   11   40    5  1.048e-05  8.202e-05  0.3209 y y y y y n n n 
   12   50    6  5.485e-06  3.501e-05  0.3209 y y y y y y n n 
   13   20    6  3.061e-06  1.720e-05  0.3209 y y y y y y n n Subspace collapsed.
   14   30    6  3.439e-06  1.998e-05  0.3209 y y y y y y n n 
   15   40    6  2.663e-06  1.805e-05  0.3209 y y y y y y n n 
   16   50    6  2.365e-06  1.646e-05  0.3209 y y y y y y n n 
   17   20    6  1.219e-06  8.358e-06  0.3209 y y y y y y n n Subspace collapsed.
   18   30    7  1.009e-06  6.963e-06  0.3209 y y y y y y y n 
   19   40    7  6.156e-07  4.305e-06  0.3209 y y y y y y y n 
   20   50    7  7.666e-07  5.363e-06  0.3209 y y y y y y y n 
   21   20    8  3.175e-07  2.255e-06  0.3209 y y y y y y y y Subspace collapsed.
   22   30    8  4.750e-07  3.493e-06  0.3209 y y y y y y y y 
   23   32    8  4.747e-07  3.492e-06  0.3209 y y y y y y y y 
   24   34    8  4.758e-07  3.498e-06  0.3209 y y y y y y y y 
   25   35    8  4.770e-07  3.508e-06  0.3209 y y y y y y y y 
   26   35    8  4.770e-07  3.508e-06  0.3209 y y y y y y y y 
   27   45    8  4.618e-07  3.657e-06  0.3209 y y y y y y y y 
   28   50    8  4.727e-07  3.972e-06  0.3209 y y y y y y y y 
   29   17    8  2.673e-07  2.263e-06  0.3209 y y y y y y y y Subspace collapsed.
   30   23    8  2.261e-07  1.905e-06  0.3209 y y y y y y y y 
   31   29    9  1.473e-07  1.263e-06  0.3209 y y y y y y y y 
   32   34    9  1.689e-07  1.495e-06  0.3209 y y y y y y y y 
   33   39    9  1.668e-07  1.539e-06  0.3209 y y y y y y y y 
   34   39    9  1.668e-07  1.539e-06  0.3209 y y y y y y y y 
   35   49    9  1.151e-07  1.087e-06  0.3209 y y y y y y y y 
   36   50    9  1.139e-07  1.076e-06  0.3209 y y y y y y y y 
   37   14   10  5.493e-08  5.204e-07  0.3209 y y y y y y y y Converged.
--------------------------------------------------------------------------------
  Davidson Summary: 
 ------------------------------------------------------------
  State  0: excitation energy =   0.3209 a.u.   (converged)
  State  1: excitation energy =   0.3290 a.u.   (converged)
  State  2: excitation energy =   0.3359 a.u.   (converged)
  State  3: excitation energy =   0.3579 a.u.   (converged)
  State  4: excitation energy =   0.3733 a.u.   (converged)
  State  5: excitation energy =   0.3866 a.u.   (converged)
  State  6: excitation energy =   0.4202 a.u.   (converged)
  State  7: excitation energy =   0.4435 a.u.   (converged)
  State  8: excitation energy =   0.4537 a.u.   (converged)
  State  9: excitation energy =   0.4585 a.u.   (converged)
 ------------------------------------------------------------

  Singlet states of irrep A ...  CPU 236.72 s  wall 76.54 s
  TDMs ...  CPU 3.06 s  wall 1.11 s
  SDMs ...  CPU 5.04 s  wall 1.55 s
  Starting TPA DIIS iterations ... 
------------------------------------ 
   It     Res. Norm  Remark
------------------------------------
                       Guess.
    1     4.396e+00  
    2     5.832e+00  
    3     1.086e+00  
    4     2.635e-01  
    5     6.571e-02  
    6     2.779e-02  
    7     8.478e-03  
    8     1.553e-03  
    9     5.833e-04  
   10     9.784e-05  
   11     3.160e-05  
   12     4.890e-06  
   13     1.656e-06  
   14     4.804e-07  Converged.
   ... Converged in 14 steps (norm: 4.80371e-07)
------------------------------------
  Starting TPA DIIS iterations ... 
------------------------------------ 
   It     Res. Norm  Remark
------------------------------------
                       Guess.
    1     4.189e+00  
    2     5.547e+00  
    3     1.037e+00  
    4     2.613e-01  
    5     6.544e-02  
    6     2.776e-02  
    7     8.333e-03  
    8     1.569e-03  
    9     5.914e-04  
   10     9.724e-05  
   11     3.183e-05  
   12     4.853e-06  
   13     1.678e-06  
   14     4.761e-07  Converged.
   ... Converged in 14 steps (norm: 4.76086e-07)
------------------------------------
  Starting TPA DIIS iterations ... 
------------------------------------ 
   It     Res. Norm  Remark
------------------------------------
                       Guess.
    1     6.870e-01  
    2     4.828e-01  
    3     1.699e-01  
    4     8.148e-02  
    5     1.820e-02  
    6     6.467e-03  
    7     1.074e-03  
    8     4.590e-04  
    9     1.264e-04  
   10     3.091e-05  
   11     5.172e-06  
   12     1.908e-06  
   13     1.064e-06  
   14     3.491e-07  Converged.
   ... Converged in 14 steps (norm: 3.49059e-07)
------------------------------------
  Starting TPA DIIS iterations ... 
------------------------------------ 
   It     Res. Norm  Remark
------------------------------------
                       Guess.
    1     4.592e+00  
    2     6.184e+00  
    3     1.142e+00  
    4     2.835e-01  
    5     7.139e-02  
    6     3.040e-02  
    7     9.260e-03  
    8     1.695e-03  
    9     6.398e-04  
   10     1.078e-04  
   11     3.504e-05  
   12     5.455e-06  
   13     1.857e-06  
   14     5.371e-07  Converged.
   ... Converged in 14 steps (norm: 5.37126e-07)
------------------------------------
  Starting TPA DIIS iterations ... 
------------------------------------ 
   It     Res. Norm  Remark
------------------------------------
                       Guess.
    1     4.375e+00  
    2     5.881e+00  
    3     1.090e+00  
    4     2.810e-01  
    5     7.110e-02  
    6     3.037e-02  
    7     9.102e-03  
    8     1.714e-03  
    9     6.490e-04  
   10     1.071e-04  
   11     3.529e-05  
   12     5.412e-06  
   13     1.884e-06  
   14     5.323e-07  Converged.
   ... Converged in 14 steps (norm: 5.32317e-07)
------------------------------------
  Starting TPA DIIS iterations ... 
------------------------------------ 
   It     Res. Norm  Remark
------------------------------------
                       Guess.
    1     6.954e-01  
    2     4.949e-01  
    3     1.767e-01  
    4     8.884e-02  
    5     1.914e-02  
    6     6.895e-03  
    7     1.167e-03  
    8     5.144e-04  
    9     1.441e-04  
   10     3.424e-05  
   11     5.642e-06  
   12     2.128e-06  
   13     1.222e-06  
   14     3.999e-07  Converged.
   ... Converged in 14 steps (norm: 3.99883e-07)
------------------------------------
  Starting TPA DIIS iterations ... 
------------------------------------ 
   It     Res. Norm  Remark
------------------------------------
                       Guess.
    1     4.771e+00  
    2     6.510e+00  
    3     1.193e+00  
    4     3.023e-01  
    5     7.675e-02  
    6     3.287e-02  
    7     1.000e-02  
    8     1.829e-03  
    9     6.935e-04  
   10     1.172e-04  
   11     3.834e-05  
   12     5.998e-06  
   13     2.053e-06  
   14     5.917e-07  Converged.
   ... Converged in 14 steps (norm: 5.91694e-07)
------------------------------------
  Starting TPA DIIS iterations ... 
------------------------------------ 
   It     Res. Norm  Remark
------------------------------------
                       Guess.
    1     4.545e+00  
    2     6.191e+00  
    3     1.138e+00  
    4     2.995e-01  
    5     7.644e-02  
    6     3.285e-02  
    7     9.830e-03  
    8     1.851e-03  
    9     7.037e-04  
   10     1.165e-04  
   11     3.860e-05  
   12     5.949e-06  
   13     2.083e-06  
   14     5.864e-07  Converged.
   ... Converged in 14 steps (norm: 5.86435e-07)
------------------------------------
  Starting TPA DIIS iterations ... 
------------------------------------ 
   It     Res. Norm  Remark
------------------------------------
                       Guess.
    1     7.028e-01  
    2     5.058e-01  
    3     1.829e-01  
    4     9.581e-02  
    5     2.000e-02  
    6     7.299e-03  
    7     1.256e-03  
    8     5.687e-04  
    9     1.614e-04  
   10     3.698e-05  
   11     6.082e-06  
   12     2.342e-06  
   13     1.379e-06  
   14     4.499e-07  Converged.
   ... Converged in 14 steps (norm: 4.49856e-07)
------------------------------------
  Starting TPA DIIS iterations ... 
------------------------------------ 
   It     Res. Norm  Remark
------------------------------------
                       Guess.
    1     5.421e+00  
    2     7.719e+00  
    3     1.377e+00  
    4     3.746e-01  
    5     9.727e-02  
    6     4.243e-02  
    7     1.284e-02  
    8     2.342e-03  
    9     9.010e-04  
   10     1.537e-04  
   11     5.135e-05  
   12     8.145e-06  
   13     2.845e-06  
   14     8.087e-07  Converged.
   ... Converged in 14 steps (norm: 8.08669e-07)
------------------------------------
  Starting TPA DIIS iterations ... 
------------------------------------ 
   It     Res. Norm  Remark
------------------------------------
                       Guess.
    1     5.162e+00  
    2     7.340e+00  
    3     1.313e+00  
    4     3.704e-01  
    5     9.690e-02  
    6     4.246e-02  
    7     1.262e-02  
    8     2.374e-03  
    9     9.151e-04  
   10     1.529e-04  
   11     5.164e-05  
   12     8.070e-06  
   13     2.889e-06  
   14     8.023e-07  Converged.
   ... Converged in 14 steps (norm: 8.02268e-07)
------------------------------------
  Starting TPA DIIS iterations ... 
------------------------------------ 
   It     Res. Norm  Remark
------------------------------------
                       Guess.
    1     7.272e-01  
    2     5.432e-01  
    3     2.046e-01  
    4     1.225e-01  
    5     2.321e-02  
    6     8.841e-03  
    7     1.608e-03  
    8     7.867e-04  
    9     2.297e-04  
   10     4.389e-05  
   11     7.753e-06  
   12     3.181e-06  
   13     2.024e-06  
   14     6.557e-07  Converged.
   ... Converged in 14 steps (norm: 6.5573e-07)
------------------------------------
  Starting TPA DIIS iterations ... 
------------------------------------ 
   It     Res. Norm  Remark
------------------------------------
                       Guess.
    1     5.971e+00  
    2     8.777e+00  
    3     1.531e+00  
    4     4.403e-01  
    5     1.159e-01  
    6     5.124e-02  
    7     1.542e-02  
    8     2.807e-03  
    9     1.092e-03  
   10     1.874e-04  
   11     6.357e-05  
   12     1.016e-05  
   13     3.611e-06  
   14     1.017e-06  
   15     3.606e-07  Converged.
   ... Converged in 15 steps (norm: 3.60607e-07)
------------------------------------
  Starting TPA DIIS iterations ... 
------------------------------------ 
   It     Res. Norm  Remark
------------------------------------
                       Guess.
    1     5.685e+00  
    2     8.345e+00  
    3     1.460e+00  
    4     4.347e-01  
    5     1.155e-01  
    6     5.131e-02  
    7     1.516e-02  
    8     2.849e-03  
    9     1.110e-03  
   10     1.864e-04  
   11     6.386e-05  
   12     1.006e-05  
   13     3.668e-06  
   14     1.010e-06  
   15     3.490e-07  Converged.
   ... Converged in 15 steps (norm: 3.48988e-07)
------------------------------------
  Starting TPA DIIS iterations ... 
------------------------------------ 
   It     Res. Norm  Remark
------------------------------------
                       Guess.
    1     7.456e-01  
    2     5.730e-01  
    3     2.225e-01  
    4     1.465e-01  
    5     2.601e-02  
    6     1.024e-02  
    7     1.945e-03  
    8     9.862e-04  
    9     2.905e-04  
   10     4.670e-05  
   11     9.288e-06  
   12     3.949e-06  
   13     2.647e-06  
   14     8.589e-07  Converged.
   ... Converged in 14 steps (norm: 8.58899e-07)
------------------------------------
  Starting TPA DIIS iterations ... 
------------------------------------ 
   It     Res. Norm  Remark
------------------------------------
                       Guess.
    1     6.522e+00  
    2     9.867e+00  
    3     1.685e+00  
    4     5.100e-01  
    5     1.357e-01  
    6     6.069e-02  
    7     1.816e-02  
    8     3.299e-03  
    9     1.296e-03  
   10     2.235e-04  
   11     7.678e-05  
   12     1.234e-05  
   13     4.456e-06  
   14     1.249e-06  
   15     4.574e-07  Converged.
   ... Converged in 15 steps (norm: 4.5742e-07)
------------------------------------
  Starting TPA DIIS iterations ... 
------------------------------------ 
   It     Res. Norm  Remark
------------------------------------
                       Guess.
    1     6.208e+00  
    2     9.380e+00  
    3     1.606e+00  
    4     5.029e-01  
    5     1.352e-01  
    6     6.082e-02  
    7     1.786e-02  
    8     3.353e-03  
    9     1.318e-03  
   10     2.223e-04  
   11     7.705e-05  
   12     1.222e-05  
   13     4.526e-06  
   14     1.244e-06  
   15     4.392e-07  Converged.
   ... Converged in 15 steps (norm: 4.39155e-07)
------------------------------------
  Starting TPA DIIS iterations ... 
------------------------------------ 
   It     Res. Norm  Remark
------------------------------------
                       Guess.
    1     7.622e-01  
    2     6.015e-01  
    3     2.400e-01  
    4     1.713e-01  
    5     2.891e-02  
    6     1.173e-02  
    7     2.319e-03  
    8     1.186e-03  
    9     3.510e-04  
   10     4.820e-05  
   11     1.096e-05  
   12     4.752e-06  
   13     3.313e-06  
   14     1.087e-06  
   15     3.588e-07  Converged.
   ... Converged in 15 steps (norm: 3.5885e-07)
------------------------------------
  Starting TPA DIIS iterations ... 
------------------------------------ 
   It     Res. Norm  Remark
------------------------------------
                       Guess.
    1     8.342e+00  
    2     1.366e+01  
    3     2.185e+00  
    4     7.636e-01  
    5     2.077e-01  
    6     9.579e-02  
    7     2.815e-02  
    8     5.086e-03  
    9     2.053e-03  
   10     3.569e-04  
   11     1.253e-04  
   12     2.048e-05  
   13     7.654e-06  
   14     2.203e-06  
   15     8.744e-07  Converged.
   ... Converged in 15 steps (norm: 8.74434e-07)
------------------------------------
  Starting TPA DIIS iterations ... 
------------------------------------ 
   It     Res. Norm  Remark
------------------------------------
                       Guess.
    1     7.936e+00  
    2     1.298e+01  
    3     2.081e+00  
    4     7.501e-01  
    5     2.070e-01  
    6     9.616e-02  
    7     2.770e-02  
    8     5.184e-03  
    9     2.088e-03  
   10     3.550e-04  
   11     1.254e-04  
   12     2.026e-05  
   13     7.760e-06  
   14     2.209e-06  
   15     8.148e-07  Converged.
   ... Converged in 15 steps (norm: 8.14811e-07)
------------------------------------
  Starting TPA DIIS iterations ... 
------------------------------------ 
   It     Res. Norm  Remark
------------------------------------
                       Guess.
    1     8.082e-01  
    2     6.877e-01  
    3     2.949e-01  
    4     2.533e-01  
    5     3.907e-02  
    6     1.712e-02  
    7     3.784e-03  
    8     1.731e-03  
    9     5.365e-04  
   10     5.597e-05  
   11     1.748e-05  
   12     7.495e-06  
   13     5.497e-06  
   14     2.000e-06  
   15     5.806e-07  Converged.
   ... Converged in 15 steps (norm: 5.80555e-07)
------------------------------------
  Starting TPA DIIS iterations ... 
------------------------------------ 
   It     Res. Norm  Remark
------------------------------------
                       Guess.
    1     1.014e+01  
    2     1.766e+01  
    3     2.668e+00  
    4     1.042e+00  
    5     2.873e-01  
    6     1.356e-01  
    7     3.921e-02  
    8     7.055e-03  
    9     2.905e-03  
   10     5.061e-04  
   11     1.773e-04  
   12     2.978e-05  
   13     1.127e-05  
   14     3.441e-06  
   15     1.504e-06  
   16     3.929e-07  Converged.
   ... Converged in 16 steps (norm: 3.92912e-07)
------------------------------------
  Starting TPA DIIS iterations ... 
------------------------------------ 
   It     Res. Norm  Remark
------------------------------------
                       Guess.
    1     9.644e+00  
    2     1.679e+01  
    3     2.539e+00  
    4     1.020e+00  
    5     2.865e-01  
    6     1.362e-01  
    7     3.860e-02  
    8     7.206e-03  
    9     2.956e-03  
   10     5.033e-04  
   11     1.774e-04  
   12     2.950e-05  
   13     1.140e-05  
   14     3.451e-06  
   15     1.367e-06  
   16     3.252e-07  Converged.
   ... Converged in 16 steps (norm: 3.2522e-07)
------------------------------------
  Starting TPA DIIS iterations ... 
------------------------------------ 
   It     Res. Norm  Remark
------------------------------------
                       Guess.
    1     8.445e-01  
    2     7.650e-01  
    3     3.458e-01  
    4     3.260e-01  
    5     4.975e-02  
    6     2.283e-02  
    7     5.493e-03  
    8     2.032e-03  
    9     7.000e-04  
   10     7.319e-05  
   11     2.524e-05  
   12     1.030e-05  
   13     7.468e-06  
   14     3.088e-06  
   15     9.278e-07  Converged.
   ... Converged in 15 steps (norm: 9.27753e-07)
------------------------------------
  Starting TPA DIIS iterations ... 
------------------------------------ 
   It     Res. Norm  Remark
------------------------------------
                       Guess.
    1     1.113e+01  
    2     1.997e+01  
    3     2.928e+00  
    4     1.204e+00  
    5     3.343e-01  
    6     1.594e-01  
    7     4.574e-02  
    8     8.214e-03  
    9     3.413e-03  
   10     5.945e-04  
   11     2.069e-04  
   12     3.550e-05  
   13     1.351e-05  
   14     4.243e-06  
   15     2.000e-06  
   16     5.605e-07  Converged.
   ... Converged in 16 steps (norm: 5.60464e-07)
------------------------------------
  Starting TPA DIIS iterations ... 
------------------------------------ 
   It     Res. Norm  Remark
------------------------------------
                       Guess.
    1     1.059e+01  
    2     1.898e+01  
    3     2.787e+00  
    4     1.177e+00  
    5     3.334e-01  
    6     1.603e-01  
    7     4.503e-02  
    8     8.396e-03  
    9     3.473e-03  
   10     5.911e-04  
   11     2.072e-04  
   12     3.519e-05  
   13     1.365e-05  
   14     4.245e-06  
   15     1.802e-06  
   16     4.324e-07  Converged.
   ... Converged in 16 steps (norm: 4.32409e-07)
------------------------------------
  Starting TPA DIIS iterations ... 
------------------------------------ 
   It     Res. Norm  Remark
------------------------------------
                       Guess.
    1     8.619e-01  
    2     8.054e-01  
    3     3.727e-01  
    4     3.608e-01  
    5     5.584e-02  
    6     2.600e-02  
    7     6.510e-03  
    8     2.122e-03  
    9     7.847e-04  
   10     8.508e-05  
   11     2.996e-05  
   12     1.194e-05  
   13     8.673e-06  
   14     3.760e-06  
   15     1.253e-06  
   16     1.176e-06  
   17     6.640e-07  Converged.
   ... Converged in 17 steps (norm: 6.6403e-07)
------------------------------------
  Starting TPA DIIS iterations ... 
------------------------------------ 
   It     Res. Norm  Remark
------------------------------------
                       Guess.
    1     1.165e+01  
    2     2.120e+01  
    3     3.063e+00  
    4     1.291e+00  
    5     3.595e-01  
    6     1.722e-01  
    7     4.925e-02  
    8     8.835e-03  
    9     3.687e-03  
   10     6.420e-04  
   11     2.226e-04  
   12     3.867e-05  
   13     1.477e-05  
   14     4.694e-06  
   15     2.310e-06  
   16     6.672e-07  Converged.
   ... Converged in 16 steps (norm: 6.67216e-07)
------------------------------------
  Starting TPA DIIS iterations ... 
------------------------------------ 
   It     Res. Norm  Remark
------------------------------------
                       Guess.
    1     1.108e+01  
    2     2.015e+01  
    3     2.915e+00  
    4     1.261e+00  
    5     3.585e-01  
    6     1.732e-01  
    7     4.849e-02  
    8     9.035e-03  
    9     3.752e-03  
   10     6.383e-04  
   11     2.230e-04  
   12     3.833e-05  
   13     1.490e-05  
   14     4.689e-06  
   15     2.072e-06  
   16     4.968e-07  Converged.
   ... Converged in 16 steps (norm: 4.96759e-07)
------------------------------------
  Starting TPA DIIS iterations ... 
------------------------------------ 
   It     Res. Norm  Remark
------------------------------------
                       Guess.
    1     8.704e-01  
    2     8.259e-01  
    3     3.864e-01  
    4     3.773e-01  
    5     5.905e-02  
    6     2.762e-02  
    7     7.053e-03  
    8     2.155e-03  
    9     8.276e-04  
   10     9.158e-05  
   11     3.252e-05  
   12     1.284e-05  
   13     9.396e-06  
   14     4.137e-06  
   15     1.467e-06  
   16     1.362e-06  
   17     7.890e-07  Converged.
   ... Converged in 17 steps (norm: 7.89034e-07)
------------------------------------
  Two-photon absorbption ...  CPU 161.47 s  wall 43.38 s
  Transition density matrix of state singlet_A_1 printed to ASCII file 'State_singlet_A_1_Transition.txt'
  Transition density matrix of state singlet_A_2 printed to ASCII file 'State_singlet_A_2_Transition.txt'
  Transition density matrix of state singlet_A_3 printed to ASCII file 'State_singlet_A_3_Transition.txt'
  Transition density matrix of state singlet_A_4 printed to ASCII file 'State_singlet_A_4_Transition.txt'
  Transition density matrix of state singlet_A_5 printed to ASCII file 'State_singlet_A_5_Transition.txt'
  Transition density matrix of state singlet_A_6 printed to ASCII file 'State_singlet_A_6_Transition.txt'
  Transition density matrix of state singlet_A_7 printed to ASCII file 'State_singlet_A_7_Transition.txt'
  Transition density matrix of state singlet_A_8 printed to ASCII file 'State_singlet_A_8_Transition.txt'
  Transition density matrix of state singlet_A_9 printed to ASCII file 'State_singlet_A_9_Transition.txt'
  Transition density matrix of state singlet_A_10 printed to ASCII file 'State_singlet_A_10_Transition.txt'
  Transition properties ...  CPU 0.34 s  wall 0.57 s
  Difference density matrix of state singlet_A_1 printed to ASCII file 'State_singlet_A_1_Difference.txt'
  Total density matrix of state singlet_A_1 printed to ASCII file 'State_singlet_A_1_Total.txt'
  Difference density matrix of state singlet_A_2 printed to ASCII file 'State_singlet_A_2_Difference.txt'
  Total density matrix of state singlet_A_2 printed to ASCII file 'State_singlet_A_2_Total.txt'
  Difference density matrix of state singlet_A_3 printed to ASCII file 'State_singlet_A_3_Difference.txt'
  Total density matrix of state singlet_A_3 printed to ASCII file 'State_singlet_A_3_Total.txt'
  Difference density matrix of state singlet_A_4 printed to ASCII file 'State_singlet_A_4_Difference.txt'
  Total density matrix of state singlet_A_4 printed to ASCII file 'State_singlet_A_4_Total.txt'
  Difference density matrix of state singlet_A_5 printed to ASCII file 'State_singlet_A_5_Difference.txt'
  Total density matrix of state singlet_A_5 printed to ASCII file 'State_singlet_A_5_Total.txt'
  Difference density matrix of state singlet_A_6 printed to ASCII file 'State_singlet_A_6_Difference.txt'
  Total density matrix of state singlet_A_6 printed to ASCII file 'State_singlet_A_6_Total.txt'
  Difference density matrix of state singlet_A_7 printed to ASCII file 'State_singlet_A_7_Difference.txt'
  Total density matrix of state singlet_A_7 printed to ASCII file 'State_singlet_A_7_Total.txt'
  Difference density matrix of state singlet_A_8 printed to ASCII file 'State_singlet_A_8_Difference.txt'
  Total density matrix of state singlet_A_8 printed to ASCII file 'State_singlet_A_8_Total.txt'
  Difference density matrix of state singlet_A_9 printed to ASCII file 'State_singlet_A_9_Difference.txt'
  Total density matrix of state singlet_A_9 printed to ASCII file 'State_singlet_A_9_Total.txt'
  Difference density matrix of state singlet_A_10 printed to ASCII file 'State_singlet_A_10_Difference.txt'
  Total density matrix of state singlet_A_10 printed to ASCII file 'State_singlet_A_10_Total.txt'
  Properties ...  CPU 0.72 s  wall 0.99 s
  ISR TDMS ...  CPU 28.59 s  wall 9.12 s
  ISR transition properties ...  CPU 0.60 s  wall 0.26 s
  Sum-over-states TPA ...  CPU 0.00 s  wall 0.00 s

--------------------------------------------------------------------------------
                   State-averaged natural transition orbitals
--------------------------------------------------------------------------------
--------------------------------------------------------------------------------
  SA-NTO decomposition ...  CPU 0.01 s  wall 0.04 s

--------------------------------------------------------------------------------
                             Excited State Summary
--------------------------------------------------------------------------------
--------------------------------------------------------------------------------

  Excited state 1 (singlet, A)                                     [converged]
  ----------------------------------------------------------------------------
  Term symbol:  2 (1) A                                     R^2 =  7.10939e-14

  Total energy:                                            -77.9992526062 a.u.
  Excitation energy:                                               8.731777 eV

  Osc. strength:                                                      0.446200
  Trans. dip. moment [a.u.]:           [   1.047066,   -0.994625,   -0.012518]
  <i|r^2|0> [a.u.]:                    [   6.178164,   -0.245991,    0.000329]
  Two-photon absorption cross-section (SoS) [a.u.]:                   0.000033
  Two-photon absorption matrix (SoS) [a.u.]:
                                       |    0.001176    0.000401    0.001383 |
                                       |    0.000401   -0.000323   -0.001101 |
                                       |    0.001383   -0.001101   -0.000122 |
  Two-photon absorption cross-section [a.u.]:                         0.000091
  Two-photon absorption matrix [a.u.]:
                                       |    0.000749    0.000191    0.002137 |
                                       |    0.000191   -0.000934   -0.002439 |
                                       |    0.002137   -0.002439   -0.000345 |

  Dip. moment [a.u.]:                  [   0.000164,    0.000153,   -0.001485]
  Total dipole [Debye]:                                               0.003818
  <r^2> [a.u.]:                        [ 176.540352,   36.023640,   11.921794]
  Total <r^2> [a.u.]:                                               224.485787

  V1^2 = 0.9713, V2^2 = 0.0287

  Important amplitudes:
      occ i     occ j     vir a      vir b          v   
    -----------------------------------------------------
     8 (A) A              9 (A) A                 0.6809
     6 (A) A             14 (A) A                -0.0617
     4 (A) A             10 (A) A                 0.0614
     7 (A) A             16 (A) A                -0.0575
     5 (A) A             13 (A) A                 0.0527
     6 (A) A             23 (A) A                -0.0485
     8 (A) A             20 (A) A                 0.0348
     6 (A) A             19 (A) A                 0.0302
     3 (A) A             12 (A) A                -0.0285
     5 (A) A             22 (A) A                 0.0218
     4 (A) A             24 (A) A                 0.0188
     3 (A) A             26 (A) A                 0.0187
     7 (A) A             11 (A) A                -0.0186
     8 (A) A   8 (A) B   17 (A) A   20 (A) B     -0.0184
     8 (A) A   8 (A) B    9 (A) A   28 (A) B      0.0168
     6 (A) A             26 (A) A                 0.0163
     7 (A) A             21 (A) A                -0.0152
     3 (A) A             14 (A) A                -0.0143
     6 (A) A             12 (A) A                 0.0136
     3 (A) A   4 (A) B    9 (A) A    9 (A) B     -0.0129
     3 (A) A             19 (A) A                 0.0121
     8 (A) A   8 (A) B   18 (A) A   19 (A) B     -0.0111
     7 (A) A             32 (A) A                -0.0097
     7 (A) A             36 (A) A                -0.0086
     3 (A) A             23 (A) A                -0.0082
     8 (A) A   8 (A) B   25 (A) A   29 (A) B     -0.0076
     6 (A) A             35 (A) A                 0.0072
     6 (A) A             40 (A) A                -0.0067
     3 (A) A   6 (A) B    9 (A) A   28 (A) B      0.0065
     5 (A) A   8 (A) B   11 (A) A    9 (A) B      0.0062
     7 (A) A   8 (A) B   13 (A) A   20 (A) B      0.0060
     5 (A) A   8 (A) B   11 (A) A   20 (A) B     -0.0060
     5 (A) A   7 (A) B    9 (A) A    9 (A) B      0.0060
     6 (A) A   8 (A) A   19 (A) A   28 (A) A     -0.0060
     5 (A) A             27 (A) A                -0.0060
     5 (A) A   8 (A) B   16 (A) A    9 (A) B     -0.0059
     3 (A) A   5 (A) B    9 (A) A   25 (A) B     -0.0058
     7 (A) A   8 (A) B   22 (A) A   20 (A) B      0.0057
     3 (A) A             40 (A) A                -0.0056
     8 (A) A   8 (A) B   19 (A) A   30 (A) B     -0.0056
    -----------------------------------------------------

  Density matrix analysis:
  ------------------------
  NOs
    Occupation of frontier NOs:
       0.9491   1.0219
    Number of electrons: 16.000000
    Number of unpaired electrons: n_u =  2.31679, n_u,nl =  2.03329
    NO participation ratio (PR_NO):  2.874061
  
  
  Mulliken Population Analysis
  Atom      Charge (e)              h+              e-           Del q
  --------------------------------------------------------------------
   1 H        0.062922        0.020431       -0.012423        0.008008
   2 C       -0.125837        0.490669       -0.506692       -0.016023
   3 H        0.063038        0.020444       -0.012416        0.008027
   4 C       -0.126126        0.490662       -0.506710       -0.016048
   5 H        0.062937        0.020439       -0.012420        0.008020
   6 H        0.063067        0.020440       -0.012424        0.008016
  --------------------------------------------------------------------
  Sum:        0.000000        1.063085       -1.063085       -0.000000
  
  Multipole moment analysis of the density matrix
    Molecular charge:                      0.000000
    Number of electrons:                   16.000000
      Center of electronic charge [Ang]: [ -1.560986,  -0.065190,   0.003537]
    Total nuclear charge:                  16.000000
      Center of nuclear charge [Ang]:    [ -1.560981,  -0.065185,   0.003488]
    Dipole moment [D]:                     0.003818
      Cartesian components [D]:          [  0.000418,   0.000388,  -0.003775]
    RMS size of the density [Ang]:         1.219820
      Cartesian components [Ang]:        [  0.808142,   0.791346,   0.456771]
  
  Exciton analysis of the difference density matrix
    <r_h> [Ang]:                  [ -1.560954,  -0.065206,   0.004139]
    <r_e> [Ang]:                  [ -1.560959,  -0.065193,   0.004274]
    |<r_e - r_h>| [Ang]:            0.000136
    Hole size [Ang]:                1.287299
      Cartesian components [Ang]: [  0.730110,   0.714902,   0.782939]
    Electron size [Ang]:            1.463854
      Cartesian components [Ang]: [  0.854163,   0.831888,   0.849257]

  Transition density matrix analysis:
  -----------------------------------
  
  CT numbers (Mulliken)
    omega =     0.9532
    <Phe> =    -0.1603
  
  Exciton analysis of the transition density matrix
    Trans. dipole moment [D]:             1.835425
      Cartesian components [D]:         [  1.330688,  -1.264043,  -0.015909]
    <r_h> [Ang]:                        [ -1.560919,  -0.065198,   0.004024]
    <r_e> [Ang]:                        [ -1.560971,  -0.065202,   0.004377]
    |<r_e - r_h>| [Ang]:                  0.000357
    Hole size [Ang]:                      1.214404
      Cartesian components [Ang]:       [  0.649847,   0.637188,   0.804031]
    Electron size [Ang]:                  1.486750
      Cartesian components [Ang]:       [  0.864626,   0.840768,   0.869458]
    RMS electron-hole separation [Ang]:   1.937173
      Cartesian components [Ang]:       [  1.106575,   1.076549,   1.170116]
    Covariance(r_h, r_e) [Ang^2]:        -0.033719
    Correlation coefficient:             -0.018675
    Center-of-mass size [Ang]:            0.951021
      Cartesian components [Ang]:       [  0.528027,   0.516439,   0.599098]

  Decomposition into state-averaged NTOs
    H- 0 -> L+ 0:  0.6697 ( 89.7%)
    H- 2 -> L+ 5:  0.0830 (  1.4%)
                   omega =  95.3%
  ----------------------------------------------------------------------------


  Excited state 2 (singlet, A)                                     [converged]
  ----------------------------------------------------------------------------
  Term symbol:  3 (1) A                                     R^2 =  7.00894e-14

  Total energy:                                            -77.9911440058 a.u.
  Excitation energy:                                               8.952423 eV

  Osc. strength:                                                      0.000001
  Trans. dip. moment [a.u.]:           [   0.000017,    0.001097,    0.001422]
  <i|r^2|0> [a.u.]:                    [  -0.062554,   -0.091980,    0.154889]
  Two-photon absorption cross-section (SoS) [a.u.]:                   4.564653
  Two-photon absorption matrix (SoS) [a.u.]:
                                       |   -0.044714   -0.057946    0.515485 |
                                       |   -0.057946   -0.072241    0.539475 |
                                       |    0.515485    0.539475    0.117103 |
  Two-photon absorption cross-section [a.u.]:                         0.174464
  Two-photon absorption matrix [a.u.]:
                                       |    0.025611    0.012126   -0.101037 |
                                       |    0.012126   -0.002789   -0.104223 |
                                       |   -0.101037   -0.104223   -0.022726 |

  Dip. moment [a.u.]:                  [   0.000499,    0.002077,   -0.002644]
  Total dipole [Debye]:                                               0.008640
  <r^2> [a.u.]:                        [ 174.872006,   34.377421,   13.217315]
  Total <r^2> [a.u.]:                                               222.466742

  V1^2 = 0.9541, V2^2 = 0.0459

  Important amplitudes:
      occ i     occ j     vir a      vir b          v   
    -----------------------------------------------------
     7 (A) A              9 (A) A                -0.6685
     8 (A) A             11 (A) A                 0.1513
     7 (A) A             20 (A) A                -0.0756
     5 (A) A   8 (A) B    9 (A) A    9 (A) B     -0.0315
     8 (A) A             16 (A) A                -0.0281
     8 (A) A             21 (A) A                 0.0178
     5 (A) A             28 (A) A                 0.0150
     4 (A) A   7 (A) B    9 (A) A   19 (A) B      0.0136
     5 (A) A   7 (A) B    9 (A) A   16 (A) B     -0.0134
     7 (A) A   8 (A) B   20 (A) A   17 (A) B      0.0106
     7 (A) A   8 (A) A    9 (A) A   28 (A) A      0.0098
     5 (A) A   8 (A) B    9 (A) A   20 (A) B     -0.0094
     4 (A) A   6 (A) B    9 (A) A   16 (A) B     -0.0091
     5 (A) A   6 (A) A    9 (A) A   23 (A) A     -0.0090
     5 (A) A   6 (A) A    9 (A) A   14 (A) A     -0.0089
     5 (A) A   6 (A) B    9 (A) A   19 (A) B      0.0086
     8 (A) A   7 (A) B    9 (A) A   28 (A) B     -0.0085
     6 (A) A   7 (A) B    9 (A) A   18 (A) B      0.0085
     4 (A) A   5 (A) A    9 (A) A   10 (A) A     -0.0085
     5 (A) A   6 (A) B    9 (A) A   23 (A) B     -0.0080
     3 (A) A   7 (A) B    9 (A) A   18 (A) B     -0.0080
     5 (A) A   7 (A) A    9 (A) A   16 (A) A     -0.0078
     4 (A) A   8 (A) B    9 (A) A   25 (A) B     -0.0076
     4 (A) A   7 (A) B   19 (A) A    9 (A) B      0.0075
     7 (A) A   8 (A) B   17 (A) A   20 (A) B      0.0074
     5 (A) A   5 (A) B    9 (A) A   13 (A) B      0.0073
     7 (A) A   8 (A) B   19 (A) A   18 (A) B      0.0071
     4 (A) A   5 (A) B    9 (A) A   18 (A) B      0.0069
     5 (A) A   8 (A) A    9 (A) A   20 (A) A     -0.0068
     7 (A) A   7 (A) B   20 (A) A   22 (A) B     -0.0066
     7 (A) A   8 (A) B   17 (A) A    9 (A) B      0.0065
     5 (A) A   6 (A) B    9 (A) A   14 (A) B     -0.0063
     5 (A) A   7 (A) B   11 (A) A   20 (A) B      0.0062
     4 (A) A   5 (A) B   10 (A) A    9 (A) B      0.0061
     4 (A) A   7 (A) A    9 (A) A   19 (A) A      0.0061
     5 (A) A             38 (A) A                -0.0060
     4 (A) A   6 (A) B   16 (A) A    9 (A) B     -0.0058
     4 (A) A   8 (A) A    9 (A) A   25 (A) A     -0.0057
     6 (A) A   7 (A) A   19 (A) A   28 (A) A      0.0056
     5 (A) A   7 (A) A   11 (A) A   20 (A) A      0.0054
    -----------------------------------------------------

  Density matrix analysis:
  ------------------------
  NOs
    Occupation of frontier NOs:
       0.9560   1.0553
    Number of electrons: 16.000000
    Number of unpaired electrons: n_u =  2.35842, n_u,nl =  2.06490
    NO participation ratio (PR_NO):  3.045396
  
  
  Mulliken Population Analysis
  Atom      Charge (e)              h+              e-           Del q
  --------------------------------------------------------------------
   1 H        0.155472        0.124980       -0.024421        0.100559
   2 C       -0.310043        0.272440       -0.472670       -0.200229
   3 H        0.154471        0.124645       -0.025185        0.099460
   4 C       -0.310254        0.272726       -0.472901       -0.200175
   5 H        0.155048        0.124465       -0.024334        0.100131
   6 H        0.155305        0.125515       -0.025260        0.100254
  --------------------------------------------------------------------
  Sum:        0.000000        1.044772       -1.044772       -0.000000
  
  Multipole moment analysis of the density matrix
    Molecular charge:                      0.000000
    Number of electrons:                   16.000000
      Center of electronic charge [Ang]: [ -1.560997,  -0.065254,   0.003576]
    Total nuclear charge:                  16.000000
      Center of nuclear charge [Ang]:    [ -1.560981,  -0.065185,   0.003488]
    Dipole moment [D]:                     0.008640
      Cartesian components [D]:          [  0.001269,   0.005280,  -0.006720]
    RMS size of the density [Ang]:         1.205231
      Cartesian components [Ang]:        [  0.789848,   0.772922,   0.480951]
  
  Exciton analysis of the difference density matrix
    <r_h> [Ang]:                  [ -1.562006,  -0.065339,   0.003284]
    <r_e> [Ang]:                  [ -1.562181,  -0.066300,   0.004008]
    |<r_e - r_h>| [Ang]:            0.001216
    Hole size [Ang]:                1.496148
      Cartesian components [Ang]: [  1.014885,   1.000204,   0.456135]
    Electron size [Ang]:            1.480162
      Cartesian components [Ang]: [  0.884464,   0.862073,   0.815740]

  Transition density matrix analysis:
  -----------------------------------
  
  CT numbers (Mulliken)
    omega =     0.9214
    <Phe> =    -0.0114
  
  Exciton analysis of the transition density matrix
    Trans. dipole moment [D]:             0.002283
      Cartesian components [D]:         [  0.000022,   0.001394,   0.001808]
    <r_h> [Ang]:                        [ -1.562105,  -0.065287,   0.003105]
    <r_e> [Ang]:                        [ -1.562169,  -0.066405,   0.004193]
    |<r_e - r_h>| [Ang]:                  0.001562
    Hole size [Ang]:                      1.527090
      Cartesian components [Ang]:       [  1.039810,   1.024853,   0.447745]
    Electron size [Ang]:                  1.475573
      Cartesian components [Ang]:       [  0.873388,   0.850269,   0.831596]
    RMS electron-hole separation [Ang]:   2.103545
      Cartesian components [Ang]:       [  1.341926,   1.316650,   0.943700]
    Covariance(r_h, r_e) [Ang^2]:         0.042211
    Correlation coefficient:              0.018733
    Center-of-mass size [Ang]:            1.071651
      Cartesian components [Ang]:       [  0.686888,   0.673238,   0.472622]

  Decomposition into state-averaged NTOs
    H- 1 -> L+ 0: -0.6608 ( 87.3%)
    H- 0 -> L+ 2: -0.1513 (  4.6%)
                   omega =  92.1%
  ----------------------------------------------------------------------------


  Excited state 3 (singlet, A)                                     [converged]
  ----------------------------------------------------------------------------
  Term symbol:  4 (1) A                                     R^2 =  8.73158e-14

  Total energy:                                            -77.9841899096 a.u.
  Excitation energy:                                               9.141654 eV

  Osc. strength:                                                      0.023585
  Trans. dip. moment [a.u.]:           [   0.018461,    0.017263,   -0.323522]
  <i|r^2|0> [a.u.]:                    [   0.109393,    0.005066,    0.004287]
  Two-photon absorption cross-section (SoS) [a.u.]:                   0.001339
  Two-photon absorption matrix (SoS) [a.u.]:
                                       |   -0.003098    0.000924   -0.004412 |
                                       |    0.000924   -0.000099   -0.003539 |
                                       |   -0.004412   -0.003539   -0.012001 |
  Two-photon absorption cross-section [a.u.]:                         0.001533
  Two-photon absorption matrix [a.u.]:
                                       |   -0.006834    0.002571   -0.004427 |
                                       |    0.002571   -0.004472   -0.003689 |
                                       |   -0.004427   -0.003689   -0.007611 |

  Dip. moment [a.u.]:                  [   0.007485,    0.006167,    0.002385]
  Total dipole [Debye]:                                               0.025383
  <r^2> [a.u.]:                        [ 181.363784,   41.010352,   11.061546]
  Total <r^2> [a.u.]:                                               233.435682

  V1^2 = 0.9580, V2^2 = 0.0420

  Important amplitudes:
      occ i     occ j     vir a      vir b          v   
    -----------------------------------------------------
     8 (A) A             10 (A) A                 0.6887
     8 (A) A             24 (A) A                 0.0508
     8 (A) A             18 (A) A                -0.0332
     4 (A) A              9 (A) A                 0.0247
     8 (A) A   8 (A) B    9 (A) A   12 (A) B     -0.0223
     8 (A) A   8 (A) B   10 (A) A   17 (A) B      0.0172
     5 (A) A   8 (A) B   11 (A) A   10 (A) B      0.0169
     8 (A) A             15 (A) A                 0.0149
     7 (A) A   8 (A) B   13 (A) A   10 (A) B     -0.0143
     4 (A) A   8 (A) B   12 (A) A   10 (A) B     -0.0113
     6 (A) A   8 (A) A   10 (A) A   15 (A) A     -0.0112
     7 (A) A   8 (A) B   22 (A) A   10 (A) B     -0.0109
     6 (A) A   8 (A) B   15 (A) A   10 (A) B      0.0109
     4 (A) A   8 (A) A   10 (A) A   12 (A) A      0.0108
     7 (A) A   8 (A) A   10 (A) A   22 (A) A      0.0099
     7 (A) A   8 (A) A   10 (A) A   13 (A) A      0.0098
     5 (A) A   8 (A) A   10 (A) A   11 (A) A     -0.0097
     5 (A) A   8 (A) B   21 (A) A   10 (A) B      0.0094
     6 (A) A   8 (A) B   10 (A) A   10 (A) B     -0.0090
     6 (A) A   8 (A) A   10 (A) A   18 (A) A     -0.0086
     7 (A) A   8 (A) A   12 (A) A   16 (A) A      0.0084
     3 (A) A   4 (A) B   10 (A) A    9 (A) B     -0.0080
     5 (A) A   8 (A) A   10 (A) A   21 (A) A     -0.0079
     4 (A) A   8 (A) B   19 (A) A   10 (A) B      0.0076
     8 (A) A   8 (A) B    9 (A) A   23 (A) B      0.0075
     8 (A) A   8 (A) B   10 (A) A   28 (A) B      0.0074
     5 (A) A   8 (A) B   10 (A) A   11 (A) B      0.0072
     7 (A) A   8 (A) B   16 (A) A   12 (A) B     -0.0072
     3 (A) A   8 (A) A   10 (A) A   24 (A) A     -0.0072
     3 (A) A   8 (A) B   10 (A) A   10 (A) B      0.0071
     8 (A) A   8 (A) B    9 (A) A   19 (A) B      0.0070
     3 (A) A   8 (A) B   10 (A) A   18 (A) B     -0.0068
     6 (A) A   8 (A) B   18 (A) A   10 (A) B      0.0065
     3 (A) A   6 (A) B   10 (A) A   28 (A) B      0.0062
     7 (A) A   8 (A) B   12 (A) A   11 (A) B      0.0059
     6 (A) A             28 (A) A                -0.0058
     5 (A) A   8 (A) A   10 (A) A   16 (A) A      0.0057
     3 (A) A   5 (A) B   10 (A) A   25 (A) B     -0.0056
     6 (A) A   8 (A) A   11 (A) A   16 (A) A     -0.0055
     4 (A) A   8 (A) A   10 (A) A   23 (A) A     -0.0055
    -----------------------------------------------------

  Density matrix analysis:
  ------------------------
  NOs
    Occupation of frontier NOs:
       0.9812   0.9847
    Number of electrons: 16.000000
    Number of unpaired electrons: n_u =  2.28866, n_u,nl =  2.02505
    NO participation ratio (PR_NO):  2.701278
  
  
  Mulliken Population Analysis
  Atom      Charge (e)              h+              e-           Del q
  --------------------------------------------------------------------
   1 H       -0.153990        0.054395       -0.263299       -0.208904
   2 C        0.310226        0.538015       -0.117975        0.420040
   3 H       -0.155975        0.054309       -0.265295       -0.210986
   4 C        0.310085        0.538127       -0.117963        0.420163
   5 H       -0.154092        0.054383       -0.263392       -0.209009
   6 H       -0.156253        0.054327       -0.265631       -0.211304
  --------------------------------------------------------------------
  Sum:        0.000000        1.293556       -1.293556       -0.000000
  
  Multipole moment analysis of the density matrix
    Molecular charge:                      0.000000
    Number of electrons:                   16.000000
      Center of electronic charge [Ang]: [ -1.561228,  -0.065389,   0.003409]
    Total nuclear charge:                  16.000000
      Center of nuclear charge [Ang]:    [ -1.560981,  -0.065185,   0.003488]
    Dipole moment [D]:                     0.025383
      Cartesian components [D]:          [  0.019024,   0.015674,   0.006061]
    RMS size of the density [Ang]:         1.282115
      Cartesian components [Ang]:        [  0.858345,   0.844677,   0.439983]
  
  Exciton analysis of the difference density matrix
    <r_h> [Ang]:                  [ -1.561086,  -0.065217,   0.003856]
    <r_e> [Ang]:                  [ -1.564085,  -0.067666,   0.002384]
    |<r_e - r_h>| [Ang]:            0.004142
    Hole size [Ang]:                1.412904
      Cartesian components [Ang]: [  0.836515,   0.822738,   0.787174]
    Electron size [Ang]:            2.079250
      Cartesian components [Ang]: [  1.376986,   1.380147,   0.722762]

  Transition density matrix analysis:
  -----------------------------------
  
  CT numbers (Mulliken)
    omega =     0.9250
    <Phe> =    -0.0109
  
  Exciton analysis of the transition density matrix
    Trans. dipole moment [D]:             0.412408
      Cartesian components [D]:         [  0.023461,   0.021939,  -0.411155]
    <r_h> [Ang]:                        [ -1.560785,  -0.065048,   0.004219]
    <r_e> [Ang]:                        [ -1.565137,  -0.068523,   0.001963]
    |<r_e - r_h>| [Ang]:                  0.006009
    Hole size [Ang]:                      1.212758
      Cartesian components [Ang]:       [  0.636245,   0.623857,   0.822664]
    Electron size [Ang]:                  2.301762
      Cartesian components [Ang]:       [  1.523478,   1.529202,   0.799165]
    RMS electron-hole separation [Ang]:   2.591616
      Cartesian components [Ang]:       [  1.643363,   1.644415,   1.145309]
    Covariance(r_h, r_e) [Ang^2]:         0.026224
    Correlation coefficient:              0.009394
    Center-of-mass size [Ang]:            1.305884
      Cartesian components [Ang]:       [  0.829301,   0.829340,   0.574273]

  Decomposition into state-averaged NTOs
    H- 0 -> L+ 1:  0.6794 ( 92.3%)
                   omega =  92.5%
  ----------------------------------------------------------------------------


  Excited state 4 (singlet, A)                                     [converged]
  ----------------------------------------------------------------------------
  Term symbol:  5 (1) A                                     R^2 =  1.32973e-13

  Total energy:                                            -77.9622655829 a.u.
  Excitation energy:                                               9.738245 eV

  Osc. strength:                                                      0.000001
  Trans. dip. moment [a.u.]:           [   0.000136,   -0.000167,   -0.001494]
  <i|r^2|0> [a.u.]:                    [  -0.012415,   -0.019257,    0.032459]
  Two-photon absorption cross-section (SoS) [a.u.]:                 134.684745
  Two-photon absorption matrix (SoS) [a.u.]:
                                       |   -0.253677   -0.315212    2.796015 |
                                       |   -0.315212   -0.382284    2.934460 |
                                       |    2.796015    2.934460    0.635976 |
  Two-photon absorption cross-section [a.u.]:                        80.046041
  Two-photon absorption matrix [a.u.]:
                                       |   -0.182748   -0.242341    2.157483 |
                                       |   -0.242341   -0.307507    2.260121 |
                                       |    2.157483    2.260121    0.490237 |

  Dip. moment [a.u.]:                  [  -0.008837,   -0.009927,    0.000668]
  Total dipole [Debye]:                                               0.033822
  <r^2> [a.u.]:                        [ 181.384189,   41.000387,   10.790840]
  Total <r^2> [a.u.]:                                               233.175416

  V1^2 = 0.9633, V2^2 = 0.0367

  Important amplitudes:
      occ i     occ j     vir a      vir b          v   
    -----------------------------------------------------
     8 (A) A             11 (A) A                 0.6688
     7 (A) A              9 (A) A                 0.1535
     8 (A) A             21 (A) A                 0.0779
     8 (A) A             16 (A) A                -0.0674
     8 (A) A   8 (A) B    9 (A) A   13 (A) B      0.0167
     5 (A) A   8 (A) B   11 (A) A   11 (A) B      0.0157
     7 (A) A             20 (A) A                 0.0140
     8 (A) A   8 (A) B   11 (A) A   17 (A) B      0.0137
     7 (A) A   8 (A) B   13 (A) A   11 (A) B     -0.0127
     4 (A) A   8 (A) B   12 (A) A   11 (A) B     -0.0111
     8 (A) A   8 (A) B    9 (A) A   22 (A) B      0.0110
     5 (A) A   8 (A) A   11 (A) A   21 (A) A     -0.0109
     7 (A) A   8 (A) A   11 (A) A   22 (A) A      0.0095
     6 (A) A   8 (A) B   10 (A) A   11 (A) B     -0.0091
     6 (A) A   8 (A) B   15 (A) A   11 (A) B      0.0089
     7 (A) A   8 (A) B   22 (A) A   11 (A) B     -0.0089
     3 (A) A   4 (A) B   11 (A) A    9 (A) B     -0.0083
     3 (A) A   8 (A) B   11 (A) A   18 (A) B     -0.0080
     6 (A) A   8 (A) A   11 (A) A   15 (A) A     -0.0079
     7 (A) A   8 (A) A   13 (A) A   16 (A) A     -0.0079
     7 (A) A   8 (A) A   11 (A) A   13 (A) A      0.0075
     4 (A) A   8 (A) B   19 (A) A   11 (A) B      0.0070
     5 (A) A   8 (A) B   21 (A) A   11 (A) B      0.0069
     5 (A) A   8 (A) B    9 (A) A    9 (A) B      0.0069
     4 (A) A   8 (A) A   11 (A) A   12 (A) A      0.0062
     3 (A) A   6 (A) B   11 (A) A   28 (A) B      0.0060
     6 (A) A   8 (A) A   11 (A) A   18 (A) A     -0.0059
     6 (A) A   8 (A) B   18 (A) A   11 (A) B      0.0058
     7 (A) A   8 (A) B   16 (A) A   13 (A) B      0.0057
     3 (A) A   8 (A) B   11 (A) A   30 (A) B     -0.0056
     5 (A) A   8 (A) B   10 (A) A   10 (A) B      0.0055
     7 (A) A   8 (A) B   12 (A) A   10 (A) B      0.0055
     8 (A) A   8 (A) B   20 (A) A   22 (A) B      0.0055
     6 (A) A   8 (A) B   11 (A) A   10 (A) B     -0.0055
     3 (A) A   5 (A) B   11 (A) A   25 (A) B     -0.0054
     3 (A) A   8 (A) A   11 (A) A   18 (A) A     -0.0054
     3 (A) A   8 (A) A   11 (A) A   24 (A) A     -0.0053
     5 (A) A   8 (A) A   11 (A) A   16 (A) A      0.0049
     6 (A) A   8 (A) A   10 (A) A   16 (A) A     -0.0047
     8 (A) A   8 (A) B   11 (A) A   28 (A) B      0.0043
    -----------------------------------------------------

  Density matrix analysis:
  ------------------------
  NOs
    Occupation of frontier NOs:
       0.9387   1.0295
    Number of electrons: 16.000000
    Number of unpaired electrons: n_u =  2.32235, n_u,nl =  2.05106
    NO participation ratio (PR_NO):  2.932724
  
  
  Mulliken Population Analysis
  Atom      Charge (e)              h+              e-           Del q
  --------------------------------------------------------------------
   1 H       -0.127571        0.046056       -0.228541       -0.182485
   2 C        0.251235        0.495227       -0.134179        0.361048
   3 H       -0.123513        0.045958       -0.224482       -0.178524
   4 C        0.250924        0.495286       -0.134284        0.361003
   5 H       -0.127133        0.045995       -0.228045       -0.182050
   6 H       -0.123942        0.046033       -0.225025       -0.178993
  --------------------------------------------------------------------
  Sum:        0.000000        1.174555       -1.174555       -0.000000
  
  Multipole moment analysis of the density matrix
    Molecular charge:                      0.000000
    Number of electrons:                   16.000000
      Center of electronic charge [Ang]: [ -1.560688,  -0.064857,   0.003466]
    Total nuclear charge:                  16.000000
      Center of nuclear charge [Ang]:    [ -1.560981,  -0.065185,   0.003488]
    Dipole moment [D]:                     0.033822
      Cartesian components [D]:          [ -0.022460,  -0.025231,   0.001698]
    RMS size of the density [Ang]:         1.281023
      Cartesian components [Ang]:        [  0.859534,   0.844614,   0.434565]
  
  Exciton analysis of the difference density matrix
    <r_h> [Ang]:                  [ -1.560743,  -0.064895,   0.003955]
    <r_e> [Ang]:                  [ -1.556692,  -0.060342,   0.003107]
    |<r_e - r_h>| [Ang]:            0.006153
    Hole size [Ang]:                1.394931
      Cartesian components [Ang]: [  0.819652,   0.806260,   0.789904]
    Electron size [Ang]:            2.114332
      Cartesian components [Ang]: [  1.420276,   1.414539,   0.672527]

  Transition density matrix analysis:
  -----------------------------------
  
  CT numbers (Mulliken)
    omega =     0.9293
    <Phe> =    -0.0146
  
  Exciton analysis of the transition density matrix
    Trans. dipole moment [D]:             0.001919
      Cartesian components [D]:         [  0.000173,  -0.000212,  -0.001899]
    <r_h> [Ang]:                        [ -1.560989,  -0.065201,   0.004149]
    <r_e> [Ang]:                        [ -1.555926,  -0.059435,   0.003019]
    |<r_e - r_h>| [Ang]:                  0.007757
    Hole size [Ang]:                      1.229184
      Cartesian components [Ang]:       [  0.662073,   0.649519,   0.806645]
    Electron size [Ang]:                  2.247893
      Cartesian components [Ang]:       [  1.509890,   1.504963,   0.712982]
    RMS electron-hole separation [Ang]:   2.550889
      Cartesian components [Ang]:       [  1.639822,   1.630963,   1.076093]
    Covariance(r_h, r_e) [Ang^2]:         0.028471
    Correlation coefficient:              0.010304
    Center-of-mass size [Ang]:            1.286551
      Cartesian components [Ang]:       [  0.828738,   0.823645,   0.538532]

  Decomposition into state-averaged NTOs
    H- 0 -> L+ 2: -0.6641 ( 88.2%)
    H- 1 -> L+ 0:  0.1514 (  4.6%)
                   omega =  92.9%
  ----------------------------------------------------------------------------


  Excited state 5 (singlet, A)                                     [converged]
  ----------------------------------------------------------------------------
  Term symbol:  6 (1) A                                     R^2 =  1.18713e-13

  Total energy:                                            -77.9468234276 a.u.
  Excitation energy:                                              10.158447 eV

  Osc. strength:                                                      0.000000
  Trans. dip. moment [a.u.]:           [  -0.000533,    0.000577,   -0.000162]
  <i|r^2|0> [a.u.]:                    [  -0.083929,    0.100195,   -0.017859]
  Two-photon absorption cross-section (SoS) [a.u.]:                 223.500775
  Two-photon absorption matrix (SoS) [a.u.]:
                                       |   -0.350799   -0.073370    3.819663 |
                                       |   -0.073370    0.464614   -3.628953 |
                                       |    3.819663   -3.628953   -0.082159 |
  Two-photon absorption cross-section [a.u.]:                       115.469678
  Two-photon absorption matrix [a.u.]:
                                       |   -0.240476   -0.045035    2.747202 |
                                       |   -0.045035    0.346418   -2.606389 |
                                       |    2.747202   -2.606389   -0.061335 |

  Dip. moment [a.u.]:                  [   0.000236,    0.000897,    0.000020]
  Total dipole [Debye]:                                               0.002357
  <r^2> [a.u.]:                        [ 180.295582,   39.760641,   11.603847]
[...]
    16   -1.474209217424e-03
    17   -1.738715582944e-03
    18    1.229222719645e-04
    19   -2.903937626221e-03
    20    1.163179783013e-02
    21    9.291859443017e-01
    22   -5.016077810578e-04
    23    1.374626627845e-02
    24    8.081293352872e-04
    25    7.037706111619e-02
    26   -5.227570697292e-02
    27   -1.383829522449e+00
    28    1.001494490136e-01
    29   -9.454582087404e-02
    30   -2.034357461156e-04
    31    3.857614856651e-01
    32   -3.652329107661e-01
    33   -8.386707768473e-04
    34    1.506658917239e-02
    35   -1.514855630066e-03
    36   -1.698290250458e-03
    37    1.988614855272e-04
    38   -2.898795650418e-03
    39    1.139431090256e-02
    40    9.269724875753e-01
    41    5.181785555304e-04
    42   -1.373402337718e-02
    43   -7.796364068130e-04
    44    1.162225726462e-02
    45    9.291423703127e-01
    46    1.373788690900e-02
    47    2.090406099135e-04
    48    7.179811425266e-04
Sym=X
Ene= 0.231048
Spin=Alpha
Occup=0
     1    2.987003804966e-02
     2    1.170759968853e+00
     3   -1.300582912743e-02
     4   -3.514752780579e-03
     5   -8.545460063989e-04
     6    1.343969909917e-04
     7   -4.425985757450e-05
     8   -3.888463334857e-03
     9   -1.547973928968e-01
    10   -1.623131205604e-01
    11   -1.750216913852e-02
    12   -5.309293136066e-01
    13   -5.571540517555e-01
    14   -6.006690675762e-02
    15    5.514186316825e-05
    16    2.834047223452e-05
    17   -1.277998822301e-04
    18    1.395120778816e-03
    19    4.730890690456e-05
    20   -2.989300862697e-02
    21   -1.166428670839e+00
    22   -2.850941191063e-03
    23   -1.306334677606e-02
    24   -9.353467727441e-04
    25    8.177222269040e-05
    26   -9.493583158671e-05
    27   -2.186757154821e-03
    28   -1.545630324196e-01
    29   -1.626412711202e-01
    30   -1.748336082588e-02
    31   -5.291351677738e-01
    32   -5.584703611844e-01
    33   -5.994671900666e-02
    34    3.877964771882e-05
    35   -1.160794643740e-05
    36    1.446605134107e-04
    37   -1.371451701671e-03
    38   -9.507260327178e-05
    39    2.978757929883e-02
    40    1.169829792588e+00
    41   -2.864368260802e-03
    42   -1.313797774525e-02
    43   -9.352394883216e-04
    44   -2.996334161168e-02
    45   -1.166535778861e+00
    46   -1.292563741854e-02
    47   -3.492473969548e-03
    48   -8.516554998973e-04
Sym=X
Ene= 0.236440
Spin=Alpha
Occup=0
     1    1.931508144774e-02
     2    1.072307464272e+00
     3   -1.589975282079e-02
     4   -9.206801210946e-03
     5   -1.319900365420e-03
     6    8.714455458648e-02
     7   -8.235310356346e-02
     8   -1.545557189666e+00
     9   -5.880351561824e-02
    10    5.601103742233e-02
    11    9.190751786647e-04
    12   -2.420583972663e-01
    13    2.298957355723e-01
    14    3.970494471338e-03
    15    2.128379534691e-02
    16   -2.480412506239e-03
    17   -2.979257465060e-03
    18    6.018234878144e-04
    19   -1.241418782681e-02
    20    1.926303064768e-02
    21    1.072683095160e+00
    22    8.400546050193e-03
    23    1.632575905379e-02
    24    1.429192300948e-03
    25   -8.710094372631e-02
    26    8.229682789011e-02
    27    1.544538921906e+00
    28   -5.887083425135e-02
    29    5.593788896892e-02
    30   -1.870534132055e-04
    31   -2.415469024689e-01
    32    2.303022040382e-01
    33   -4.147543742867e-04
    34   -2.126722457287e-02
    35    2.575515590302e-03
    36    2.882706341390e-03
    37   -6.453523143497e-04
    38    1.240089279123e-02
    39   -1.933796842613e-02
    40   -1.072998907492e+00
    41    8.396003667360e-03
    42    1.634858782833e-02
    43    1.358827338645e-03
    44   -1.927368285455e-02
    45   -1.070687857464e+00
    46   -1.584558878787e-02
    47   -9.216219833809e-03
    48   -1.388203793287e-03
Sym=X
Ene= 0.302963
Spin=Alpha
Occup=0
     1    2.109666509196e-02
     2   -1.657953196283e+00
     3    2.350800599558e-02
     4   -4.112700912332e-04
     5    1.074979048064e-03
     6    1.267215035824e-05
     7    9.117516489321e-06
     8   -5.192467252554e-04
     9    1.355848329945e-01
    10    1.426465078796e-01
    11    1.535522551264e-02
    12    1.125464024805e+00
    13    1.182821581654e+00
    14    1.273429675587e-01
    15   -4.520838550173e-05
    16    1.703120497396e-03
    17   -2.072356860927e-03
    18    3.409093079072e-02
    19    1.723748562402e-03
    20   -2.111433508908e-02
    21    1.658106549022e+00
    22   -1.592906584962e-03
    23    2.344726350943e-02
    24    1.405581434033e-03
    25   -1.325159309942e-05
    26    2.218117395638e-05
    27   -1.359181229575e-03
    28   -1.356306835659e-01
    29   -1.426470816822e-01
    30   -1.534248364798e-02
    31   -1.124510855016e+00
    32   -1.183257933915e+00
    33   -1.272742328101e-01
    34    9.497079078794e-06
    35    1.864232973401e-03
    36   -1.898316418900e-03
    37    3.406570857288e-02
    38    1.682763006708e-03
    39   -2.115674372191e-02
    40    1.658592660871e+00
    41    1.589532175354e-03
    42   -2.344773420309e-02
    43   -1.352704259086e-03
    44    2.090873119434e-02
    45   -1.656684551520e+00
    46   -2.350109081889e-02
    47    4.236047533212e-04
    48   -1.124831269758e-03
Sym=X
Ene= 0.462774
Spin=Alpha
Occup=0
     1   -1.147824821705e-01
     2   -6.987370965790e-01
     3   -1.499497935166e-02
     4   -1.027984694980e-02
     5   -1.362981324526e-03
     6    6.250608819467e-02
     7    1.662353375579e-02
     8   -3.640864050253e+00
     9    1.042414317093e-01
    10   -9.906882777979e-02
    11   -9.167782342806e-04
    12    2.433044152516e+00
    13   -2.311499112371e+00
    14   -2.953530250744e-02
    15    5.298008850429e-02
    16   -3.288629745724e-03
    17   -4.633929646917e-03
    18   -1.099970313159e-03
    19    2.008984172718e-02
    20   -1.143197619879e-01
    21   -6.987501169529e-01
    22    9.576378271273e-03
    23    1.544852032762e-02
    24    1.412362433117e-03
    25   -6.252376148021e-02
    26   -1.654557609017e-02
    27    3.641254019522e+00
    28    1.044103673701e-01
    29   -9.917365087938e-02
    30   -3.027592639995e-04
    31    2.431705115446e+00
    32   -2.312201283624e+00
    33   -2.694225638415e-02
    34   -5.293020661360e-02
    35    3.220212982561e-03
    36    4.672966378890e-03
    37    1.130066578978e-03
    38   -2.016130846957e-02
    39    1.138105890376e-01
    40    7.007686243101e-01
    41    9.580636936165e-03
    42    1.543601597719e-02
    43    1.436062272579e-03
    44    1.147041341312e-01
    45    6.969270736848e-01
    46   -1.498036836202e-02
    47   -1.024708780838e-02
    48   -1.332769958188e-03
Sym=X
Ene= 0.579808
Spin=Alpha
Occup=0
     1    2.381876267894e-01
     2    4.701051294057e-02
     3   -2.200016546982e-02
     4    2.695788018531e-02
     5    6.197666442183e-04
     6   -6.211733976328e-03
     7   -1.689744147955e-01
     8   -4.192084567981e-01
     9    3.057001337505e-01
    10   -2.901903566001e-01
    11   -3.470323941130e-03
    12   -7.473284825778e-01
    13    7.091585875117e-01
    14    7.707489752886e-03
    15   -1.973368232346e-03
    16    3.738756261448e-03
    17    3.294243990598e-03
    18   -2.851505637415e-03
    19    5.979572048899e-02
    20    2.374745485122e-01
    21    4.774555329378e-02
    22   -2.806158191185e-02
    23    2.069208026836e-02
    24   -5.961706634621e-05
    25   -6.298455009458e-03
    26   -1.690329791099e-01
    27   -4.151906502500e-01
    28   -3.056015226639e-01
    29    2.900079758679e-01
    30    3.564406829788e-03
    31    7.494104657859e-01
    32   -7.121550037308e-01
    33   -7.205065435215e-03
    34   -1.977540471175e-03
    35    3.740745045585e-03
    36    3.293793540334e-03
    37   -2.907678008563e-03
    38    5.979367043181e-02
    39    2.375538107814e-01
    40    4.949306994084e-02
    41    2.806019752950e-02
    42   -2.065820241687e-02
    43    1.208999283490e-04
    44    2.378796617406e-01
    45    4.729084051079e-02
    46    2.211058708732e-02
    47   -2.705436964213e-02
    48   -5.608843890799e-04
Sym=X
Ene= 0.608870
Spin=Alpha
Occup=0
     1   -5.185032620198e-01
     2    2.448794862277e-01
     3   -5.945201585746e-02
     4    3.712154645637e-02
     5   -5.260532981357e-04
     6    3.244536507361e-05
     7   -1.741479993916e-04
     8    3.293544247608e-03
     9   -3.555294560383e-02
    10   -3.764209496972e-02
    11   -4.036005873440e-03
    12    2.592080734604e-01
    13    2.769237524219e-01
    14    2.963717317521e-02
    15   -3.148239589547e-05
    16   -7.509435346229e-03
    17    8.936678978896e-03
    18   -1.485190584523e-01
    19   -7.542697975087e-03
    20    5.199472859748e-01
    21   -2.446204448373e-01
    22    4.001809710343e-02
    23   -5.757317527136e-02
    24   -1.672234580451e-03
    25   -4.113759008192e-05
    26   -3.045729126696e-04
    27   -1.392446323638e-03
    28   -3.547307666551e-02
    29   -3.761156787918e-02
    30   -4.038374193900e-03
    31    2.585100751975e-01
    32    2.770190068492e-01
    33    2.954159461212e-02
    34   -5.826568264482e-05
    35    7.976580588632e-03
    36   -8.455351800557e-03
    37    1.486358548846e-01
    38    7.678695048289e-03
    39   -5.195642356175e-01
    40    2.442059643923e-01
    41    4.000082432316e-02
    42   -5.756251865207e-02
    43   -1.525807108978e-03
    44    5.194664366496e-01
    45   -2.470334579769e-01
    46   -5.950242943792e-02
    47    3.710808894069e-02
    48   -6.798779176045e-04
Sym=X
Ene= 0.688653
Spin=Alpha
Occup=0
     1   -1.625871198999e-03
     2   -4.540264914525e-04
     3    7.032252887992e-04
     4    9.862338077151e-04
     5   -1.885107265181e-02
     6   -1.046506300978e-04
     7   -7.747291569899e-04
     8   -5.643965858239e-04
     9    3.264648896911e-02
    10    4.114239431157e-02
    11   -6.705708282532e-01
    12   -2.744382827827e-02
    13   -3.985735086928e-02
    14    6.125885041782e-01
    15   -1.246362587840e-03
    16    8.251786536462e-02
    17   -7.843445250642e-02
    18   -8.797587253974e-03
    19   -1.733676123681e-03
    20   -1.631628095173e-03
    21   -4.242054495079e-04
    22    1.076305224333e-03
    23    1.376337196784e-03
    24   -1.876225521256e-02
    25   -4.091571191350e-05
    26   -1.521929089696e-03
    27    2.265858557091e-03
    28    3.201327872542e-02
    29    4.169199167569e-02
    30   -6.705718412514e-01
    31   -2.702133280353e-02
    32   -4.018948947634e-02
    33    6.125554161452e-01
    34    2.111117362855e-03
    35   -8.259996202476e-02
    36    7.833090366620e-02
    37    8.822964105044e-03
    38    1.411952113552e-03
    39   -3.880485794335e-04
    40    1.869097176457e-03
    41    9.199609156806e-04
    42    7.844154801637e-04
    43   -1.889370758630e-02
    44   -3.829725347054e-04
    45    1.841069316405e-03
    46    1.279165029532e-03
    47    1.159524375398e-03
    48   -1.867510738152e-02
Sym=X
Ene= 0.704765
Spin=Alpha
Occup=0
     1   -4.880407736935e-01
     2    1.630436179595e-01
     3   -7.807726980187e-02
     4   -4.431335384105e-02
     5   -6.352459798811e-03
     6   -4.595098248203e-02
     7   -3.014367279247e-01
     8    4.648284243150e-01
     9    1.955753240444e-01
    10   -1.864793659186e-01
    11   -5.553351057141e-04
    12   -5.738239092450e-02
    13    5.638633690884e-02
    14    5.416947717754e-04
    15    1.910044820833e-01
    16   -2.058133028032e-02
    17   -2.456396201649e-02
    18    3.690491463640e-03
    19   -7.662941787329e-02
    20   -4.874403390056e-01
    21    1.644779233690e-01
    22    4.037859989379e-02
    23    8.021092189481e-02
    24    7.053636013315e-03
    25   -4.595787874604e-02
    26   -3.011793183943e-01
    27    4.622930318639e-01
    28   -1.962222021852e-01
    29    1.856786844731e-01
    30    3.601471037846e-03
    31    5.786036161672e-02
    32   -5.324547211242e-02
    33   -3.822592448608e-03
    34    1.911574220251e-01
    35   -2.052638182234e-02
    36   -2.461640752403e-02
    37    3.743177383162e-03
    38   -7.654304522710e-02
    39   -4.880472736465e-01
    40    1.628011996797e-01
    41   -4.027889515027e-02
    42   -8.030929466198e-02
    43   -6.939371009980e-03
    44   -4.882064031778e-01
    45    1.649231001779e-01
    46    7.809241633684e-02
    47    4.441004983235e-02
    48    6.466391530933e-03
Sym=X
Ene= 0.775740
Spin=Alpha
Occup=0
     1   -5.388786459281e-01
     2    4.803232191478e-01
     3   -1.078310472036e-01
     4   -2.643144257092e-02
     5   -6.798882517630e-03
     6   -8.895725081040e-02
     7    2.263830066820e-01
     8    5.670517183876e-01
     9   -1.035631227476e-01
    10    9.804842364770e-02
    11    2.777000471371e-03
    12   -2.934852038696e-01
    13    2.805578373080e-01
    14    4.700653847533e-04
    15    2.032607083077e-01
    16   -1.744028289460e-02
    17   -2.238077471129e-02
    18    8.700427420529e-06
    19   -7.688703533754e-03
    20   -5.386917327859e-01
    21    4.810387607344e-01
    22    2.094349229527e-02
    23    1.088687387609e-01
    24    7.772168551145e-03
    25    8.891627450806e-02
    26   -2.269958090577e-01
    27   -5.665355947509e-01
    28   -1.027811726119e-01
    29    9.927906464099e-02
    30    2.986103905459e-04
    31   -2.957868505159e-01
    32    2.774363687116e-01
    33    5.962468658739e-03
    34   -2.030978092075e-01
    35    1.787410645015e-02
    36    2.189224432079e-02
    37    2.874837770585e-05
    38    7.594915679302e-03
    39    5.379000578208e-01
    40   -4.784663553112e-01
    41    2.091735349468e-02
    42    1.086419365977e-01
    43    7.718156011043e-03
    44    5.394985710819e-01
    45   -4.829967819942e-01
    46   -1.078833623672e-01
    47   -2.645011605611e-02
    48   -6.830738758911e-03
Sym=X
Ene= 0.807406
Spin=Alpha
Occup=0
     1   -8.319995571016e-04
     2    1.005375392942e-03
     3    1.311753007041e-03
     4    1.982501519001e-03
     5   -3.150026132175e-02
     6   -1.873650414113e-04
     7    9.394467720301e-04
     8   -4.959320899278e-04
     9    3.597467200760e-02
    10    4.807136326279e-02
    11   -7.641525487239e-01
    12   -5.385818092158e-02
    13   -6.984608091041e-02
    14    1.124259654511e+00
    15    1.826279905651e-03
    16   -6.538443398183e-02
    17    6.199338074379e-02
    18    6.958094415229e-03
    19    1.333871917898e-03
    20   -8.299515376556e-04
    21    9.314393358549e-04
    22    1.460957774761e-03
    23    2.135733427091e-03
    24   -3.138940936220e-02
    25    1.229073334911e-04
    26    2.891424673626e-04
    27   -1.234043037887e-04
    28   -3.726326105621e-02
    29   -4.674558968735e-02
    30    7.641890059847e-01
    31    5.359068724799e-02
    32    6.992553041245e-02
    33   -1.124253572362e+00
    34    7.693671080327e-04
    35   -6.531648827999e-02
    36    6.208343379995e-02
    37    6.997535428921e-03
    38    9.913868299857e-04
    39    7.672394407732e-04
    40   -1.265569577193e-03
    41   -1.672680101419e-03
    42   -1.468061852845e-03
    43    3.147751877552e-02
    44    7.713371881926e-04
    45   -1.355107282225e-03
    46   -2.003397413627e-03
    47   -1.810692269038e-03
    48    3.133574325835e-02
Sym=X
Ene= 0.858424
Spin=Alpha
Occup=0
     1    1.403043132806e-02
     2   -1.075483793495e+00
     3    1.461966028317e-01
     4    5.607772014509e-02
     5    1.057951620785e-02
     6   -5.311505261312e-05
     7    1.069895499161e-03
     8   -1.202048638474e-03
     9   -4.118810632297e-01
    10   -4.323448705055e-01
    11   -4.660450301011e-02
    12    9.376085200261e-01
    13    9.845407077630e-01
    14    1.061050448270e-01
    15   -1.599953072133e-04
    16    1.192334823307e-02
    17   -1.356056065727e-02
    18    2.302965663237e-01
    19    1.187307501093e-02
    20   -1.439582231483e-02
    21    1.075395071453e+00
    22    4.860394203334e-02
    23    1.488749666272e-01
    24    1.147653455304e-02
    25    1.393872694701e-04
    26    7.171003799938e-04
    27   -1.358773635051e-04
    28   -4.124694199222e-01
    29   -4.327392773038e-01
    30   -4.657294872649e-02
    31    9.384366256912e-01
    32    9.854537062716e-01
    33    1.060223433173e-01
    34   -2.865631450535e-04
    35   -1.197391808297e-02
    36    1.352889115827e-02
    37   -2.304114377589e-01
    38   -1.188955316840e-02
    39    1.480078595529e-02
    40   -1.075850337860e+00
    41    4.846707576303e-02
    42    1.490645660463e-01
    43    1.130576038427e-02
    44   -1.397641334709e-02
    45    1.076146181649e+00
    46    1.463016196442e-01
    47    5.606920752999e-02
    48    1.074965457967e-02
Sym=X
Ene= 0.928008
Spin=Alpha
Occup=0
     1   -1.420317038393e-01
     2    1.230679970186e+00
     3   -1.828549765915e-01
     4    5.882500715150e-03
     5   -8.219305812675e-03
     6   -1.399546261485e-04
     7    8.265277808380e-04
     8   -3.533773112221e-03
     9    4.730410512991e-01
    10    4.996714172374e-01
    11    5.368129354704e-02
    12   -1.380262013753e+00
    13   -1.457778550825e+00
    14   -1.566246463852e-01
    15    5.909655177758e-04
    16   -6.157014238516e-03
    17    7.772435110577e-03
    18   -1.257977966806e-01
    19   -5.864065501818e-03
    20    1.414420576032e-01
    21   -1.232965487568e+00
    22    1.488335071601e-02
    23   -1.820843154607e-01
    24   -1.077031793543e-02
    25    1.975109178845e-04
    26    1.832652617962e-03
    27   -1.064474876118e-04
    28   -4.755209479905e-01
    29   -4.967060998551e-01
    30   -5.359457922496e-02
    31    1.386408873874e+00
    32    1.449920512795e+00
    33    1.563675235640e-01
    34   -4.262282031557e-04
    35   -6.715921690539e-03
    36    7.166186035818e-03
    37   -1.254220594242e-01
    38   -7.383502159315e-03
    39    1.418301853079e-01
    40   -1.228247870966e+00
    41   -1.544433193747e-02
    42    1.817393521585e-01
    43    1.039892378530e-02
    44   -1.415998880449e-01
    45    1.233003986315e+00
    46    1.828364283677e-01
    47   -5.467090667115e-03
    48    8.553894100420e-03
Sym=X
Ene= 0.970585
Spin=Alpha
Occup=0
     1   -5.952510321019e-02
     2    8.997600987634e-01
     3   -8.795151355550e-02
     4   -9.661360818688e-02
     5   -1.025307402174e-02
     6    2.706442699733e-02
     7    2.526819688852e-01
     8    5.142914007195e-01
     9    4.840456041585e-01
    10   -4.576602025469e-01
    11   -5.685852527442e-03
    12   -1.478601916943e+00
    13    1.396155940762e+00
    14    1.737694194964e-02
    15   -5.792917293014e-02
    16   -1.317385266173e-02
    17   -8.729657688093e-03
    18    1.489229865902e-02
    19   -2.963744022507e-01
    20   -5.989835920748e-02
    21    8.933676351427e-01
    22    9.207681816830e-02
    23    9.188369700095e-02
    24    1.006883863147e-02
    25   -2.707211306700e-02
    26   -2.530712024509e-01
    27   -5.136285340868e-01
    28    4.815703324501e-01
    29   -4.605292925799e-01
    30   -4.477447231959e-03
    31   -1.469038505140e+00
    32    1.407058945833e+00
    33    1.435294323355e-02
    34    5.793869631505e-02
    35    1.322346258452e-02
    36    8.692960101152e-03
    37   -1.576195190576e-02
    38    2.962920356173e-01
    39    5.994973539488e-02
    40   -9.021029747664e-01
    41    9.203524780489e-02
    42    9.307448368282e-02
    43    9.828995043833e-03
    44    5.962905269672e-02
    45   -8.916081174974e-01
    46   -8.689311967020e-02
    47   -9.658084117850e-02
    48   -1.051104309922e-02
[5D]

======= END OF MOLDEN-FORMATTED INPUT FILE =======


        *************************************************************
        *                                                           *
        *  Thank you very much for using Q-Chem.  Have a nice day.  *
        *                                                           *
        *************************************************************


