                  Welcome to Q-Chem
     A Quantum Leap Into The Future Of Chemistry


 Q-Chem 5.4 (devel), Q-Chem, Inc., Pleasanton, CA (2021)

 E. Epifanovsky,  A. T. B. Gilbert,  Xintian Feng,  Joonho Lee,  Yuezhi Mao,  
 N. Mardirossian,  P. Pokhilko,  A. White,  M. Wormit,  M. P. Coons,  
 A. L. Dempwolff,  Zhengting Gan,  D. Hait,  P. R. Horn,  L. D. Jacobson,  
 I. Kaliman,  J. Kussmann,  A. W. Lange,  Ka Un Lao,  D. S. Levine,  Jie Liu,  
 S. C. McKenzie,  A. F. Morrison,  K. Nanda,  F. Plasser,  D. R. Rehn,  
 M. L. Vidal,  Zhi-Qiang You,  Ying Zhu,  B. Alam,  B. Albrecht,  
 A. Aldossary,  E. Alguire,  J. H. Andersen,  D. Barton,  K. Begam,  A. Behn,  
 Y. A. Bernard,  E. J. Berquist,  H. Burton,  A. Carreras,  K. Carter-Fenk,  
 R. Chakraborty,  A. D. Chien,  K. D. Closser,  V. Cofer-Shabica,  
 S. Dasgupta,  Jia Deng,  M. de Wergifosse,  M. Diedenhofen,  Hainam Do,  
 S. Ehlert,  Po-Tung Fang,  S. Fatehi,  Qingguo Feng,  T. Friedhoff,  
 J. Gayvert,  Qinghui Ge,  G. Gidofalvi,  M. Goldey,  J. Gomes,  
 C. Gonzalez-Espinoza,  S. Gulania,  A. Gunina,  M. W. D. Hanson-Heine,  
 P. H. P. Harbach,  A. W. Hauser,  M. F. Herbst,  M. Hernandez Vera,  
 M. Hodecker,  Z. C. Holden,  S. Houck,  Xunkun Huang,  Kerwin Hui,  
 B. C. Huynh,  M. Ivanov,  Hyunjun Ji,  Hanjie Jiang,  B. Kaduk,  S. Kaehler,  
 K. Khistyaev,  Jaehoon Kim,  P. Klunzinger,  Z. Koczor-Benda,  
 Joong Hoon Koh,  D. Kosenkov,  L. Koulias,  T. Kowalczyk,  C. M. Krauter,  
 K. Kue,  A. Kunitsa,  T. Kus,  A. Landau,  K. V. Lawler,  D. Lefrancois,  
 S. Lehtola,  Rain Li,  Yi-Pei Li,  Jiashu Liang,  M. Liebenthal,  
 Hung-Hsuan Lin,  You-Sheng Lin,  Fenglai Liu,  Kuan-Yu Liu,  
 M. Loipersberger,  A. Luenser,  A. Manjanath,  P. Manohar,  E. Mansoor,  
 S. F. Manzer,  Shan-Ping Mao,  A. V. Marenich,  T. Markovich,  S. Mason,  
 S. A. Maurer,  P. F. McLaughlin,  M. F. S. J. Menger,  J.-M. Mewes,  
 S. A. Mewes,  P. Morgante,  J. W. Mullinax,  K. J. Oosterbaan,  G. Paran,  
 Alexander C. Paul,  Suranjan K. Paul,  F. Pavosevic,  Zheng Pei,  S. Prager,  
 E. I. Proynov,  E. Ramos,  B. Rana,  A. E. Rask,  A. Rettig,  R. M. Richard,  
 F. Rob,  E. Rossomme,  T. Scheele,  M. Scheurer,  M. Schneider,  
 N. Sergueev,  S. M. Sharada,  W. Skomorowski,  D. W. Small,  C. J. Stein,  
 Yu-Chuan Su,  E. J. Sundstrom,  Zhen Tao,  J. Thirman,  T. Tsuchimochi,  
 N. M. Tubman,  S. P. Veccham,  O. Vydrov,  J. Wenzel,  J. Witte,  A. Yamada,  
 Kun Yao,  S. Yeganeh,  S. R. Yost,  A. Zech,  Igor Ying Zhang,  Xing Zhang,  
 Yu Zhang,  D. Zuev,  A. Aspuru-Guzik,  A. T. Bell,  N. A. Besley,  
 K. B. Bravaya,  B. R. Brooks,  D. Casanova,  Jeng-Da Chai,  S. Coriani,  
 C. J. Cramer,  A. E. DePrince, III,  R. A. DiStasio Jr.,  A. Dreuw,  
 B. D. Dunietz,  T. R. Furlani,  W. A. Goddard III,  S. Grimme,  
 S. Hammes-Schiffer,  T. Head-Gordon,  W. J. Hehre,  Chao-Ping Hsu,  
 T.-C. Jagau,  Yousung Jung,  A. Klamt,  Jing Kong,  D. S. Lambrecht,  
 WanZhen Liang,  N. J. Mayhall,  C. W. McCurdy,  J. B. Neaton,  
 C. Ochsenfeld,  J. A. Parkhill,  R. Peverati,  V. A. Rassolov,  Yihan Shao,  
 L. V. Slipchenko,  T. Stauch,  R. P. Steele,  J. E. Subotnik,  
 A. J. W. Thom,  A. Tkatchenko,  D. G. Truhlar,  T. Van Voorhis,  
 T. A. Wesolowski,  K. B. Whaley,  H. L. Woodcock III,  P. M. Zimmerman,  
 S. Faraji,  P. M. W. Gill,  M. Head-Gordon,  J. M. Herbert,  A. I. Krylov

 Additional authors for Version 5.4.1: 
 S. Kotaru,  Shaozhi Li,  Xiangyuan Li,  F. Matz,  A. Molle,  Haisheng Ren,  
 Yingli Su,  Hung-Yi Tsai,  C. Utku,  Fang Wang

 Contributors to earlier versions of Q-Chem not listed above: 
 R. D. Adamson,  B. Austin,  R. Baer,  J. Baker,  G. J. O. Beran,  
 K. Brandhorst,  S. T. Brown,  E. F. C. Byrd,  A. K. Chakraborty,  
 G. K. L. Chan,  Chun-Min Chang,  Yunqing Chen,  C.-L. Cheng,  
 Siu Hung Chien,  D. M. Chipman,  D. L. Crittenden,  H. Dachsel,  
 R. J. Doerksen,  A. D. Dutoi,  R. G. Edgar,  J. Fosso-Tande,  
 L. Fusti-Molnar,  D. Ghosh,  A. Ghysels,  A. Golubeva-Zadorozhnaya,  
 J. Gonthier,  M. S. Gordon,  S. R. Gwaltney,  G. Hawkins,  J. E. Herr,  
 A. Heyden,  S. Hirata,  E. G. Hohenstein,  G. Kedziora,  F. J. Keil,  
 C. Kelley,  Jihan Kim,  R. A. King,  R. Z. Khaliullin,  P. P. Korambath,  
 W. Kurlancheek,  A. Laurent,  A. M. Lee,  M. S. Lee,  S. V. Levchenko,  
 Ching Yeh Lin,  D. Liotard,  E. Livshits,  R. C. Lochan,  I. Lotan,  
 L. A. Martinez-Martinez,  P. E. Maslen,  N. Nair,  D. P. O'Neill,  
 D. Neuhauser,  E. Neuscamman,  C. M. Oana,  R. Olivares-Amaya,  R. Olson,  
 T. M. Perrine,  B. Peters,  P. A. Pieniazek,  A. Prociuk,  Y. M. Rhee,  
 J. Ritchie,  M. A. Rohrdanz,  E. Rosta,  N. J. Russ,  H. F. Schaefer III,  
 M. W. Schmidt,  N. E. Schultz,  S. Sharma,  N. Shenvi,  C. D. Sherrill,  
 A. C. Simmonett,  A. Sodt,  T. Stein,  D. Stuck,  K. S. Thanthiriwatte,  
 V. Vanovschi,  L. Vogt,  Tao Wang,  A. Warshel,  M. A. Watson,  
 C. F. Williams,  Q. Wu,  X. Xu,  Jun Yang,  W. Zhang,  Yan Zhao

 Please cite Q-Chem as follows:
 Y. Shao et al., Mol. Phys. 113, 184-215 (2015)
 DOI: 10.1080/00268976.2014.952696

 Q-Chem 5.4.1 for Intel X86 EM64T Linux

 Parts of Q-Chem use Armadillo 9.800.1 (Horizon Scraper).
 http://arma.sourceforge.net/

 Q-Chem begins on Tue Mar 21 11:37:16 2023  

 Host: cpu186.baobab
0

     Scratch files written to /scratch/fum/qchem60406//
 Processing $rem in /home/share/wesolowski/qc5.aug2021.FDE/config/preferences:
 Processing $rem in /home/fum/.qchemrc:

 Checking the input file for inconsistencies... 	...done.

--------------------------------------------------------------
User input:
--------------------------------------------------------------
$comment
generated from CCJob.Templates
$end

$rem
sym_ignore = true
method = adc(2)
ee_states = 10
basis = cc-pVDZ
mem_static = 1024
mem_total = 40000
adc_davidson_maxiter = 900
adc_davidson_conv = 6
adc_print = 3
adc_prop_es = true
adc_prop_es2es = true
adc_prop_tpa = true
molden_format = True
state_analysis = true
print_orbitals = 15
gen_scfman = false
fde_export_density = true
fde_details = 3
$end

$molecule
0 1
H -0.021632507599690615 -0.24690096190027372 0.06608399729653963
C -1.078191738798986 -0.5242265593006951 0.0009907195878745534
H -1.3013000006996467 -1.593035208200024 -0.07597947450620589
C -2.0449570407992868 0.39415119839888524 0.007041351898440303
H -1.8215486758998527 1.4626162332994996 0.08130314800223992
H -3.1011874110998088 0.116481335399749 -0.06066158400050561                     
$end
--------------------------------------------------------------
 ----------------------------------------------------------------
             Standard Nuclear Orientation (Angstroms)
    I     Atom           X                Y                Z
 ----------------------------------------------------------------
    1      H      -0.0216325076    -0.2469009619     0.0660839973
    2      C      -1.0781917388    -0.5242265593     0.0009907196
    3      H      -1.3013000007    -1.5930352082    -0.0759794745
    4      C      -2.0449570408     0.3941511984     0.0070413519
    5      H      -1.8215486759     1.4626162333     0.0813031480
    6      H      -3.1011874111     0.1164813354    -0.0606615840
 ----------------------------------------------------------------
 Nuclear Repulsion Energy =          33.20990126 hartrees
 There are        8 alpha and        8 beta electrons
 Requested basis set is cc-pVDZ
 There are 24 shells and 48 basis functions
 Total memory of 40000 MB is distributed as follows: 
   MEM_STATIC is set to 1024 MB
   QALLOC/CCMAN JOB total memory use is  38976 MB
 Warning: actual memory use might exceed 40000 MB

 Total QAlloc Memory Limit  40000 MB
 Mega-Array Size      1001 MB
 MEM_STATIC part      1024 MB

                       Distance Matrix (Angstroms)
             H (  1)   C (  2)   H (  3)   C (  4)   H (  5)
   C (  2)  1.094287
   H (  3)  1.862742  1.094556
   C (  4)  2.123270  1.333450  2.123400
   H (  5)  2.482414  2.122869  3.103611  1.094095
   H (  6)  3.103509  2.122927  2.482393  1.094215  1.862715

 A cutoff of  1.0D-11 yielded    300 shell pairs
 There are      1220 function pairs (      1329 Cartesian)
 Smallest overlap matrix eigenvalue = 4.81E-03

 Scale SEOQF with 1.000000e-01/1.000000e-01/1.000000e+00

 Standard Electronic Orientation quadrupole field applied
 Nucleus-field energy     =     0.0000000022 hartrees
 Guess from superposition of atomic densities
 Warning:  Energy on first SCF cycle will be non-variational
 SAD guess density has 16.000000 electrons
 A restricted Hartree-Fock SCF calculation will be
 performed using Pulay DIIS extrapolation
 SCF converges when DIIS error is below 1.0E-08
 using 10 threads for integral computing
 -------------------------------------------------------
 OpenMP Integral computing Module                
 Release: version 1.0, May 2013, Q-Chem Inc. Pittsburgh 
 -------------------------------------------------------
 ---------------------------------------
  Cycle       Energy         DIIS Error
 ---------------------------------------
    1     -78.3977732751      9.93E-02
    2     -78.0175889205      7.13E-03
    3     -78.0380549117      1.83E-03
    4     -78.0395310334      5.64E-04
    5     -78.0396486470      5.81E-05
    6     -78.0396505105      9.29E-06
    7     -78.0396505718      1.96E-06
    8     -78.0396505745      2.28E-07
    9     -78.0396505746      1.07E-07
   10     -78.0396505746      9.33E-09 Convergence criterion met
 ---------------------------------------
 SCF time:  CPU 1.99 s  wall 2.48 s
 SCF   energy in the final basis set = -78.03965057
 Total energy in the final basis set = -78.03965057
Exporting Density Matrix to file 'Densmat_SCF.txt'.
Export successful
================================================================================
|                                                                              |
|                                 A D C  M A N                                 |
|                                                                              |
 ------------------------------------------------------------------------------ 
|                                                                              |
| Components:                                                                  |
|                                                                              |
| - libvmm - 1.3-trunk                                                         |
|   Authors:                                                                   |
|   Evgeny Epifanovsky, Ilya Kaliman                                           |
|                                                                              |
| - libtensor - 2.5-trunk                                                      |
|   Authors:                                                                   |
|   Evgeny Epifanovsky, Michael Wormit, Dmitry Zuev, Sam Manzer,               |
|   Ilya Kaliman                                                               |
|                                                                              |
| - libwfa - 1.1-trunk                                                         |
|   Authors:                                                                   |
|   Felix Plasser, Stefanie Mewes (Baeppler), Benjamin Thomitzni,              |
|   Michael Wormit, Feng Chen, Anna I. Krylov, Pavel Pokhilko                  |
|                                                                              |
| - libadc - 1.1-trunk                                                         |
|   Authors:                                                                   |
|   Michael Wormit, Adrian L. Dempwolff, Philipp H. P. Harbach,                |
|   Caroline Krauter, Dirk Rehn, Matthias Schneider, Jan Wenzel                |
|                                                                              |
| - adcman - 2.6-trunk                                                         |
|   Authors:                                                                   |
|   Michael Wormit, Adrian L. Dempwolff, Philipp H. P. Harbach,                |
|   Caroline Krauter, Daniel Lefrancois, Jan-Michael Mewes, Dirk Rehn,         |
|   Matthias Schneider, Jan Wenzel, Andreas Dreuw                              |
|                                                                              |
| Authors of earlier versions of ADCMAN:                                       |
| Andreas Dreuw, Jan Hendrik Starcke, Dirk Rehn, Michael Wormit                |
|                                                                              |
================================================================================

 Created directory /scratch/fum/qchem60406/plots
  Import QC data ...  CPU 0.00 s  wall 0.00 s

 Alpha MOs, Restricted
 -- Occupied --                  
-11.239 -11.237  -1.030  -0.786  -0.635  -0.582  -0.500  -0.374
  1 A     2 A     3 A     4 A     5 A     6 A     7 A     8 A                  
 -- Virtual --                   
  0.168   0.203   0.231   0.236   0.303   0.463   0.580   0.609
  9 A    10 A    11 A    12 A    13 A    14 A    15 A    16 A                  
  0.689   0.705   0.776   0.807   0.858   0.928   0.971   1.006
 17 A    18 A    19 A    20 A    21 A    22 A    23 A    24 A                  
  1.130   1.237   1.241   1.263   1.291   1.593   1.728   1.744
 25 A    26 A    27 A    28 A    29 A    30 A    31 A    32 A                  
  1.811   1.852   1.854   1.901   1.963   1.972   2.224   2.248
 33 A    34 A    35 A    36 A    37 A    38 A    39 A    40 A                  
  2.356   2.423   2.493   2.623   2.679   2.795   3.099   3.369
 41 A    42 A    43 A    44 A    45 A    46 A    47 A    48 A                  

 Beta MOs, Restricted
 -- Occupied --                  
-11.239 -11.237  -1.030  -0.786  -0.635  -0.582  -0.500  -0.374
  1 A     2 A     3 A     4 A     5 A     6 A     7 A     8 A                  
 -- Virtual --                   
  0.168   0.203   0.231   0.236   0.303   0.463   0.580   0.609
  9 A    10 A    11 A    12 A    13 A    14 A    15 A    16 A                  
  0.689   0.705   0.776   0.807   0.858   0.928   0.971   1.006
 17 A    18 A    19 A    20 A    21 A    22 A    23 A    24 A                  
  1.130   1.237   1.241   1.263   1.291   1.593   1.728   1.744
 25 A    26 A    27 A    28 A    29 A    30 A    31 A    32 A                  
  1.811   1.852   1.854   1.901   1.963   1.972   2.224   2.248
 33 A    34 A    35 A    36 A    37 A    38 A    39 A    40 A                  
  2.356   2.423   2.493   2.623   2.679   2.795   3.099   3.369
 41 A    42 A    43 A    44 A    45 A    46 A    47 A    48 A                  
  Import AO data ...  CPU 0.00 s  wall 0.00 s
  Using point group: C1
  Irreducible representations in point group: A
  Molecular orbitals: 
  Occupied MOs:
  Block   0:   1 (  A) A   2 (  A) A   3 (  A) A   4 (  A) A   5 (  A) A
                  -11.24      -11.24       -1.03     -0.7859      -0.635
               6 (  A) A   7 (  A) A   8 (  A) A
                 -0.5823     -0.4995     -0.3744
  Block   1:   1 (  A) B   2 (  A) B   3 (  A) B   4 (  A) B   5 (  A) B
                  -11.24      -11.24       -1.03     -0.7859      -0.635
               6 (  A) B   7 (  A) B   8 (  A) B
                 -0.5823     -0.4995     -0.3744
  Virtual MOs:
  Block   0:   9 (  A) A  10 (  A) A  11 (  A) A  12 (  A) A  13 (  A) A
                  0.1679      0.2026       0.231      0.2364       0.303
              14 (  A) A  15 (  A) A  16 (  A) A  17 (  A) A  18 (  A) A
                  0.4628      0.5798      0.6089      0.6887      0.7048
              19 (  A) A  20 (  A) A  21 (  A) A  22 (  A) A
                  0.7757      0.8074      0.8584       0.928
  Block   1:  23 (  A) A  24 (  A) A  25 (  A) A  26 (  A) A  27 (  A) A
                  0.9706       1.006        1.13       1.237       1.241
              28 (  A) A  29 (  A) A  30 (  A) A  31 (  A) A  32 (  A) A
                   1.263       1.291       1.593       1.728       1.744
              33 (  A) A  34 (  A) A  35 (  A) A  36 (  A) A
                   1.811       1.852       1.854       1.901
  Block   2:  37 (  A) A  38 (  A) A  39 (  A) A  40 (  A) A  41 (  A) A
                   1.963       1.972       2.224       2.248       2.356
              42 (  A) A  43 (  A) A  44 (  A) A  45 (  A) A  46 (  A) A
                   2.423       2.493       2.623       2.679       2.795
              47 (  A) A  48 (  A) A
                   3.099       3.369
  Block   3:   9 (  A) B  10 (  A) B  11 (  A) B  12 (  A) B  13 (  A) B
                  0.1679      0.2026       0.231      0.2364       0.303
              14 (  A) B  15 (  A) B  16 (  A) B  17 (  A) B  18 (  A) B
                  0.4628      0.5798      0.6089      0.6887      0.7048
              19 (  A) B  20 (  A) B  21 (  A) B  22 (  A) B
                  0.7757      0.8074      0.8584       0.928
  Block   4:  23 (  A) B  24 (  A) B  25 (  A) B  26 (  A) B  27 (  A) B
                  0.9706       1.006        1.13       1.237       1.241
              28 (  A) B  29 (  A) B  30 (  A) B  31 (  A) B  32 (  A) B
                   1.263       1.291       1.593       1.728       1.744
              33 (  A) B  34 (  A) B  35 (  A) B  36 (  A) B
                   1.811       1.852       1.854       1.901
  Block   5:  37 (  A) B  38 (  A) B  39 (  A) B  40 (  A) B  41 (  A) B
                   1.963       1.972       2.224       2.248       2.356
              42 (  A) B  43 (  A) B  44 (  A) B  45 (  A) B  46 (  A) B
                   2.423       2.493       2.623       2.679       2.795
              47 (  A) B  48 (  A) B
                   3.099       3.369
  Import MO data ...  CPU 0.01 s  wall 0.01 s
  Import HF data ...  CPU 0.66 s  wall 0.21 s
  Import 2e integrals ...  CPU 1.15 s  wall 0.22 s

--------------------------------------------------------------------------------
                                   HF Summary                                   
--------------------------------------------------------------------------------
  Energy:                                                  -78.0396505746 a.u.
  Dip. moment [a.u.]:                  [   0.000106,    0.000130,   -0.001440]
  Total dipole [Debye]:                                               0.003685
  <r^2> [a.u.]:                        [ 175.856656,   35.299734,   11.679691]
  Total <r^2> [a.u.]:                                               222.836081
--------------------------------------------------------------------------------
  HF properties ...  CPU 0.11 s  wall 0.04 s
  MP(1) calculation ...  CPU 0.01 s  wall 0.01 s
  N^6 prerequesite intermediates ...  CPU 0.76 s  wall 0.14 s
  Difference density matrix of state mp2_gs printed to ASCII file 'State_mp2_gs_Difference.txt'
Exporting MP density matrix to file 'Densmat_MP.txt'.
Export successful
  Total density matrix of state mp2_gs printed to ASCII file 'State_mp2_gs_Total.txt'
Exporting MP density matrix to file 'Densmat_MP.txt'.
Export successful

--------------------------------------------------------------------------------
                                 MP(2) Summary                                  
--------------------------------------------------------------------------------
  MP energy contribution:                                   -0.2804889201 a.u.
  Total energy:                                            -78.3201394947 a.u.
  Dip. moment [a.u.]:                  [   0.000094,    0.000121,   -0.001422]
  Total dipole [Debye]:                                               0.003637
  <r^2> [a.u.]:                        [ 175.896819,   35.335558,   11.507253]
  Total <r^2> [a.u.]:                                               222.739630

  Density matrix analysis:
  ------------------------
  NOs
    Occupation of frontier NOs:
       0.0455   1.9380
    Number of electrons: 16.000000
    Number of unpaired electrons: n_u =  0.40725, n_u,nl =  0.04580
    NO participation ratio (PR_NO): 13.896541
  
  
  Mulliken Population Analysis
  Atom      Charge (e)              h+              e-           Del q
  --------------------------------------------------------------------
   1 H        0.054969        0.013907       -0.011310        0.002598
   2 C       -0.110151        0.094609       -0.099802       -0.005193
   3 H        0.055017        0.013905       -0.011310        0.002595
   4 C       -0.109742        0.094580       -0.099778       -0.005198
   5 H        0.054942        0.013908       -0.011308        0.002600
   6 H        0.054965        0.013907       -0.011308        0.002599
  --------------------------------------------------------------------
  Sum:       -0.000000        0.244816       -0.244816        0.000000
  
  Multipole moment analysis of the density matrix
    Molecular charge:                      -0.000000
    Number of electrons:                   16.000000
      Center of electronic charge [Ang]: [ -1.561538,  -0.065085,   0.003731]
    Total nuclear charge:                  16.000000
      Center of nuclear charge [Ang]:    [ -1.561535,  -0.065081,   0.003684]
    Dipole moment [D]:                     0.003637
      Cartesian components [D]:          [  0.000239,   0.000309,  -0.003616]
    RMS size of the density [Ang]:         1.206519
      Cartesian components [Ang]:        [  0.800066,   0.783709,   0.448758]
  
  Exciton analysis of the difference density matrix
    <r_h> [Ang]:                  [ -1.561525,  -0.065169,   0.003957]
    <r_e> [Ang]:                  [ -1.561499,  -0.065150,   0.003919]
    |<r_e - r_h>| [Ang]:            0.000049
    Hole size [Ang]:                1.401654
      Cartesian components [Ang]: [  0.852976,   0.840274,   0.728702]
    Electron size [Ang]:            1.361761
      Cartesian components [Ang]: [  0.879538,   0.864315,   0.577726]
--------------------------------------------------------------------------------
  MP(2) calculation ...  CPU 0.35 s  wall 0.21 s
  Start ADC(2)-s ...  CPU 0.02 s  wall 0.01 s
  ADC(2) intermediates ...  CPU 0.04 s  wall 0.01 s
  Starting Davidson for singlet states of irrep A ... 
--------------------------------------------------------------------------------
   It NVec Conv  Avg. Norm  Max. Norm  Conv. states           Remark
--------------------------------------------------------------------------------
        10    0  1.329e-01  4.687e-01  0.4117 n n n n n n n n Guess.
    1   20    0  2.316e-02  1.125e-01  0.3261 n n n n n n n n 
    2   30    0  5.949e-03  2.461e-02  0.3213 n n n n n n n n 
    3   40    0  1.995e-03  1.049e-02  0.3209 n n n n n n n n 
    4   50    0  5.186e-04  3.451e-03  0.3209 n n n n n n n n 
    5   20    0  2.677e-04  1.664e-03  0.3209 n n n n n n n n Subspace collapsed.
    6   30    0  1.325e-04  7.818e-04  0.3209 n n n n n n n n 
    7   40    0  1.055e-04  7.763e-04  0.3209 n n n n n n n n 
    8   50    0  5.474e-05  3.344e-04  0.3209 n n n n n n n n 
    9   20    1  3.030e-05  1.862e-04  0.3209 n y n n n n n n Subspace collapsed.
   10   30    3  2.461e-05  1.788e-04  0.3209 n y y y n n n n 
   11   40    4  1.069e-05  7.926e-05  0.3209 n y y y y n n n 
   12   50    6  5.180e-06  3.543e-05  0.3209 y y y y y y n n 
   13   20    6  2.905e-06  1.693e-05  0.3209 y y y y y y n n Subspace collapsed.
   14   30    6  2.890e-06  1.635e-05  0.3209 y y y y y y n n 
   15   40    6  2.307e-06  1.701e-05  0.3209 y y y y y y n n 
   16   50    6  1.563e-06  1.279e-05  0.3209 y y y y y y n n 
   17   20    6  8.499e-07  7.076e-06  0.3209 y y y y y y n n Subspace collapsed.
   18   30    7  7.065e-07  5.832e-06  0.3209 y y y y y y y n 
   19   40    7  3.868e-07  3.260e-06  0.3209 y y y y y y y n 
   20   50    8  3.997e-07  3.664e-06  0.3209 y y y y y y y n 
   21   20    9  1.897e-07  1.747e-06  0.3209 y y y y y y y y Subspace collapsed.
   22   30    9  2.510e-07  2.362e-06  0.3209 y y y y y y y y 
   23   32    9  2.508e-07  2.363e-06  0.3209 y y y y y y y y 
   24   34    9  2.348e-07  2.223e-06  0.3209 y y y y y y y y 
   25   35    9  2.385e-07  2.259e-06  0.3209 y y y y y y y y 
   26   35    9  2.385e-07  2.259e-06  0.3209 y y y y y y y y 
   27   45    9  2.449e-07  2.362e-06  0.3209 y y y y y y y y 
   28   50    9  1.891e-07  1.844e-06  0.3209 y y y y y y y y 
   29   16   10  9.994e-08  9.743e-07  0.3209 y y y y y y y y Converged.
--------------------------------------------------------------------------------
  Davidson Summary: 
 ------------------------------------------------------------
  State  0: excitation energy =   0.3209 a.u.   (converged)
  State  1: excitation energy =   0.3290 a.u.   (converged)
  State  2: excitation energy =   0.3359 a.u.   (converged)
  State  3: excitation energy =   0.3579 a.u.   (converged)
  State  4: excitation energy =   0.3733 a.u.   (converged)
  State  5: excitation energy =   0.3866 a.u.   (converged)
  State  6: excitation energy =   0.4202 a.u.   (converged)
  State  7: excitation energy =   0.4435 a.u.   (converged)
  State  8: excitation energy =   0.4537 a.u.   (converged)
  State  9: excitation energy =   0.4585 a.u.   (converged)
 ------------------------------------------------------------

  Singlet states of irrep A ...  CPU 191.71 s  wall 64.48 s
  TDMs ...  CPU 1.95 s  wall 0.81 s
  SDMs ...  CPU 4.35 s  wall 1.41 s
  Starting TPA DIIS iterations ... 
------------------------------------ 
   It     Res. Norm  Remark
------------------------------------
                       Guess.
    1     4.396e+00  
    2     5.833e+00  
    3     1.086e+00  
    4     2.633e-01  
    5     6.571e-02  
    6     2.778e-02  
    7     8.477e-03  
    8     1.552e-03  
    9     5.830e-04  
   10     9.776e-05  
   11     3.157e-05  
   12     4.887e-06  
   13     1.659e-06  
   14     4.803e-07  Converged.
   ... Converged in 14 steps (norm: 4.80288e-07)
------------------------------------
  Starting TPA DIIS iterations ... 
------------------------------------ 
   It     Res. Norm  Remark
------------------------------------
                       Guess.
    1     4.189e+00  
    2     5.547e+00  
    3     1.037e+00  
    4     2.615e-01  
    5     6.545e-02  
    6     2.778e-02  
    7     8.335e-03  
    8     1.571e-03  
    9     5.918e-04  
   10     9.733e-05  
   11     3.188e-05  
   12     4.860e-06  
   13     1.683e-06  
   14     4.766e-07  Converged.
   ... Converged in 14 steps (norm: 4.76582e-07)
------------------------------------
  Starting TPA DIIS iterations ... 
------------------------------------ 
   It     Res. Norm  Remark
------------------------------------
                       Guess.
    1     6.845e-01  
    2     4.770e-01  
    3     1.678e-01  
    4     4.252e-02  
    5     1.733e-02  
    6     7.636e-03  
    7     1.074e-03  
    8     4.584e-04  
    9     1.262e-04  
   10     3.103e-05  
   11     5.054e-06  
   12     1.604e-06  
   13     5.743e-07  Converged.
   ... Converged in 13 steps (norm: 5.74271e-07)
------------------------------------
  Starting TPA DIIS iterations ... 
------------------------------------ 
   It     Res. Norm  Remark
------------------------------------
                       Guess.
    1     4.592e+00  
    2     6.184e+00  
    3     1.142e+00  
    4     2.833e-01  
    5     7.139e-02  
    6     3.038e-02  
    7     9.259e-03  
    8     1.694e-03  
    9     6.395e-04  
   10     1.077e-04  
   11     3.501e-05  
   12     5.452e-06  
   13     1.861e-06  
   14     5.371e-07  Converged.
   ... Converged in 14 steps (norm: 5.37071e-07)
------------------------------------
  Starting TPA DIIS iterations ... 
------------------------------------ 
   It     Res. Norm  Remark
------------------------------------
                       Guess.
    1     4.374e+00  
    2     5.880e+00  
    3     1.090e+00  
    4     2.811e-01  
    5     7.111e-02  
    6     3.039e-02  
    7     9.104e-03  
    8     1.716e-03  
    9     6.494e-04  
   10     1.072e-04  
   11     3.534e-05  
   12     5.420e-06  
   13     1.889e-06  
   14     5.328e-07  Converged.
   ... Converged in 14 steps (norm: 5.32824e-07)
------------------------------------
  Starting TPA DIIS iterations ... 
------------------------------------ 
   It     Res. Norm  Remark
------------------------------------
                       Guess.
    1     6.928e-01  
    2     4.886e-01  
    3     1.743e-01  
    4     4.561e-02  
    5     1.863e-02  
    6     8.088e-03  
    7     1.166e-03  
    8     5.138e-04  
    9     1.439e-04  
   10     3.440e-05  
   11     5.500e-06  
   12     1.790e-06  
   13     6.573e-07  Converged.
   ... Converged in 13 steps (norm: 6.57341e-07)
------------------------------------
  Starting TPA DIIS iterations ... 
------------------------------------ 
   It     Res. Norm  Remark
------------------------------------
                       Guess.
    1     4.772e+00  
    2     6.511e+00  
    3     1.193e+00  
    4     3.022e-01  
    5     7.675e-02  
    6     3.285e-02  
    7     9.998e-03  
    8     1.828e-03  
    9     6.932e-04  
   10     1.171e-04  
   11     3.830e-05  
   12     5.995e-06  
   13     2.058e-06  
   14     5.917e-07  Converged.
   ... Converged in 14 steps (norm: 5.91682e-07)
------------------------------------
  Starting TPA DIIS iterations ... 
------------------------------------ 
   It     Res. Norm  Remark
------------------------------------
                       Guess.
    1     4.545e+00  
    2     6.190e+00  
    3     1.138e+00  
    4     2.997e-01  
    5     7.645e-02  
    6     3.288e-02  
    7     9.832e-03  
    8     1.852e-03  
    9     7.041e-04  
   10     1.166e-04  
   11     3.866e-05  
   12     5.958e-06  
   13     2.090e-06  
   14     5.869e-07  Converged.
   ... Converged in 14 steps (norm: 5.86943e-07)
------------------------------------
  Starting TPA DIIS iterations ... 
------------------------------------ 
   It     Res. Norm  Remark
------------------------------------
                       Guess.
    1     7.000e-01  
    2     4.989e-01  
    3     1.802e-01  
    4     4.856e-02  
    5     1.980e-02  
    6     8.502e-03  
    7     1.254e-03  
    8     5.680e-04  
    9     1.613e-04  
   10     3.716e-05  
   11     5.915e-06  
   12     1.972e-06  
   13     7.422e-07  Converged.
   ... Converged in 13 steps (norm: 7.42249e-07)
------------------------------------
  Starting TPA DIIS iterations ... 
------------------------------------ 
   It     Res. Norm  Remark
------------------------------------
                       Guess.
    1     5.422e+00  
    2     7.720e+00  
    3     1.377e+00  
    4     3.744e-01  
    5     9.727e-02  
    6     4.241e-02  
    7     1.283e-02  
    8     2.340e-03  
    9     9.006e-04  
   10     1.536e-04  
   11     5.132e-05  
   12     8.142e-06  
   13     2.856e-06  
   14     8.090e-07  Converged.
   ... Converged in 14 steps (norm: 8.08971e-07)
------------------------------------
  Starting TPA DIIS iterations ... 
------------------------------------ 
   It     Res. Norm  Remark
------------------------------------
                       Guess.
    1     5.162e+00  
    2     7.340e+00  
    3     1.313e+00  
    4     3.706e-01  
    5     9.692e-02  
    6     4.249e-02  
    7     1.262e-02  
    8     2.376e-03  
    9     9.158e-04  
   10     1.530e-04  
   11     5.172e-05  
   12     8.083e-06  
   13     2.901e-06  
   14     8.027e-07  Converged.
   ... Converged in 14 steps (norm: 8.02652e-07)
------------------------------------
  Starting TPA DIIS iterations ... 
------------------------------------ 
   It     Res. Norm  Remark
------------------------------------
                       Guess.
    1     7.238e-01  
    2     5.343e-01  
    3     2.011e-01  
    4     6.018e-02  
    5     2.386e-02  
    6     1.001e-02  
    7     1.604e-03  
    8     7.858e-04  
    9     2.297e-04  
   10     4.405e-05  
   11     7.464e-06  
   12     2.709e-06  
   13     1.129e-06  
   14     5.463e-07  Converged.
   ... Converged in 14 steps (norm: 5.46325e-07)
------------------------------------
  Starting TPA DIIS iterations ... 
------------------------------------ 
   It     Res. Norm  Remark
------------------------------------
                       Guess.
    1     5.972e+00  
    2     8.778e+00  
    3     1.531e+00  
    4     4.400e-01  
    5     1.159e-01  
    6     5.121e-02  
    7     1.541e-02  
    8     2.805e-03  
    9     1.091e-03  
   10     1.873e-04  
   11     6.354e-05  
   12     1.016e-05  
   13     3.629e-06  
   14     1.018e-06  
   15     3.723e-07  Converged.
   ... Converged in 15 steps (norm: 3.72294e-07)
------------------------------------
  Starting TPA DIIS iterations ... 
------------------------------------ 
   It     Res. Norm  Remark
------------------------------------
                       Guess.
    1     5.684e+00  
    2     8.344e+00  
    3     1.460e+00  
    4     4.350e-01  
    5     1.155e-01  
    6     5.136e-02  
    7     1.517e-02  
    8     2.852e-03  
    9     1.110e-03  
   10     1.866e-04  
   11     6.397e-05  
   12     1.008e-05  
   13     3.687e-06  
   14     1.010e-06  
   15     3.580e-07  Converged.
   ... Converged in 15 steps (norm: 3.58019e-07)
------------------------------------
  Starting TPA DIIS iterations ... 
------------------------------------ 
   It     Res. Norm  Remark
------------------------------------
                       Guess.
    1     7.415e-01  
    2     5.621e-01  
    3     2.181e-01  
    4     7.123e-02  
    5     2.705e-02  
    6     1.134e-02  
    7     1.940e-03  
    8     9.850e-04  
    9     2.905e-04  
   10     4.674e-05  
   11     8.861e-06  
   12     3.429e-06  
   13     1.574e-06  
   14     7.115e-07  Converged.
   ... Converged in 14 steps (norm: 7.11511e-07)
------------------------------------
  Starting TPA DIIS iterations ... 
------------------------------------ 
   It     Res. Norm  Remark
------------------------------------
                       Guess.
    1     6.523e+00  
    2     9.868e+00  
    3     1.685e+00  
    4     5.097e-01  
    5     1.357e-01  
    6     6.065e-02  
    7     1.815e-02  
    8     3.297e-03  
    9     1.296e-03  
   10     2.234e-04  
   11     7.675e-05  
   12     1.235e-05  
   13     4.485e-06  
   14     1.251e-06  
   15     4.758e-07  Converged.
   ... Converged in 15 steps (norm: 4.75821e-07)
------------------------------------
  Starting TPA DIIS iterations ... 
------------------------------------ 
   It     Res. Norm  Remark
------------------------------------
                       Guess.
    1     6.207e+00  
    2     9.380e+00  
    3     1.607e+00  
    4     5.032e-01  
    5     1.352e-01  
    6     6.087e-02  
    7     1.787e-02  
    8     3.356e-03  
    9     1.319e-03  
   10     2.225e-04  
   11     7.719e-05  
   12     1.224e-05  
   13     4.555e-06  
   14     1.244e-06  
   15     4.532e-07  Converged.
   ... Converged in 15 steps (norm: 4.53185e-07)
------------------------------------
  Starting TPA DIIS iterations ... 
------------------------------------ 
   It     Res. Norm  Remark
------------------------------------
                       Guess.
    1     7.575e-01  
    2     5.883e-01  
    3     2.345e-01  
    4     8.343e-02  
    5     3.006e-02  
    6     1.274e-02  
    7     2.313e-03  
    8     1.184e-03  
    9     3.509e-04  
   10     4.803e-05  
   11     1.037e-05  
   12     4.241e-06  
   13     2.148e-06  
   14     8.889e-07  Converged.
   ... Converged in 14 steps (norm: 8.88866e-07)
------------------------------------
  Starting TPA DIIS iterations ... 
------------------------------------ 
   It     Res. Norm  Remark
------------------------------------
                       Guess.
    1     8.344e+00  
    2     1.366e+01  
    3     2.185e+00  
    4     7.632e-01  
    5     2.077e-01  
    6     9.572e-02  
    7     2.814e-02  
    8     5.083e-03  
    9     2.052e-03  
   10     3.567e-04  
   11     1.253e-04  
   12     2.049e-05  
   13     7.756e-06  
   14     2.218e-06  
   15     9.325e-07  Converged.
   ... Converged in 15 steps (norm: 9.32474e-07)
------------------------------------
  Starting TPA DIIS iterations ... 
------------------------------------ 
   It     Res. Norm  Remark
------------------------------------
                       Guess.
    1     7.936e+00  
    2     1.298e+01  
    3     2.082e+00  
    4     7.505e-01  
    5     2.071e-01  
    6     9.625e-02  
    7     2.771e-02  
    8     5.190e-03  
    9     2.090e-03  
   10     3.553e-04  
   11     1.257e-04  
   12     2.030e-05  
   13     7.856e-06  
   14     2.206e-06  
   15     8.574e-07  Converged.
   ... Converged in 15 steps (norm: 8.57444e-07)
------------------------------------
  Starting TPA DIIS iterations ... 
------------------------------------ 
   It     Res. Norm  Remark
------------------------------------
                       Guess.
    1     8.009e-01  
    2     6.656e-01  
    3     2.855e-01  
    4     1.317e-01  
    5     3.960e-02  
    6     1.788e-02  
    7     3.773e-03  
    8     1.728e-03  
    9     5.362e-04  
   10     5.491e-05  
   11     1.616e-05  
   12     7.583e-06  
   13     5.113e-06  
   14     1.515e-06  
   15     5.318e-07  Converged.
   ... Converged in 15 steps (norm: 5.31833e-07)
------------------------------------
  Starting TPA DIIS iterations ... 
------------------------------------ 
   It     Res. Norm  Remark
------------------------------------
                       Guess.
    1     1.014e+01  
    2     1.766e+01  
    3     2.667e+00  
    4     1.041e+00  
    5     2.873e-01  
    6     1.354e-01  
    7     3.920e-02  
    8     7.050e-03  
    9     2.903e-03  
   10     5.058e-04  
   11     1.774e-04  
   12     2.983e-05  
   13     1.153e-05  
   14     3.488e-06  
   15     1.629e-06  
   16     4.735e-07  Converged.
   ... Converged in 16 steps (norm: 4.73454e-07)
------------------------------------
  Starting TPA DIIS iterations ... 
------------------------------------ 
   It     Res. Norm  Remark
------------------------------------
                       Guess.
    1     9.644e+00  
    2     1.679e+01  
    3     2.540e+00  
    4     1.021e+00  
    5     2.865e-01  
    6     1.364e-01  
    7     3.862e-02  
    8     7.214e-03  
    9     2.960e-03  
   10     5.038e-04  
   11     1.779e-04  
   12     2.959e-05  
   13     1.164e-05  
   14     3.447e-06  
   15     1.457e-06  
   16     3.509e-07  Converged.
   ... Converged in 16 steps (norm: 3.50908e-07)
------------------------------------
  Starting TPA DIIS iterations ... 
------------------------------------ 
   It     Res. Norm  Remark
------------------------------------
                       Guess.
    1     8.343e-01  
    2     7.317e-01  
    3     3.318e-01  
    4     1.906e-01  
    5     4.956e-02  
    6     2.343e-02  
    7     5.477e-03  
    8     2.026e-03  
    9     6.993e-04  
   10     7.128e-05  
   11     2.302e-05  
   12     1.187e-05  
   13     9.603e-06  
   14     2.207e-06  
   15     7.723e-07  Converged.
   ... Converged in 15 steps (norm: 7.72332e-07)
------------------------------------
  Starting TPA DIIS iterations ... 
------------------------------------ 
   It     Res. Norm  Remark
------------------------------------
                       Guess.
    1     1.113e+01  
    2     1.997e+01  
    3     2.928e+00  
    4     1.203e+00  
    5     3.343e-01  
    6     1.592e-01  
    7     4.573e-02  
    8     8.208e-03  
    9     3.410e-03  
   10     5.941e-04  
   11     2.072e-04  
   12     3.557e-05  
   13     1.389e-05  
   14     4.320e-06  
   15     2.174e-06  
   16     6.781e-07  Converged.
   ... Converged in 16 steps (norm: 6.78133e-07)
------------------------------------
  Starting TPA DIIS iterations ... 
------------------------------------ 
   It     Res. Norm  Remark
------------------------------------
                       Guess.
    1     1.059e+01  
    2     1.898e+01  
    3     2.788e+00  
    4     1.178e+00  
    5     3.334e-01  
    6     1.604e-01  
    7     4.505e-02  
    8     8.406e-03  
    9     3.478e-03  
   10     5.917e-04  
   11     2.079e-04  
   12     3.533e-05  
   13     1.399e-05  
   14     4.243e-06  
   15     1.925e-06  
   16     4.747e-07  Converged.
   ... Converged in 16 steps (norm: 4.74731e-07)
------------------------------------
  Starting TPA DIIS iterations ... 
------------------------------------ 
   It     Res. Norm  Remark
------------------------------------
                       Guess.
    1     8.498e-01  
    2     7.649e-01  
    3     3.559e-01  
    4     2.269e-01  
    5     5.539e-02  
    6     2.654e-02  
    7     6.490e-03  
    8     2.115e-03  
    9     7.837e-04  
   10     8.276e-05  
   11     2.721e-05  
   12     1.461e-05  
   13     1.261e-05  
   14     2.639e-06  
   15     9.122e-07  Converged.
   ... Converged in 15 steps (norm: 9.12195e-07)
------------------------------------
  Starting TPA DIIS iterations ... 
------------------------------------ 
   It     Res. Norm  Remark
------------------------------------
                       Guess.
    1     1.165e+01  
    2     2.120e+01  
    3     3.063e+00  
    4     1.290e+00  
    5     3.595e-01  
    6     1.721e-01  
    7     4.923e-02  
    8     8.830e-03  
    9     3.684e-03  
   10     6.416e-04  
   11     2.230e-04  
   12     3.873e-05  
   13     1.522e-05  
   14     4.792e-06  
   15     2.512e-06  
   16     8.064e-07  Converged.
   ... Converged in 16 steps (norm: 8.06422e-07)
------------------------------------
  Starting TPA DIIS iterations ... 
------------------------------------ 
   It     Res. Norm  Remark
------------------------------------
                       Guess.
    1     1.108e+01  
    2     2.014e+01  
    3     2.916e+00  
    4     1.262e+00  
    5     3.586e-01  
    6     1.734e-01  
    7     4.851e-02  
    8     9.046e-03  
    9     3.758e-03  
   10     6.389e-04  
   11     2.238e-04  
   12     3.850e-05  
   13     1.531e-05  
   14     4.689e-06  
   15     2.214e-06  
   16     5.497e-07  Converged.
   ... Converged in 16 steps (norm: 5.49671e-07)
------------------------------------
  Starting TPA DIIS iterations ... 
------------------------------------ 
   It     Res. Norm  Remark
------------------------------------
                       Guess.
    1     8.573e-01  
    2     7.813e-01  
    3     3.680e-01  
    4     2.468e-01  
    5     5.851e-02  
    6     2.814e-02  
    7     7.032e-03  
    8     2.147e-03  
    9     8.265e-04  
   10     8.907e-05  
   11     2.949e-05  
   12     1.613e-05  
   13     1.431e-05  
   14     2.881e-06  
   15     9.924e-07  Converged.
   ... Converged in 15 steps (norm: 9.92446e-07)
------------------------------------
  Two-photon absorbption ...  CPU 158.55 s  wall 43.08 s
  Transition density matrix of state singlet_A_1 printed to ASCII file 'State_singlet_A_1_Transition.txt'
  Transition density matrix of state singlet_A_2 printed to ASCII file 'State_singlet_A_2_Transition.txt'
  Transition density matrix of state singlet_A_3 printed to ASCII file 'State_singlet_A_3_Transition.txt'
  Transition density matrix of state singlet_A_4 printed to ASCII file 'State_singlet_A_4_Transition.txt'
  Transition density matrix of state singlet_A_5 printed to ASCII file 'State_singlet_A_5_Transition.txt'
  Transition density matrix of state singlet_A_6 printed to ASCII file 'State_singlet_A_6_Transition.txt'
  Transition density matrix of state singlet_A_7 printed to ASCII file 'State_singlet_A_7_Transition.txt'
  Transition density matrix of state singlet_A_8 printed to ASCII file 'State_singlet_A_8_Transition.txt'
  Transition density matrix of state singlet_A_9 printed to ASCII file 'State_singlet_A_9_Transition.txt'
  Transition density matrix of state singlet_A_10 printed to ASCII file 'State_singlet_A_10_Transition.txt'
  Transition properties ...  CPU 0.37 s  wall 0.60 s
  Difference density matrix of state singlet_A_1 printed to ASCII file 'State_singlet_A_1_Difference.txt'
  Total density matrix of state singlet_A_1 printed to ASCII file 'State_singlet_A_1_Total.txt'
  Difference density matrix of state singlet_A_2 printed to ASCII file 'State_singlet_A_2_Difference.txt'
  Total density matrix of state singlet_A_2 printed to ASCII file 'State_singlet_A_2_Total.txt'
  Difference density matrix of state singlet_A_3 printed to ASCII file 'State_singlet_A_3_Difference.txt'
  Total density matrix of state singlet_A_3 printed to ASCII file 'State_singlet_A_3_Total.txt'
  Difference density matrix of state singlet_A_4 printed to ASCII file 'State_singlet_A_4_Difference.txt'
  Total density matrix of state singlet_A_4 printed to ASCII file 'State_singlet_A_4_Total.txt'
  Difference density matrix of state singlet_A_5 printed to ASCII file 'State_singlet_A_5_Difference.txt'
  Total density matrix of state singlet_A_5 printed to ASCII file 'State_singlet_A_5_Total.txt'
  Difference density matrix of state singlet_A_6 printed to ASCII file 'State_singlet_A_6_Difference.txt'
  Total density matrix of state singlet_A_6 printed to ASCII file 'State_singlet_A_6_Total.txt'
  Difference density matrix of state singlet_A_7 printed to ASCII file 'State_singlet_A_7_Difference.txt'
  Total density matrix of state singlet_A_7 printed to ASCII file 'State_singlet_A_7_Total.txt'
  Difference density matrix of state singlet_A_8 printed to ASCII file 'State_singlet_A_8_Difference.txt'
  Total density matrix of state singlet_A_8 printed to ASCII file 'State_singlet_A_8_Total.txt'
  Difference density matrix of state singlet_A_9 printed to ASCII file 'State_singlet_A_9_Difference.txt'
  Total density matrix of state singlet_A_9 printed to ASCII file 'State_singlet_A_9_Total.txt'
  Difference density matrix of state singlet_A_10 printed to ASCII file 'State_singlet_A_10_Difference.txt'
  Total density matrix of state singlet_A_10 printed to ASCII file 'State_singlet_A_10_Total.txt'
  Properties ...  CPU 0.64 s  wall 0.86 s
  ISR TDMS ...  CPU 30.26 s  wall 9.29 s
  ISR transition properties ...  CPU 0.55 s  wall 0.25 s
  Sum-over-states TPA ...  CPU 0.00 s  wall 0.00 s

--------------------------------------------------------------------------------
                   State-averaged natural transition orbitals
--------------------------------------------------------------------------------
--------------------------------------------------------------------------------
  SA-NTO decomposition ...  CPU 0.01 s  wall 0.03 s

--------------------------------------------------------------------------------
                             Excited State Summary
--------------------------------------------------------------------------------
--------------------------------------------------------------------------------

  Excited state 1 (singlet, A)                                     [converged]
  ----------------------------------------------------------------------------
  Term symbol:  2 (1) A                                     R^2 =  2.32662e-13

  Total energy:                                            -77.9992532604 a.u.
  Excitation energy:                                               8.731759 eV

  Osc. strength:                                                      0.446196
  Trans. dip. moment [a.u.]:           [  -1.047036,    0.994707,    0.006300]
  <i|r^2|0> [a.u.]:                    [  -6.179769,    0.245295,   -0.000173]
  Two-photon absorption cross-section (SoS) [a.u.]:                   0.000040
  Two-photon absorption matrix (SoS) [a.u.]:
                                       |    0.000440    0.000629   -0.001405 |
                                       |    0.000629    0.000763    0.001417 |
                                       |   -0.001405    0.001417   -0.000213 |
  Two-photon absorption cross-section [a.u.]:                         0.000113
  Two-photon absorption matrix [a.u.]:
                                       |   -0.000307    0.000256   -0.002425 |
                                       |    0.000256   -0.000161    0.002806 |
                                       |   -0.002425    0.002806   -0.000338 |

  Dip. moment [a.u.]:                  [   0.000073,    0.000160,   -0.001735]
  Total dipole [Debye]:                                               0.004433
  <r^2> [a.u.]:                        [ 176.643439,   36.021917,   11.918221]
  Total <r^2> [a.u.]:                                               224.583577

  V1^2 = 0.9713, V2^2 = 0.0287

  Important amplitudes:
      occ i     occ j     vir a      vir b          v   
    -----------------------------------------------------
     8 (A) A              9 (A) A                 0.6809
     6 (A) A             14 (A) A                 0.0617
     4 (A) A             10 (A) A                 0.0614
     7 (A) A             16 (A) A                 0.0575
     5 (A) A             13 (A) A                 0.0527
     6 (A) A             23 (A) A                 0.0485
     8 (A) A             20 (A) A                -0.0348
     6 (A) A             19 (A) A                 0.0302
     3 (A) A             12 (A) A                -0.0285
     5 (A) A             22 (A) A                -0.0218
     4 (A) A             24 (A) A                 0.0188
     3 (A) A             26 (A) A                -0.0187
     7 (A) A             11 (A) A                -0.0186
     8 (A) A   8 (A) B   17 (A) A   20 (A) B      0.0184
     8 (A) A   8 (A) B    9 (A) A   28 (A) B      0.0168
     6 (A) A             26 (A) A                -0.0163
     7 (A) A             21 (A) A                -0.0152
     3 (A) A             14 (A) A                 0.0143
     6 (A) A             12 (A) A                 0.0136
     3 (A) A   4 (A) B    9 (A) A    9 (A) B     -0.0129
     3 (A) A             19 (A) A                 0.0121
     8 (A) A   8 (A) B   18 (A) A   19 (A) B     -0.0111
     7 (A) A             32 (A) A                -0.0097
     7 (A) A             36 (A) A                 0.0086
     3 (A) A             23 (A) A                 0.0082
     8 (A) A   8 (A) B   25 (A) A   29 (A) B     -0.0076
     6 (A) A             35 (A) A                -0.0071
     6 (A) A             40 (A) A                -0.0067
     3 (A) A   6 (A) B    9 (A) A   28 (A) B      0.0065
     5 (A) A   8 (A) B   11 (A) A    9 (A) B      0.0062
     7 (A) A   8 (A) B   13 (A) A   20 (A) B     -0.0060
     5 (A) A   8 (A) B   11 (A) A   20 (A) B      0.0060
     5 (A) A   7 (A) B    9 (A) A    9 (A) B      0.0060
     6 (A) A   8 (A) A   19 (A) A   28 (A) A     -0.0060
     5 (A) A             27 (A) A                -0.0060
     5 (A) A   8 (A) B   16 (A) A    9 (A) B      0.0059
     3 (A) A   5 (A) B    9 (A) A   25 (A) B     -0.0058
     7 (A) A   8 (A) B   22 (A) A   20 (A) B      0.0057
     3 (A) A             40 (A) A                -0.0056
     8 (A) A   8 (A) B   19 (A) A   30 (A) B     -0.0056
    -----------------------------------------------------

  Density matrix analysis:
  ------------------------
  NOs
    Occupation of frontier NOs:
       0.9491   1.0219
    Number of electrons: 16.000000
    Number of unpaired electrons: n_u =  2.31679, n_u,nl =  2.03329
    NO participation ratio (PR_NO):  2.874058
  
  
  Mulliken Population Analysis
  Atom      Charge (e)              h+              e-           Del q
  --------------------------------------------------------------------
   1 H        0.062984        0.020439       -0.012424        0.008015
   2 C       -0.126201        0.490661       -0.506711       -0.016050
   3 H        0.063035        0.020441       -0.012424        0.008017
   4 C       -0.125758        0.490670       -0.506685       -0.016015
   5 H        0.062958        0.020437       -0.012421        0.008016
   6 H        0.062982        0.020438       -0.012421        0.008017
  --------------------------------------------------------------------
  Sum:       -0.000000        1.063086       -1.063086        0.000000
  
  Multipole moment analysis of the density matrix
    Molecular charge:                      -0.000000
    Number of electrons:                   16.000000
      Center of electronic charge [Ang]: [ -1.561537,  -0.065086,   0.003741]
    Total nuclear charge:                  16.000000
      Center of nuclear charge [Ang]:    [ -1.561535,  -0.065081,   0.003684]
    Dipole moment [D]:                     0.004433
      Cartesian components [D]:          [  0.000185,   0.000407,  -0.004411]
    RMS size of the density [Ang]:         1.219821
      Cartesian components [Ang]:        [  0.808193,   0.791335,   0.456701]
  
  Exciton analysis of the difference density matrix
    <r_h> [Ang]:                  [ -1.561588,  -0.065085,   0.004439]
    <r_e> [Ang]:                  [ -1.561578,  -0.065104,   0.004594]
    |<r_e - r_h>| [Ang]:            0.000157
    Hole size [Ang]:                1.287300
      Cartesian components [Ang]: [  0.730166,   0.714807,   0.782976]
    Electron size [Ang]:            1.463860
      Cartesian components [Ang]: [  0.854309,   0.831710,   0.849295]

  Transition density matrix analysis:
  -----------------------------------
  
  CT numbers (Mulliken)
    omega =     0.9532
    <Phe> =    -0.1603
  
  Exciton analysis of the transition density matrix
    Trans. dipole moment [D]:             1.835418
      Cartesian components [D]:         [ -1.330650,   1.264146,   0.008006]
    <r_h> [Ang]:                        [ -1.561600,  -0.065051,   0.004303]
    <r_e> [Ang]:                        [ -1.561582,  -0.065116,   0.004715]
    |<r_e - r_h>| [Ang]:                  0.000417
    Hole size [Ang]:                      1.214404
      Cartesian components [Ang]:       [  0.649915,   0.637052,   0.804085]
    Electron size [Ang]:                  1.486757
      Cartesian components [Ang]:       [  0.864769,   0.840589,   0.869500]
    RMS electron-hole separation [Ang]:   1.937179
      Cartesian components [Ang]:       [  1.106741,   1.076324,   1.170176]
    Covariance(r_h, r_e) [Ang^2]:        -0.033719
    Correlation coefficient:             -0.018676
    Center-of-mass size [Ang]:            0.951024
      Cartesian components [Ang]:       [  0.528099,   0.516328,   0.599136]

  Decomposition into state-averaged NTOs
    H- 0 -> L+ 0:  0.6697 ( 89.7%)
    H- 2 -> L+ 5:  0.0830 (  1.4%)
                   omega =  95.3%
  ----------------------------------------------------------------------------


  Excited state 2 (singlet, A)                                     [converged]
  ----------------------------------------------------------------------------
  Term symbol:  3 (1) A                                     R^2 =  1.82060e-13

  Total energy:                                            -77.9911443414 a.u.
  Excitation energy:                                               8.952413 eV

  Osc. strength:                                                      0.000000
  Trans. dip. moment [a.u.]:           [   0.000187,    0.001243,    0.000509]
  <i|r^2|0> [a.u.]:                    [  -0.069951,   -0.080617,    0.151971]
  Two-photon absorption cross-section (SoS) [a.u.]:                   4.564460
  Two-photon absorption matrix (SoS) [a.u.]:
                                       |   -0.056930   -0.057475    0.513920 |
                                       |   -0.057475   -0.057861    0.541526 |
                                       |    0.513920    0.541526    0.114857 |
  Two-photon absorption cross-section [a.u.]:                         0.175966
  Two-photon absorption matrix [a.u.]:
                                       |   -0.011127    0.010031   -0.100839 |
                                       |    0.010031    0.033462   -0.104193 |
                                       |   -0.100839   -0.104193   -0.022303 |

  Dip. moment [a.u.]:                  [   0.001617,   -0.000480,   -0.003205]
  Total dipole [Debye]:                                               0.009205
  <r^2> [a.u.]:                        [ 174.989258,   34.367128,   13.214433]
  Total <r^2> [a.u.]:                                               222.570819

  V1^2 = 0.9541, V2^2 = 0.0459

  Important amplitudes:
      occ i     occ j     vir a      vir b          v   
    -----------------------------------------------------
     7 (A) A              9 (A) A                -0.6685
     8 (A) A             11 (A) A                 0.1513
     7 (A) A             20 (A) A                 0.0756
     5 (A) A   8 (A) B    9 (A) A    9 (A) B     -0.0315
     8 (A) A             16 (A) A                 0.0281
     8 (A) A             21 (A) A                 0.0178
     5 (A) A             28 (A) A                 0.0150
     4 (A) A   7 (A) B    9 (A) A   19 (A) B      0.0136
     5 (A) A   7 (A) B    9 (A) A   16 (A) B      0.0134
     7 (A) A   8 (A) B   20 (A) A   17 (A) B     -0.0106
     7 (A) A   8 (A) A    9 (A) A   28 (A) A      0.0098
     5 (A) A   8 (A) B    9 (A) A   20 (A) B      0.0094
     4 (A) A   6 (A) B    9 (A) A   16 (A) B      0.0091
     5 (A) A   6 (A) A    9 (A) A   23 (A) A      0.0090
     5 (A) A   6 (A) A    9 (A) A   14 (A) A      0.0089
     5 (A) A   6 (A) B    9 (A) A   19 (A) B      0.0086
     8 (A) A   7 (A) B    9 (A) A   28 (A) B     -0.0085
     6 (A) A   7 (A) B    9 (A) A   18 (A) B      0.0085
     4 (A) A   5 (A) A    9 (A) A   10 (A) A     -0.0085
     5 (A) A   6 (A) B    9 (A) A   23 (A) B      0.0080
     3 (A) A   7 (A) B    9 (A) A   18 (A) B     -0.0080
     5 (A) A   7 (A) A    9 (A) A   16 (A) A      0.0078
     4 (A) A   8 (A) B    9 (A) A   25 (A) B     -0.0076
     4 (A) A   7 (A) B   19 (A) A    9 (A) B      0.0075
     7 (A) A   8 (A) B   17 (A) A   20 (A) B     -0.0074
     5 (A) A   5 (A) B    9 (A) A   13 (A) B      0.0073
     7 (A) A   8 (A) B   19 (A) A   18 (A) B      0.0071
     4 (A) A   5 (A) B    9 (A) A   18 (A) B      0.0069
     5 (A) A   8 (A) A    9 (A) A   20 (A) A      0.0068
     7 (A) A   7 (A) B   20 (A) A   22 (A) B     -0.0066
     7 (A) A   8 (A) B   17 (A) A    9 (A) B      0.0065
     5 (A) A   6 (A) B    9 (A) A   14 (A) B      0.0063
     5 (A) A   7 (A) B   11 (A) A   20 (A) B     -0.0062
     4 (A) A   5 (A) B   10 (A) A    9 (A) B      0.0061
     4 (A) A   7 (A) A    9 (A) A   19 (A) A      0.0061
     5 (A) A             38 (A) A                -0.0060
     4 (A) A   6 (A) B   16 (A) A    9 (A) B      0.0058
     4 (A) A   8 (A) A    9 (A) A   25 (A) A     -0.0057
     6 (A) A   7 (A) A   19 (A) A   28 (A) A      0.0056
     5 (A) A   7 (A) A   11 (A) A   20 (A) A     -0.0054
    -----------------------------------------------------

  Density matrix analysis:
  ------------------------
  NOs
    Occupation of frontier NOs:
       0.9560   1.0553
    Number of electrons: 16.000000
    Number of unpaired electrons: n_u =  2.35842, n_u,nl =  2.06489
    NO participation ratio (PR_NO):  3.045312
  
  
  Mulliken Population Analysis
  Atom      Charge (e)              h+              e-           Del q
  --------------------------------------------------------------------
   1 H        0.155260        0.124942       -0.024651        0.100291
   2 C       -0.310322        0.272791       -0.472963       -0.200171
   3 H        0.155207        0.125123       -0.024934        0.100189
   4 C       -0.309995        0.272375       -0.472627       -0.200252
   5 H        0.155017        0.124751       -0.024676        0.100075
   6 H        0.154833        0.124796       -0.024928        0.099868
  --------------------------------------------------------------------
  Sum:       -0.000000        1.044780       -1.044780       -0.000000
  
  Multipole moment analysis of the density matrix
    Molecular charge:                      -0.000000
    Number of electrons:                   16.000000
      Center of electronic charge [Ang]: [ -1.561589,  -0.065065,   0.003790]
    Total nuclear charge:                  16.000000
      Center of nuclear charge [Ang]:    [ -1.561535,  -0.065081,   0.003684]
    Dipole moment [D]:                     0.009205
      Cartesian components [D]:          [  0.004110,  -0.001221,  -0.008146]
    RMS size of the density [Ang]:         1.205230
      Cartesian components [Ang]:        [  0.789978,   0.772821,   0.480897]
  
  Exciton analysis of the difference density matrix
    <r_h> [Ang]:                  [ -1.561036,  -0.065898,   0.003490]
    <r_e> [Ang]:                  [ -1.561807,  -0.065593,   0.004393]
    |<r_e - r_h>| [Ang]:            0.001226
    Hole size [Ang]:                1.496149
      Cartesian components [Ang]: [  1.013741,   1.001448,   0.455952]
    Electron size [Ang]:            1.480148
      Cartesian components [Ang]: [  0.884314,   0.862191,   0.815754]

  Transition density matrix analysis:
  -----------------------------------
  
  CT numbers (Mulliken)
    omega =     0.9214
    <Phe> =    -0.0114
  
  Exciton analysis of the transition density matrix
    Trans. dipole moment [D]:             0.001724
      Cartesian components [D]:         [  0.000238,   0.001580,   0.000646]
    <r_h> [Ang]:                        [ -1.560924,  -0.066002,   0.003283]
    <r_e> [Ang]:                        [ -1.561913,  -0.065539,   0.004613]
    |<r_e - r_h>| [Ang]:                  0.001722
    Hole size [Ang]:                      1.527095
      Cartesian components [Ang]:       [  1.038536,   1.026238,   0.447546]
    Electron size [Ang]:                  1.475559
      Cartesian components [Ang]:       [  0.873251,   0.850366,   0.831616]
    RMS electron-hole separation [Ang]:   2.103538
      Cartesian components [Ang]:       [  1.340862,   1.317775,   0.943625]
    Covariance(r_h, r_e) [Ang^2]:         0.042213
    Correlation coefficient:              0.018734
    Center-of-mass size [Ang]:            1.071648
      Cartesian components [Ang]:       [  0.686356,   0.673803,   0.472583]

  Decomposition into state-averaged NTOs
    H- 1 -> L+ 0:  0.6608 ( 87.3%)
    H- 0 -> L+ 2:  0.1513 (  4.6%)
                   omega =  92.1%
  ----------------------------------------------------------------------------


  Excited state 3 (singlet, A)                                     [converged]
  ----------------------------------------------------------------------------
  Term symbol:  4 (1) A                                     R^2 =  3.00064e-13

  Total energy:                                            -77.9841896046 a.u.
  Excitation energy:                                               9.141661 eV

  Osc. strength:                                                      0.023589
  Trans. dip. moment [a.u.]:           [   0.011869,    0.022849,   -0.323515]
  <i|r^2|0> [a.u.]:                    [   0.070771,    0.006832,    0.004101]
  Two-photon absorption cross-section (SoS) [a.u.]:                   0.001396
  Two-photon absorption matrix (SoS) [a.u.]:
                                       |   -0.003755    0.000663   -0.000290 |
                                       |    0.000663   -0.000804   -0.001354 |
                                       |   -0.000290   -0.001354   -0.013145 |
  Two-photon absorption cross-section [a.u.]:                         0.001714
  Two-photon absorption matrix [a.u.]:
                                       |   -0.008172    0.002601   -0.000583 |
                                       |    0.002601   -0.005779   -0.001721 |
                                       |   -0.000583   -0.001721   -0.008086 |

  Dip. moment [a.u.]:                  [   0.000639,    0.003440,    0.002148]
  Total dipole [Debye]:                                               0.010434
  <r^2> [a.u.]:                        [ 181.424142,   41.012821,   11.056049]
  Total <r^2> [a.u.]:                                               233.493012

  V1^2 = 0.9580, V2^2 = 0.0420

  Important amplitudes:
      occ i     occ j     vir a      vir b          v   
    -----------------------------------------------------
     8 (A) A             10 (A) A                 0.6887
     8 (A) A             24 (A) A                 0.0508
     8 (A) A             18 (A) A                -0.0332
     4 (A) A              9 (A) A                 0.0247
     8 (A) A   8 (A) B    9 (A) A   12 (A) B     -0.0223
     8 (A) A   8 (A) B   10 (A) A   17 (A) B      0.0172
     5 (A) A   8 (A) B   11 (A) A   10 (A) B      0.0169
     8 (A) A             15 (A) A                -0.0149
     7 (A) A   8 (A) B   13 (A) A   10 (A) B     -0.0143
     4 (A) A   8 (A) B   12 (A) A   10 (A) B     -0.0113
     6 (A) A   8 (A) A   10 (A) A   15 (A) A      0.0112
     7 (A) A   8 (A) B   22 (A) A   10 (A) B      0.0109
     6 (A) A   8 (A) B   15 (A) A   10 (A) B     -0.0109
     4 (A) A   8 (A) A   10 (A) A   12 (A) A      0.0108
     7 (A) A   8 (A) A   10 (A) A   22 (A) A     -0.0099
     7 (A) A   8 (A) A   10 (A) A   13 (A) A      0.0098
     5 (A) A   8 (A) A   10 (A) A   11 (A) A     -0.0097
     5 (A) A   8 (A) B   21 (A) A   10 (A) B      0.0094
     6 (A) A   8 (A) B   10 (A) A   10 (A) B     -0.0090
     6 (A) A   8 (A) A   10 (A) A   18 (A) A     -0.0086
     7 (A) A   8 (A) A   12 (A) A   16 (A) A     -0.0084
     3 (A) A   4 (A) B   10 (A) A    9 (A) B     -0.0080
     5 (A) A   8 (A) A   10 (A) A   21 (A) A     -0.0079
     4 (A) A   8 (A) B   19 (A) A   10 (A) B      0.0076
     8 (A) A   8 (A) B    9 (A) A   23 (A) B     -0.0075
     8 (A) A   8 (A) B   10 (A) A   28 (A) B      0.0074
     5 (A) A   8 (A) B   10 (A) A   11 (A) B      0.0072
     7 (A) A   8 (A) B   16 (A) A   12 (A) B      0.0072
     3 (A) A   8 (A) A   10 (A) A   24 (A) A     -0.0072
     3 (A) A   8 (A) B   10 (A) A   10 (A) B      0.0071
     8 (A) A   8 (A) B    9 (A) A   19 (A) B      0.0070
     3 (A) A   8 (A) B   10 (A) A   18 (A) B     -0.0068
     6 (A) A   8 (A) B   18 (A) A   10 (A) B      0.0065
     3 (A) A   6 (A) B   10 (A) A   28 (A) B      0.0062
     7 (A) A   8 (A) B   12 (A) A   11 (A) B      0.0059
     6 (A) A             28 (A) A                -0.0058
     5 (A) A   8 (A) A   10 (A) A   16 (A) A     -0.0057
     3 (A) A   5 (A) B   10 (A) A   25 (A) B     -0.0056
     6 (A) A   8 (A) A   11 (A) A   16 (A) A      0.0055
     4 (A) A   8 (A) A   10 (A) A   23 (A) A      0.0055
    -----------------------------------------------------

  Density matrix analysis:
  ------------------------
  NOs
    Occupation of frontier NOs:
       0.9812   0.9847
    Number of electrons: 16.000000
    Number of unpaired electrons: n_u =  2.28863, n_u,nl =  2.02504
    NO participation ratio (PR_NO):  2.701212
  
  
  Mulliken Population Analysis
  Atom      Charge (e)              h+              e-           Del q
  --------------------------------------------------------------------
   1 H       -0.154915        0.054364       -0.264248       -0.209884
   2 C        0.310061        0.538182       -0.117970        0.420212
   3 H       -0.155566        0.054345       -0.264929       -0.210584
   4 C        0.310267        0.537989       -0.117979        0.420009
   5 H       -0.154593        0.054364       -0.263899       -0.209535
   6 H       -0.155253        0.054338       -0.264556       -0.210218
  --------------------------------------------------------------------
  Sum:       -0.000000        1.293581       -1.293581       -0.000000
  
  Multipole moment analysis of the density matrix
    Molecular charge:                      -0.000000
    Number of electrons:                   16.000000
      Center of electronic charge [Ang]: [ -1.561556,  -0.065194,   0.003613]
    Total nuclear charge:                  16.000000
      Center of nuclear charge [Ang]:    [ -1.561535,  -0.065081,   0.003684]
    Dipole moment [D]:                     0.010434
      Cartesian components [D]:          [  0.001623,   0.008743,   0.005459]
    RMS size of the density [Ang]:         1.282117
      Cartesian components [Ang]:        [  0.858364,   0.844717,   0.439872]
  
  Exciton analysis of the difference density matrix
    <r_h> [Ang]:                  [ -1.561498,  -0.065191,   0.004116]
    <r_e> [Ang]:                  [ -1.561721,  -0.066548,   0.002655]
    |<r_e - r_h>| [Ang]:            0.002006
    Hole size [Ang]:                1.412901
      Cartesian components [Ang]: [  0.836520,   0.822716,   0.787185]
    Electron size [Ang]:            2.079247
      Cartesian components [Ang]: [  1.376808,   1.380461,   0.722493]

  Transition density matrix analysis:
  -----------------------------------
  
  CT numbers (Mulliken)
    omega =     0.9250
    <Phe> =    -0.0109
  
  Exciton analysis of the transition density matrix
    Trans. dipole moment [D]:             0.412446
      Cartesian components [D]:         [  0.015084,   0.029038,  -0.411146]
    <r_h> [Ang]:                        [ -1.561552,  -0.065026,   0.004516]
    <r_e> [Ang]:                        [ -1.561796,  -0.067035,   0.002253]
    |<r_e - r_h>| [Ang]:                  0.003036
    Hole size [Ang]:                      1.212753
      Cartesian components [Ang]:       [  0.636239,   0.623784,   0.822717]
    Electron size [Ang]:                  2.301775
      Cartesian components [Ang]:       [  1.523250,   1.529607,   0.798859]
    RMS electron-hole separation [Ang]:   2.591621
      Cartesian components [Ang]:       [  1.643146,   1.644760,   1.145135]
    Covariance(r_h, r_e) [Ang^2]:         0.026223
    Correlation coefficient:              0.009394
    Center-of-mass size [Ang]:            1.305889
      Cartesian components [Ang]:       [  0.829195,   0.829514,   0.574184]

  Decomposition into state-averaged NTOs
    H- 0 -> L+ 1:  0.6794 ( 92.3%)
                   omega =  92.5%
  ----------------------------------------------------------------------------


  Excited state 4 (singlet, A)                                     [converged]
  ----------------------------------------------------------------------------
  Term symbol:  5 (1) A                                     R^2 =  8.16440e-13

  Total energy:                                            -77.9622656719 a.u.
  Excitation energy:                                               9.738242 eV

  Osc. strength:                                                      0.000000
  Trans. dip. moment [a.u.]:           [   0.000071,   -0.000248,   -0.000479]
  <i|r^2|0> [a.u.]:                    [  -0.014163,   -0.017280,    0.031813]
  Two-photon absorption cross-section (SoS) [a.u.]:                 134.688120
  Two-photon absorption matrix (SoS) [a.u.]:
                                       |   -0.295209   -0.311480    2.793242 |
                                       |   -0.311480   -0.328593    2.940179 |
                                       |    2.793242    2.940179    0.623825 |
  Two-photon absorption cross-section [a.u.]:                        80.051340
  Two-photon absorption matrix [a.u.]:
                                       |   -0.244821   -0.240985    2.152173 |
                                       |   -0.240985   -0.236097    2.267820 |
                                       |    2.152173    2.267820    0.480929 |

  Dip. moment [a.u.]:                  [  -0.003481,   -0.002625,    0.001662]
  Total dipole [Debye]:                                               0.011860
  <r^2> [a.u.]:                        [ 181.507356,   41.014061,   10.785622]
  Total <r^2> [a.u.]:                                               233.307039

  V1^2 = 0.9633, V2^2 = 0.0367

  Important amplitudes:
      occ i     occ j     vir a      vir b          v   
    -----------------------------------------------------
     8 (A) A             11 (A) A                 0.6688
     7 (A) A              9 (A) A                 0.1535
     8 (A) A             21 (A) A                 0.0779
     8 (A) A             16 (A) A                 0.0674
     8 (A) A   8 (A) B    9 (A) A   13 (A) B      0.0167
     5 (A) A   8 (A) B   11 (A) A   11 (A) B      0.0157
     7 (A) A             20 (A) A                -0.0140
     8 (A) A   8 (A) B   11 (A) A   17 (A) B      0.0137
     7 (A) A   8 (A) B   13 (A) A   11 (A) B     -0.0127
     4 (A) A   8 (A) B   12 (A) A   11 (A) B     -0.0111
     8 (A) A   8 (A) B    9 (A) A   22 (A) B     -0.0110
     5 (A) A   8 (A) A   11 (A) A   21 (A) A     -0.0109
     7 (A) A   8 (A) A   11 (A) A   22 (A) A     -0.0095
     6 (A) A   8 (A) B   10 (A) A   11 (A) B     -0.0091
     6 (A) A   8 (A) B   15 (A) A   11 (A) B     -0.0089
     7 (A) A   8 (A) B   22 (A) A   11 (A) B      0.0089
     3 (A) A   4 (A) B   11 (A) A    9 (A) B     -0.0083
     3 (A) A   8 (A) B   11 (A) A   18 (A) B     -0.0080
     6 (A) A   8 (A) A   11 (A) A   15 (A) A      0.0079
     7 (A) A   8 (A) A   13 (A) A   16 (A) A      0.0079
     7 (A) A   8 (A) A   11 (A) A   13 (A) A      0.0075
     4 (A) A   8 (A) B   19 (A) A   11 (A) B      0.0070
     5 (A) A   8 (A) B   21 (A) A   11 (A) B      0.0069
     5 (A) A   8 (A) B    9 (A) A    9 (A) B      0.0069
     4 (A) A   8 (A) A   11 (A) A   12 (A) A      0.0062
     3 (A) A   6 (A) B   11 (A) A   28 (A) B      0.0060
     6 (A) A   8 (A) A   11 (A) A   18 (A) A     -0.0059
     6 (A) A   8 (A) B   18 (A) A   11 (A) B      0.0058
     7 (A) A   8 (A) B   16 (A) A   13 (A) B     -0.0057
     3 (A) A   8 (A) B   11 (A) A   30 (A) B     -0.0056
     5 (A) A   8 (A) B   10 (A) A   10 (A) B      0.0055
     7 (A) A   8 (A) B   12 (A) A   10 (A) B      0.0055
     8 (A) A   8 (A) B   20 (A) A   22 (A) B      0.0055
     6 (A) A   8 (A) B   11 (A) A   10 (A) B     -0.0055
     3 (A) A   5 (A) B   11 (A) A   25 (A) B     -0.0054
     3 (A) A   8 (A) A   11 (A) A   18 (A) A     -0.0054
     3 (A) A   8 (A) A   11 (A) A   24 (A) A     -0.0053
     5 (A) A   8 (A) A   11 (A) A   16 (A) A     -0.0049
     6 (A) A   8 (A) A   10 (A) A   16 (A) A      0.0047
     8 (A) A   8 (A) B   11 (A) A   28 (A) B      0.0043
    -----------------------------------------------------

  Density matrix analysis:
  ------------------------
  NOs
    Occupation of frontier NOs:
       0.9387   1.0295
    Number of electrons: 16.000000
    Number of unpaired electrons: n_u =  2.32235, n_u,nl =  2.05106
    NO participation ratio (PR_NO):  2.932720
  
  
  Mulliken Population Analysis
  Atom      Charge (e)              h+              e-           Del q
  --------------------------------------------------------------------
   1 H       -0.125938        0.046022       -0.226929       -0.180907
   2 C        0.250843        0.495305       -0.134311        0.360994
   3 H       -0.125146        0.046008       -0.226171       -0.180163
   4 C        0.251312        0.495207       -0.134153        0.361054
   5 H       -0.126282        0.046008       -0.227232       -0.181223
   6 H       -0.124789        0.046003       -0.225757       -0.179754
  --------------------------------------------------------------------
  Sum:       -0.000000        1.174553       -1.174553       -0.000000
  
  Multipole moment analysis of the density matrix
    Molecular charge:                      -0.000000
    Number of electrons:                   16.000000
      Center of electronic charge [Ang]: [ -1.561420,  -0.064994,   0.003629]
    Total nuclear charge:                  16.000000
      Center of nuclear charge [Ang]:    [ -1.561535,  -0.065081,   0.003684]
    Dipole moment [D]:                     0.011860
      Cartesian components [D]:          [ -0.008848,  -0.006672,   0.004225]
    RMS size of the density [Ang]:         1.281023
      Cartesian components [Ang]:        [  0.859459,   0.844746,   0.434459]
  
  Exciton analysis of the difference density matrix
    <r_h> [Ang]:                  [ -1.561433,  -0.065053,   0.004199]
    <r_e> [Ang]:                  [ -1.559823,  -0.063816,   0.002809]
    |<r_e - r_h>| [Ang]:            0.002461
    Hole size [Ang]:                1.394931
      Cartesian components [Ang]: [  0.819532,   0.806367,   0.789918]
    Electron size [Ang]:            2.114340
      Cartesian components [Ang]: [  1.419254,   1.415703,   0.672261]

  Transition density matrix analysis:
  -----------------------------------
  
  CT numbers (Mulliken)
    omega =     0.9293
    <Phe> =    -0.0146
  
  Exciton analysis of the transition density matrix
    Trans. dipole moment [D]:             0.000692
      Cartesian components [D]:         [  0.000091,  -0.000315,  -0.000609]
    <r_h> [Ang]:                        [ -1.561565,  -0.065119,   0.004451]
    <r_e> [Ang]:                        [ -1.559478,  -0.063611,   0.002627]
    |<r_e - r_h>| [Ang]:                  0.003155
    Hole size [Ang]:                      1.229184
      Cartesian components [Ang]:       [  0.661951,   0.649588,   0.806691]
    Electron size [Ang]:                  2.247903
      Cartesian components [Ang]:       [  1.508742,   1.506265,   0.712693]
    RMS electron-hole separation [Ang]:   2.550888
      Cartesian components [Ang]:       [  1.638721,   1.632172,   1.075937]
    Covariance(r_h, r_e) [Ang^2]:         0.028471
    Correlation coefficient:              0.010304
    Center-of-mass size [Ang]:            1.286556
      Cartesian components [Ang]:       [  0.828185,   0.824260,   0.538453]

  Decomposition into state-averaged NTOs
    H- 0 -> L+ 2:  0.6641 ( 88.2%)
    H- 1 -> L+ 0: -0.1514 (  4.6%)
                   omega =  92.9%
  ----------------------------------------------------------------------------


  Excited state 5 (singlet, A)                                     [converged]
  ----------------------------------------------------------------------------
  Term symbol:  6 (1) A                                     R^2 =  1.82999e-12

  Total energy:                                            -77.9468237248 a.u.
  Excitation energy:                                              10.158439 eV

  Osc. strength:                                                      0.000000
  Trans. dip. moment [a.u.]:           [   0.000648,   -0.000640,   -0.000276]
  <i|r^2|0> [a.u.]:                    [   0.086707,   -0.094733,    0.013573]
  Two-photon absorption cross-section (SoS) [a.u.]:                 223.494048
  Two-photon absorption matrix (SoS) [a.u.]:
                                       |    0.393407    0.034501   -3.823848 |
                                       |    0.034501   -0.409990    3.626315 |
                                       |   -3.823848    3.626315    0.058565 |
  Two-photon absorption cross-section [a.u.]:                       115.466487
  Two-photon absorption matrix [a.u.]:
                                       |    0.298422    0.035160   -2.746813 |
                                       |    0.035160   -0.278000    2.608120 |
                                       |   -2.746813    2.608120    0.038872 |

  Dip. moment [a.u.]:                  [   0.000823,   -0.000441,   -0.000042]
  Total dipole [Debye]:                                               0.002376
  <r^2> [a.u.]:                        [ 180.408450,   39.753157,   11.599410]
  Total <r^2> [a.u.]:                                               231.761016

  V1^2 = 0.9554, V2^2 = 0.0446

  Important amplitudes:
      occ i     occ j     vir a      vir b          v   
    -----------------------------------------------------
     8 (A) A             12 (A) A                 0.5697
     6 (A) A              9 (A) A                 0.3819
     8 (A) A             19 (A) A                -0.0525
     6 (A) A             20 (A) A                -0.0520
     8 (A) A             23 (A) A                 0.0293
     8 (A) A   8 (A) B    9 (A) A   10 (A) B     -0.0205
     8 (A) A             26 (A) A                 0.0185
     3 (A) A              9 (A) A                 0.0159
[...]
    16   -1.339510486426e-03
    17   -1.807194688715e-03
    18    1.138597773994e-04
    19   -2.908588174196e-03
    20    1.154821604908e-02
    21    9.286057369431e-01
    22   -5.015784340068e-04
    23    1.372872729713e-02
    24    8.472960969611e-04
    25    7.030827409374e-02
    26   -5.218300547448e-02
    27   -1.383455419455e+00
    28    9.992562590219e-02
    29   -9.468180752624e-02
    30   -1.384376881948e-03
    31    3.850317232661e-01
    32   -3.649595270847e-01
    33   -5.363078796477e-03
    34    1.506590031993e-02
    35   -1.389247562472e-03
    36   -1.755573778503e-03
    37    1.417495410963e-04
    38   -2.906208049957e-03
    39    1.145725306319e-02
    40    9.269233839888e-01
    41    5.162664279837e-04
    42   -1.372297488718e-02
    43   -8.150650992005e-04
    44    1.153904513029e-02
    45    9.278515819056e-01
    46    1.374669779369e-02
    47    1.950553173295e-04
    48    6.524317963837e-04
Sym=X
Ene= 0.231048
Spin=Alpha
Occup=0
     1    2.983467549165e-02
     2    1.167877236552e+00
     3   -1.295472533285e-02
     4   -3.509442760702e-03
     5   -8.194733860266e-04
     6   -3.755928467138e-05
     7    4.693354014539e-05
     8    2.331000662689e-04
     9   -1.546150423767e-01
    10   -1.626567393770e-01
    11   -1.717419339057e-02
    12   -5.301671740253e-01
    13   -5.575504974865e-01
    14   -5.888446893477e-02
    15    1.274192296678e-05
    16    1.515056209918e-04
    17    8.546638696353e-06
    18    1.369924542091e-03
    19    6.249539972590e-05
    20   -2.991249964257e-02
    21   -1.168331159247e+00
    22   -2.849994541022e-03
    23   -1.310798216689e-02
    24   -9.356552435667e-04
    25    1.059441861009e-04
    26   -9.114973014742e-05
    27   -2.151942502152e-03
    28   -1.544417073167e-01
    29   -1.626590718263e-01
    30   -1.713685257491e-02
    31   -5.299151426615e-01
    32   -5.583064292603e-01
    33   -5.880400898353e-02
    34    2.110277792339e-05
    35   -1.259161239224e-04
    36    2.423142615881e-05
    37   -1.399157947925e-03
    38   -8.183966977936e-05
    39    2.989175823224e-02
    40    1.170105525679e+00
    41   -2.858412723201e-03
    42   -1.313790315996e-02
    43   -9.317240394790e-04
    44   -2.987558025289e-02
    45   -1.167242789037e+00
    46   -1.293541300285e-02
    47   -3.506642566398e-03
    48   -8.212353004387e-04
Sym=X
Ene= 0.236441
Spin=Alpha
Occup=0
     1   -1.933859867494e-02
     2   -1.072813133499e+00
     3    1.589385946525e-02
     4    9.222272073813e-03
     5    1.250733253248e-03
     6   -8.708878219532e-02
     7    8.228308619202e-02
     8    1.544229465995e+00
     9    5.902331957726e-02
    10   -5.575255663409e-02
    11   -1.430988530445e-03
    12    2.425822688570e-01
    13   -2.290657149942e-01
    14   -5.471482966475e-03
    15   -2.127003419474e-02
    16    2.448719383898e-03
    17    2.900495658318e-03
    18   -6.026147174708e-04
    19    1.240692342245e-02
    20   -1.928544860173e-02
    21   -1.070476092823e+00
    22   -8.397023705495e-03
    23   -1.629252487154e-02
    24   -1.443117213062e-03
    25    8.715654223447e-02
    26   -8.236585969846e-02
    27   -1.545870890574e+00
    28    5.901660754912e-02
    29   -5.580296792498e-02
    30   -1.557868073505e-04
    31    2.424335473087e-01
    32   -2.296162530341e-01
    33   -3.498197648035e-04
    34    2.130188672071e-02
    35   -2.567148238951e-03
    36   -2.793618260177e-03
    37    6.268128579080e-04
    38   -1.242008695586e-02
    39    1.927419103780e-02
    40    1.071840051142e+00
    41   -8.392121860159e-03
    42   -1.633369690985e-02
    43   -1.362344127573e-03
    44    1.929062688614e-02
    45    1.073544033183e+00
    46    1.590413234167e-02
    47    9.217110155618e-03
    48    1.333082437407e-03
Sym=X
Ene= 0.302963
Spin=Alpha
Occup=0
     1   -2.104237437254e-02
     2    1.657706334891e+00
     3   -2.350642421849e-02
     4    4.033891774116e-04
     5   -1.095447504473e-03
     6   -3.641367371510e-06
     7    8.754539291928e-07
     8   -2.530078891515e-04
     9   -1.356301370168e-01
    10   -1.426814596471e-01
    11   -1.505983110333e-02
    12   -1.124882854715e+00
    13   -1.183026104642e+00
    14   -1.248443845703e-01
    15    6.026454399776e-05
    16   -1.612073601823e-03
    17    2.089373988275e-03
    18   -3.405612475820e-02
    19   -1.762030060447e-03
    20    2.098888217555e-02
    21   -1.657291193359e+00
    22    1.607540711957e-03
    23   -2.344151696012e-02
    24   -1.336049367413e-03
    25    5.550837619385e-06
    26   -2.726039990987e-06
    27   -3.594905585718e-05
    28    1.356138885289e-01
    29    1.426489968585e-01
    30    1.504236340954e-02
    31    1.125013589564e+00
    32    1.183644124241e+00
    33    1.248389858581e-01
    34    1.676239223245e-05
    35   -1.806600150547e-03
    36    1.888404686998e-03
    37   -3.410281037134e-02
    38   -1.736781369481e-03
    39    2.113188962409e-02
    40   -1.658219760487e+00
    41   -1.598546534912e-03
    42    2.345128390331e-02
    43    1.275471005124e-03
    44   -2.111289769849e-02
    45    1.658110655084e+00
    46    2.350959943517e-02
    47   -4.032478526821e-04
    48    1.155071827539e-03
Sym=X
Ene= 0.462774
Spin=Alpha
Occup=0
     1   -1.141485774020e-01
     2   -6.992469797801e-01
     3   -1.495390885569e-02
     4   -1.030161626404e-02
     5   -1.364208556017e-03
     6    6.252793313518e-02
     7    1.652978378641e-02
     8   -3.641355141370e+00
     9    1.044765018185e-01
    10   -9.914639347771e-02
    11   -1.827626070795e-03
    12    2.433035799165e+00
    13   -2.310719117392e+00
    14   -1.739209712001e-02
    15    5.293868147845e-02
    16   -3.351517452403e-03
    17   -4.405049764322e-03
    18   -1.061600827099e-03
    19    2.017352276137e-02
    20   -1.142659375506e-01
    21   -6.984366248316e-01
    22    9.522075793068e-03
    23    1.545662337574e-02
    24    1.354345987623e-03
    25   -6.250201992873e-02
    26   -1.663838391014e-02
    27    3.640734462500e+00
    28    1.042682019727e-01
    29   -9.898330782171e-02
    30   -1.115470315579e-03
    31    2.433152408633e+00
    32   -2.311676001295e+00
    33   -1.430040955956e-02
    34   -5.300482002667e-02
    35    3.292958833942e-03
    36    4.474969351495e-03
    37    1.068981526935e-03
    38   -2.006860607259e-02
    39    1.145898011973e-01
    40    6.989411109099e-01
    41    9.546058757310e-03
    42    1.547659952464e-02
    43    1.385172075219e-03
    44    1.146112227014e-01
    45    6.985505458730e-01
    46   -1.497399954737e-02
    47   -1.031673669737e-02
    48   -1.334383047103e-03
Sym=X
Ene= 0.579809
Spin=Alpha
Occup=0
     1   -2.377039765004e-01
     2   -4.876599017749e-02
     3    2.209049031571e-02
     4   -2.700422193312e-02
     5   -5.882118734266e-04
     6    6.315478563203e-03
     7    1.690458751117e-01
     8    4.143973878966e-01
     9   -3.054202006723e-01
    10    2.901608273424e-01
    11    1.939926993209e-03
    12    7.502295410467e-01
    13   -7.122663552762e-01
    14   -6.791946781834e-03
    15    1.990573405096e-03
    16   -3.585671809070e-03
    17   -3.311122822294e-03
    18    3.056577261191e-03
    19   -5.979472535835e-02
    20   -2.376830343308e-01
    21   -4.837288610755e-02
    22    2.813369222749e-02
    23   -2.069114094890e-02
    24    7.997356172513e-05
    25    6.194732213525e-03
    26    1.689616242111e-01
    27    4.199996198260e-01
    28    3.056378859280e-01
    29   -2.903244962339e-01
    30   -2.057352481744e-03
    31   -7.465026119748e-01
    32    7.090728880527e-01
    33    6.102287356887e-03
    34    1.982786982497e-03
    35   -3.589341199128e-03
    36   -3.305688114639e-03
    37    3.070196665700e-03
    38   -5.979271179680e-02
    39   -2.378833484528e-01
    40   -4.724650932093e-02
    41   -2.804493007555e-02
    42    2.062255320365e-02
    43   -1.486969471096e-04
    44   -2.378241828007e-01
    45   -4.715377119149e-02
    46   -2.205297759479e-02
    47    2.695110316726e-02
    48    5.175942139709e-04
Sym=X
Ene= 0.608869
Spin=Alpha
Occup=0
     1    5.194709477717e-01
     2   -2.455191187289e-01
     3    5.953374971463e-02
     4   -3.703873280398e-02
     5    5.592898611347e-04
     6    1.902081032928e-06
     7    9.956096323744e-05
     8   -2.294691688531e-04
     9    3.562434542219e-02
    10    3.743921574010e-02
    11    3.946969376365e-03
    12   -2.612328458447e-01
    13   -2.742690144266e-01
    14   -2.898851843457e-02
    15   -1.640187001608e-04
    16    7.249310311432e-03
    17   -8.897250419212e-03
    18    1.486777556314e-01
    19    7.608431981037e-03
    20   -5.196862117807e-01
    21    2.461747630931e-01
    22   -4.006175904204e-02
    23    5.753882704744e-02
    24    1.600908480615e-03
    25    1.337280516241e-06
    26    4.959746713236e-05
    27   -3.961133094033e-04
    28    3.569816179201e-02
    29    3.755076230880e-02
    30    3.965833491597e-03
    31   -2.615785871802e-01
    32   -2.749579842809e-01
    33   -2.898762235468e-02
    34    1.184310457800e-04
    35   -7.755299664794e-03
    36    8.343309457796e-03
    37   -1.485108924049e-01
    38   -7.597375115077e-03
    39    5.190782109092e-01
    40   -2.444491935646e-01
    41   -4.007116838436e-02
    42    5.750733677861e-02
    43    1.427401783545e-03
    44   -5.192466986123e-01
    45    2.445981989818e-01
    46    5.950986245455e-02
    47   -3.706877722996e-02
    48    7.310746858501e-04
Sym=X
Ene= 0.688654
Spin=Alpha
Occup=0
     1   -3.451146107917e-04
     2    2.337011522599e-03
     3    4.556690607345e-04
     4    1.125393357196e-03
     5   -1.882262345196e-02
     6   -4.255164564842e-05
     7   -1.834222148097e-03
     8    2.872390830034e-03
     9    3.286524563588e-02
    10    3.953643646846e-02
    11   -6.706630325671e-01
    12   -3.299086022461e-02
    13   -3.330690455431e-02
    14    6.126738341159e-01
    15   -4.024126695715e-04
    16    8.254275141589e-02
    17   -7.844160875005e-02
    18   -8.665285537319e-03
    19   -9.514756737326e-04
    20   -3.504070645178e-04
    21    2.362479486894e-03
    22    8.816728233454e-04
    23    1.571225363450e-03
    24   -1.872669801957e-02
    25   -1.272171650593e-04
    26   -8.413197022720e-04
    27   -8.891253488723e-04
    28    3.213048377424e-02
    29    4.018218169525e-02
    30   -6.706505890703e-01
    31   -3.250595152378e-02
    32   -3.370518363146e-02
    33    6.127216081706e-01
    34    1.409474541306e-03
    35   -8.265005392833e-02
    36    7.832352749363e-02
    37    8.693020156692e-03
    38    5.771185732621e-04
    39   -2.002619557954e-03
    40   -6.883927348070e-04
    41    6.992161561757e-04
    42    8.809584330183e-04
    43   -1.885210918713e-02
    44   -1.996791261909e-03
    45   -7.126349797675e-04
    46    1.135651515429e-03
    47    1.338461441959e-03
    48   -1.878243084408e-02
Sym=X
Ene= 0.704766
Spin=Alpha
Occup=0
     1   -4.882545319381e-01
     2    1.635813934182e-01
     3   -7.816640102133e-02
     4   -4.434838836054e-02
     5   -6.486842090202e-03
     6   -4.596749114760e-02
     7   -3.010947961006e-01
     8    4.618738943443e-01
     9    1.956752928008e-01
    10   -1.862640608291e-01
    11    2.730953673223e-04
    12   -5.634260301631e-02
    13    5.459538836538e-02
    14   -3.615110826445e-03
    15    1.912945677552e-01
    16   -2.067406378891e-02
    17   -2.365265883740e-02
    18    3.773510914272e-03
    19   -7.657114767780e-02
    20   -4.882714418352e-01
    21    1.643825307358e-01
    22    4.035903929536e-02
    23    8.029463982533e-02
    24    6.668130078628e-03
    25   -4.594139592895e-02
    26   -3.015170107610e-01
    27    4.652425944651e-01
    28   -1.960911408320e-01
    29    1.859370396922e-01
    30    3.330569810333e-03
    31    5.865233204644e-02
    32   -5.536703908557e-02
    33   -3.929705195186e-04
    34    1.910494568652e-01
    35   -2.059057758107e-02
    36   -2.367879593564e-02
    37    3.790300834854e-03
    38   -7.668195839084e-02
    39   -4.876723214777e-01
    40    1.634837098672e-01
    41   -4.033262032537e-02
    42   -8.021291401005e-02
    43   -6.528511452456e-03
    44   -4.875366739782e-01
    45    1.637981881840e-01
    46    7.805073304043e-02
    47    4.436706447424e-02
    48    6.608294939642e-03
Sym=X
Ene= 0.775740
Spin=Alpha
Occup=0
     1    5.385201261028e-01
     2   -4.801654982224e-01
     3    1.076299405501e-01
     4    2.642224796563e-02
     5    6.793927340855e-03
     6    8.890178005253e-02
     7   -2.271863804899e-01
     8   -5.662924796667e-01
     9    1.039064508098e-01
    10   -9.818633863542e-02
    11   -1.752154950514e-03
    12    2.933094754301e-01
    13   -2.800052803061e-01
    14    1.193770924983e-03
    15   -2.031029647946e-01
    16    1.718025039827e-02
    17    2.182385662731e-02
    18   -2.192102736205e-04
    19    7.599422235410e-03
    20    5.387546427662e-01
    21   -4.813516139492e-01
    22   -2.093511005142e-02
    23   -1.088592631773e-01
    24   -7.481918376391e-03
    25   -8.897162886749e-02
    26    2.261941730309e-01
    27    5.672770874112e-01
    28    1.032072660797e-01
    29   -9.835764941392e-02
    30    1.218483823265e-03
    31    2.947697159469e-01
    32   -2.792442782994e-01
    33   -5.432194565558e-03
    34    2.034081192767e-01
    35   -1.773997900082e-02
    36   -2.132686472354e-02
    37    2.609757212369e-04
    38   -7.738913168930e-03
    39   -5.387467999426e-01
    40    4.804356935246e-01
    41   -2.094476029854e-02
    42   -1.089604060441e-01
    43   -7.443804871387e-03
    44   -5.389471357217e-01
    45    4.808632732198e-01
    46    1.078097669451e-01
    47    2.645362249525e-02
    48    6.837840022101e-03
Sym=X
Ene= 0.807406
Spin=Alpha
Occup=0
     1   -8.903085008239e-04
     2    1.587600045909e-03
     3    9.286560686320e-04
     4    2.022013220126e-03
     5   -3.143733577044e-02
     6   -1.376183709448e-04
     7   -4.380716935862e-04
     8    1.943789757480e-04
     9    3.657396353052e-02
    10    4.590768899149e-02
    11   -7.642755709070e-01
    12   -5.525880334532e-02
    13   -6.616704859470e-02
    14    1.124394053739e+00
    15    1.372475814774e-03
    16   -6.541248933724e-02
    17    6.198894188661e-02
    18    6.843732032029e-03
    19    9.142271805868e-04
    20   -8.889341888744e-04
    21    1.518488797162e-03
    22    1.330992489198e-03
    23    2.442373336356e-03
    24   -3.135058814576e-02
    25    2.233571510180e-04
    26   -1.194314932953e-03
    27    6.277679739778e-04
    28   -3.808534216714e-02
    29   -4.437645479354e-02
    30    7.642701462175e-01
    31    5.497316645876e-02
    32    6.628660963435e-02
    33   -1.124424086174e+00
    34    1.429299191934e-04
    35   -6.533355327000e-02
    36    6.209543856201e-02
    37    6.884310319879e-03
    38    5.150898052387e-04
    39    9.706383993668e-04
    40   -1.061972019488e-03
    41   -1.577429575903e-03
    42   -1.664131385790e-03
    43    3.147991063882e-02
    44    9.733243803197e-04
    45   -1.134821348477e-03
    46   -1.740135585354e-03
    47   -1.832457627722e-03
    48    3.144338642474e-02
Sym=X
Ene= 0.858424
Spin=Alpha
Occup=0
     1    1.455269532559e-02
     2   -1.076191834103e+00
     3    1.464729589902e-01
     4    5.603062808475e-02
     5    1.013182196690e-02
     6    3.139881845811e-05
     7    2.630726306184e-04
     8   -1.251673677209e-04
     9   -4.119948582844e-01
    10   -4.335458087322e-01
    11   -4.577152301510e-02
    12    9.378514287047e-01
    13    9.866742948559e-01
    14    1.041754069700e-01
    15   -3.384199965281e-04
    16    1.166962819005e-02
    17   -1.333264182361e-02
    18    2.304714207033e-01
    19    1.177199011638e-02
    20   -1.435220840557e-02
    21    1.076143956866e+00
    22    4.851161351493e-02
    23    1.489963588851e-01
    24    1.150790954286e-02
    25   -4.229467898423e-06
    26    2.966948685871e-04
    27   -2.912519067699e-04
    28   -4.112924132304e-01
    29   -4.327419672323e-01
    30   -4.560958252831e-02
    31    9.365407614332e-01
    32    9.853294788771e-01
    33    1.038558615860e-01
    34    1.848167835922e-04
    35   -1.174302562696e-02
    36    1.323897361710e-02
    37   -2.303035743604e-01
    38   -1.176174169331e-02
    39    1.412307466802e-02
    40   -1.075217038706e+00
    41    4.860138543956e-02
    42    1.487921353502e-01
    43    1.129550613252e-02
    44   -1.417915659967e-02
    45    1.075327496091e+00
    46    1.462204987972e-01
    47    5.613318537474e-02
    48    1.031867342795e-02
Sym=X
Ene= 0.928008
Spin=Alpha
Occup=0
     1   -1.417663140215e-01
     2    1.229613874544e+00
     3   -1.825249044225e-01
     4    5.901934480864e-03
     5   -8.419523239225e-03
     6   -5.897307898629e-05
     7   -4.186802203092e-04
     8   -1.520773903983e-04
     9    4.732696117223e-01
    10    4.987861541922e-01
    11    5.259075585396e-02
    12   -1.380871376899e+00
    13   -1.454990420938e+00
    14   -1.534240991657e-01
    15    3.195768479716e-04
    16   -6.172983405000e-03
    17    7.448296130973e-03
    18   -1.254049787279e-01
    19   -6.169189363076e-03
    20    1.416363445011e-01
    21   -1.230976613749e+00
    22    1.503671902028e-02
    23   -1.819984999038e-01
    24   -1.017137682706e-02
    25    4.597229118277e-05
    26   -9.823645104643e-05
    27    9.210122310540e-04
    28   -4.746213794020e-01
    29   -4.984595346048e-01
    30   -5.261253797540e-02
    31    1.384685160916e+00
    32    1.454493663714e+00
    33    1.535123596893e-01
    34   -8.723964750164e-05
    35   -6.848277674423e-03
    36    6.775159521115e-03
    37   -1.258700266005e-01
    38   -6.627801223895e-03
    39    1.417966075678e-01
    40   -1.231734713305e+00
    41   -1.507924816170e-02
    42    1.822263058101e-01
    43    9.806308463136e-03
    44   -1.416827367787e-01
    45    1.232613129749e+00
    46    1.828258445993e-01
    47   -5.646317610615e-03
    48    8.809080029552e-03
Sym=X
Ene= 0.970584
Spin=Alpha
Occup=0
     1   -5.981618467147e-02
     2    8.984768110606e-01
     3   -8.784797818531e-02
     4   -9.665012121253e-02
     5   -9.553997147436e-03
     6    2.707589377638e-02
     7    2.533022725272e-01
     8    5.132519325355e-01
     9    4.836560470393e-01
    10   -4.584317500754e-01
    11   -4.680913272664e-03
    12   -1.476798897982e+00
    13    1.399168494668e+00
    14    1.354788467187e-02
    15   -5.793381331467e-02
    16   -1.147455833241e-02
    17   -9.933281430053e-03
    18    1.495233696007e-02
    19   -2.963796452119e-01
    20   -5.980421567773e-02
    21    8.955264963580e-01
    22    9.205152555195e-02
    23    9.218770641585e-02
    24    1.038940291768e-02
    25   -2.706090353769e-02
    26   -2.524468231309e-01
    27   -5.146893913266e-01
    28    4.825550991223e-01
    29   -4.591630693265e-01
    30   -3.025977402466e-03
    31   -1.472824627252e+00
    32    1.402069007393e+00
    33    9.072245684218e-03
    34    5.790224621561e-02
    35    1.157292221784e-02
    36    9.849537724873e-03
    37   -1.523659746230e-02
    38    2.963851419226e-01
    39    5.967413585172e-02
    40   -8.976053318091e-01
    41    9.205373538693e-02
    42    9.243798601679e-02
    43    1.003925805571e-02
    44    5.970799159046e-02
    45   -8.952333781710e-01
    46   -8.736071408454e-02
    47   -9.662156040094e-02
    48   -9.888165130864e-03
[5D]

======= END OF MOLDEN-FORMATTED INPUT FILE =======


        *************************************************************
        *                                                           *
        *  Thank you very much for using Q-Chem.  Have a nice day.  *
        *                                                           *
        *************************************************************


