                  Welcome to Q-Chem
     A Quantum Leap Into The Future Of Chemistry


 Q-Chem 5.4 (devel), Q-Chem, Inc., Pleasanton, CA (2021)

 E. Epifanovsky,  A. T. B. Gilbert,  Xintian Feng,  Joonho Lee,  Yuezhi Mao,  
 N. Mardirossian,  P. Pokhilko,  A. White,  M. Wormit,  M. P. Coons,  
 A. L. Dempwolff,  Zhengting Gan,  D. Hait,  P. R. Horn,  L. D. Jacobson,  
 I. Kaliman,  J. Kussmann,  A. W. Lange,  Ka Un Lao,  D. S. Levine,  Jie Liu,  
 S. C. McKenzie,  A. F. Morrison,  K. Nanda,  F. Plasser,  D. R. Rehn,  
 M. L. Vidal,  Zhi-Qiang You,  Ying Zhu,  B. Alam,  B. Albrecht,  
 A. Aldossary,  E. Alguire,  J. H. Andersen,  D. Barton,  K. Begam,  A. Behn,  
 Y. A. Bernard,  E. J. Berquist,  H. Burton,  A. Carreras,  K. Carter-Fenk,  
 R. Chakraborty,  A. D. Chien,  K. D. Closser,  V. Cofer-Shabica,  
 S. Dasgupta,  Jia Deng,  M. de Wergifosse,  M. Diedenhofen,  Hainam Do,  
 S. Ehlert,  Po-Tung Fang,  S. Fatehi,  Qingguo Feng,  T. Friedhoff,  
 J. Gayvert,  Qinghui Ge,  G. Gidofalvi,  M. Goldey,  J. Gomes,  
 C. Gonzalez-Espinoza,  S. Gulania,  A. Gunina,  M. W. D. Hanson-Heine,  
 P. H. P. Harbach,  A. W. Hauser,  M. F. Herbst,  M. Hernandez Vera,  
 M. Hodecker,  Z. C. Holden,  S. Houck,  Xunkun Huang,  Kerwin Hui,  
 B. C. Huynh,  M. Ivanov,  Hyunjun Ji,  Hanjie Jiang,  B. Kaduk,  S. Kaehler,  
 K. Khistyaev,  Jaehoon Kim,  P. Klunzinger,  Z. Koczor-Benda,  
 Joong Hoon Koh,  D. Kosenkov,  L. Koulias,  T. Kowalczyk,  C. M. Krauter,  
 K. Kue,  A. Kunitsa,  T. Kus,  A. Landau,  K. V. Lawler,  D. Lefrancois,  
 S. Lehtola,  Rain Li,  Yi-Pei Li,  Jiashu Liang,  M. Liebenthal,  
 Hung-Hsuan Lin,  You-Sheng Lin,  Fenglai Liu,  Kuan-Yu Liu,  
 M. Loipersberger,  A. Luenser,  A. Manjanath,  P. Manohar,  E. Mansoor,  
 S. F. Manzer,  Shan-Ping Mao,  A. V. Marenich,  T. Markovich,  S. Mason,  
 S. A. Maurer,  P. F. McLaughlin,  M. F. S. J. Menger,  J.-M. Mewes,  
 S. A. Mewes,  P. Morgante,  J. W. Mullinax,  K. J. Oosterbaan,  G. Paran,  
 Alexander C. Paul,  Suranjan K. Paul,  F. Pavosevic,  Zheng Pei,  S. Prager,  
 E. I. Proynov,  E. Ramos,  B. Rana,  A. E. Rask,  A. Rettig,  R. M. Richard,  
 F. Rob,  E. Rossomme,  T. Scheele,  M. Scheurer,  M. Schneider,  
 N. Sergueev,  S. M. Sharada,  W. Skomorowski,  D. W. Small,  C. J. Stein,  
 Yu-Chuan Su,  E. J. Sundstrom,  Zhen Tao,  J. Thirman,  T. Tsuchimochi,  
 N. M. Tubman,  S. P. Veccham,  O. Vydrov,  J. Wenzel,  J. Witte,  A. Yamada,  
 Kun Yao,  S. Yeganeh,  S. R. Yost,  A. Zech,  Igor Ying Zhang,  Xing Zhang,  
 Yu Zhang,  D. Zuev,  A. Aspuru-Guzik,  A. T. Bell,  N. A. Besley,  
 K. B. Bravaya,  B. R. Brooks,  D. Casanova,  Jeng-Da Chai,  S. Coriani,  
 C. J. Cramer,  A. E. DePrince, III,  R. A. DiStasio Jr.,  A. Dreuw,  
 B. D. Dunietz,  T. R. Furlani,  W. A. Goddard III,  S. Grimme,  
 S. Hammes-Schiffer,  T. Head-Gordon,  W. J. Hehre,  Chao-Ping Hsu,  
 T.-C. Jagau,  Yousung Jung,  A. Klamt,  Jing Kong,  D. S. Lambrecht,  
 WanZhen Liang,  N. J. Mayhall,  C. W. McCurdy,  J. B. Neaton,  
 C. Ochsenfeld,  J. A. Parkhill,  R. Peverati,  V. A. Rassolov,  Yihan Shao,  
 L. V. Slipchenko,  T. Stauch,  R. P. Steele,  J. E. Subotnik,  
 A. J. W. Thom,  A. Tkatchenko,  D. G. Truhlar,  T. Van Voorhis,  
 T. A. Wesolowski,  K. B. Whaley,  H. L. Woodcock III,  P. M. Zimmerman,  
 S. Faraji,  P. M. W. Gill,  M. Head-Gordon,  J. M. Herbert,  A. I. Krylov

 Additional authors for Version 5.4.1: 
 S. Kotaru,  Shaozhi Li,  Xiangyuan Li,  F. Matz,  A. Molle,  Haisheng Ren,  
 Yingli Su,  Hung-Yi Tsai,  C. Utku,  Fang Wang

 Contributors to earlier versions of Q-Chem not listed above: 
 R. D. Adamson,  B. Austin,  R. Baer,  J. Baker,  G. J. O. Beran,  
 K. Brandhorst,  S. T. Brown,  E. F. C. Byrd,  A. K. Chakraborty,  
 G. K. L. Chan,  Chun-Min Chang,  Yunqing Chen,  C.-L. Cheng,  
 Siu Hung Chien,  D. M. Chipman,  D. L. Crittenden,  H. Dachsel,  
 R. J. Doerksen,  A. D. Dutoi,  R. G. Edgar,  J. Fosso-Tande,  
 L. Fusti-Molnar,  D. Ghosh,  A. Ghysels,  A. Golubeva-Zadorozhnaya,  
 J. Gonthier,  M. S. Gordon,  S. R. Gwaltney,  G. Hawkins,  J. E. Herr,  
 A. Heyden,  S. Hirata,  E. G. Hohenstein,  G. Kedziora,  F. J. Keil,  
 C. Kelley,  Jihan Kim,  R. A. King,  R. Z. Khaliullin,  P. P. Korambath,  
 W. Kurlancheek,  A. Laurent,  A. M. Lee,  M. S. Lee,  S. V. Levchenko,  
 Ching Yeh Lin,  D. Liotard,  E. Livshits,  R. C. Lochan,  I. Lotan,  
 L. A. Martinez-Martinez,  P. E. Maslen,  N. Nair,  D. P. O'Neill,  
 D. Neuhauser,  E. Neuscamman,  C. M. Oana,  R. Olivares-Amaya,  R. Olson,  
 T. M. Perrine,  B. Peters,  P. A. Pieniazek,  A. Prociuk,  Y. M. Rhee,  
 J. Ritchie,  M. A. Rohrdanz,  E. Rosta,  N. J. Russ,  H. F. Schaefer III,  
 M. W. Schmidt,  N. E. Schultz,  S. Sharma,  N. Shenvi,  C. D. Sherrill,  
 A. C. Simmonett,  A. Sodt,  T. Stein,  D. Stuck,  K. S. Thanthiriwatte,  
 V. Vanovschi,  L. Vogt,  Tao Wang,  A. Warshel,  M. A. Watson,  
 C. F. Williams,  Q. Wu,  X. Xu,  Jun Yang,  W. Zhang,  Yan Zhao

 Please cite Q-Chem as follows:
 Y. Shao et al., Mol. Phys. 113, 184-215 (2015)
 DOI: 10.1080/00268976.2014.952696

 Q-Chem 5.4.1 for Intel X86 EM64T Linux

 Parts of Q-Chem use Armadillo 9.800.1 (Horizon Scraper).
 http://arma.sourceforge.net/

 Q-Chem begins on Wed Mar 15 16:20:59 2023  

 Host: cpu121.yggdrasil
0

     Scratch files written to /srv/beegfs/scratch/users/f/fum/qchem68697//
 Processing $rem in /home/share/wesolowski/qc5.aug2021.FDE/config/preferences:
 Processing $rem in /home/fum/.qchemrc:

 Checking the input file for inconsistencies... 	...done.

--------------------------------------------------------------
User input:
--------------------------------------------------------------
$comment
generated from CCJob.Templates
$end

$rem
sym_ignore = true
method = adc(2)
ee_states = 10
basis = cc-pVDZ
mem_static = 1024
mem_total = 40000
adc_davidson_maxiter = 900
adc_davidson_conv = 6
adc_print = 3
adc_prop_es = true
adc_prop_es2es = true
adc_prop_tpa = true
molden_format = True
state_analysis = true
print_orbitals = 15
gen_scfman = false
fde_export_density = true
fde_details = 3
$end

$molecule
0 1
H -0.0348278765 -0.2442097827 0.0636489606
C -1.0765972949 -0.5242748755 -0.0023551776
H -1.313264467 -1.5767591607 -0.0757276926
C -2.043634118 0.3926884087 0.0061254933
H -1.8137616575 1.4459188338 0.0804456828
H -3.085977293 0.07493185799999999 -0.0593381042                     
$end
--------------------------------------------------------------
 ----------------------------------------------------------------
             Standard Nuclear Orientation (Angstroms)
    I     Atom           X                Y                Z
 ----------------------------------------------------------------
    1      H      -0.0348278765    -0.2442097827     0.0636489606
    2      C      -1.0765972949    -0.5242748755    -0.0023551776
    3      H      -1.3132644670    -1.5767591607    -0.0757276926
    4      C      -2.0436341180     0.3926884087     0.0061254933
    5      H      -1.8137616575     1.4459188338     0.0804456828
    6      H      -3.0859772930     0.0749318580    -0.0593381042
 ----------------------------------------------------------------
 Nuclear Repulsion Energy =          33.40084666 hartrees
 There are        8 alpha and        8 beta electrons
 Requested basis set is cc-pVDZ
 There are 24 shells and 48 basis functions
 Total memory of 40000 MB is distributed as follows: 
   MEM_STATIC is set to 1024 MB
   QALLOC/CCMAN JOB total memory use is  38976 MB
 Warning: actual memory use might exceed 40000 MB

 Total QAlloc Memory Limit  40000 MB
 Mega-Array Size      1001 MB
 MEM_STATIC part      1024 MB

                       Distance Matrix (Angstroms)
             H (  1)   C (  2)   H (  3)   C (  4)   H (  5)
   C (  2)  1.080776
   H (  3)  1.851895  1.081258
   C (  4)  2.108139  1.332687  2.102109
   H (  5)  2.453859  2.105215  3.067812  1.080583
   H (  6)  3.070259  2.097595  2.422986  1.091666  1.875547

 A cutoff of  1.0D-11 yielded    300 shell pairs
 There are      1220 function pairs (      1329 Cartesian)
 Smallest overlap matrix eigenvalue = 4.80E-03

 Scale SEOQF with 1.000000e-01/1.000000e-01/1.000000e+00

 Standard Electronic Orientation quadrupole field applied
 Nucleus-field energy     =     0.0000000022 hartrees
 Guess from superposition of atomic densities
 Warning:  Energy on first SCF cycle will be non-variational
 SAD guess density has 16.000000 electrons
 A restricted Hartree-Fock SCF calculation will be
 performed using Pulay DIIS extrapolation
 SCF converges when DIIS error is below 1.0E-08
 using 10 threads for integral computing
 -------------------------------------------------------
 OpenMP Integral computing Module                
 Release: version 1.0, May 2013, Q-Chem Inc. Pittsburgh 
 -------------------------------------------------------
 ---------------------------------------
  Cycle       Energy         DIIS Error
 ---------------------------------------
    1     -78.4324432266      1.01E-01
    2     -78.0174645982      7.21E-03
    3     -78.0380864018      1.85E-03
    4     -78.0395705463      5.77E-04
    5     -78.0396935851      5.93E-05
    6     -78.0396954784      1.30E-05
    7     -78.0396955598      5.33E-06
    8     -78.0396955703      9.67E-07
    9     -78.0396955710      1.68E-07
   10     -78.0396955710      5.48E-08
   11     -78.0396955711      7.80E-09 Convergence criterion met
 ---------------------------------------
 SCF time:  CPU 1.96 s  wall 2.60 s
 SCF   energy in the final basis set = -78.03969557
 Total energy in the final basis set = -78.03969557
Exporting Density Matrix to file 'Densmat_SCF.txt'.
Export successful
================================================================================
|                                                                              |
|                                 A D C  M A N                                 |
|                                                                              |
 ------------------------------------------------------------------------------ 
|                                                                              |
| Components:                                                                  |
|                                                                              |
| - libvmm - 1.3-trunk                                                         |
|   Authors:                                                                   |
|   Evgeny Epifanovsky, Ilya Kaliman                                           |
|                                                                              |
| - libtensor - 2.5-trunk                                                      |
|   Authors:                                                                   |
|   Evgeny Epifanovsky, Michael Wormit, Dmitry Zuev, Sam Manzer,               |
|   Ilya Kaliman                                                               |
|                                                                              |
| - libwfa - 1.1-trunk                                                         |
|   Authors:                                                                   |
|   Felix Plasser, Stefanie Mewes (Baeppler), Benjamin Thomitzni,              |
|   Michael Wormit, Feng Chen, Anna I. Krylov, Pavel Pokhilko                  |
|                                                                              |
| - libadc - 1.1-trunk                                                         |
|   Authors:                                                                   |
|   Michael Wormit, Adrian L. Dempwolff, Philipp H. P. Harbach,                |
|   Caroline Krauter, Dirk Rehn, Matthias Schneider, Jan Wenzel                |
|                                                                              |
| - adcman - 2.6-trunk                                                         |
|   Authors:                                                                   |
|   Michael Wormit, Adrian L. Dempwolff, Philipp H. P. Harbach,                |
|   Caroline Krauter, Daniel Lefrancois, Jan-Michael Mewes, Dirk Rehn,         |
|   Matthias Schneider, Jan Wenzel, Andreas Dreuw                              |
|                                                                              |
| Authors of earlier versions of ADCMAN:                                       |
| Andreas Dreuw, Jan Hendrik Starcke, Dirk Rehn, Michael Wormit                |
|                                                                              |
================================================================================

 Created directory /srv/beegfs/scratch/users/f/fum/qchem68697/plots
  Import QC data ...  CPU 0.00 s  wall 0.03 s

 Alpha MOs, Restricted
 -- Occupied --                  
-11.236 -11.234  -1.032  -0.787  -0.642  -0.579  -0.505  -0.374
  1 A     2 A     3 A     4 A     5 A     6 A     7 A     8 A                  
 -- Virtual --                   
  0.169   0.203   0.232   0.240   0.303   0.460   0.576   0.619
  9 A    10 A    11 A    12 A    13 A    14 A    15 A    16 A                  
  0.689   0.706   0.784   0.808   0.862   0.935   0.971   1.008
 17 A    18 A    19 A    20 A    21 A    22 A    23 A    24 A                  
  1.128   1.235   1.265   1.268   1.292   1.599   1.707   1.743
 25 A    26 A    27 A    28 A    29 A    30 A    31 A    32 A                  
  1.820   1.863   1.869   1.928   1.970   1.981   2.213   2.257
 33 A    34 A    35 A    36 A    37 A    38 A    39 A    40 A                  
  2.378   2.453   2.490   2.616   2.721   2.812   3.145   3.385
 41 A    42 A    43 A    44 A    45 A    46 A    47 A    48 A                  

 Beta MOs, Restricted
 -- Occupied --                  
-11.236 -11.234  -1.032  -0.787  -0.642  -0.579  -0.505  -0.374
  1 A     2 A     3 A     4 A     5 A     6 A     7 A     8 A                  
 -- Virtual --                   
  0.169   0.203   0.232   0.240   0.303   0.460   0.576   0.619
  9 A    10 A    11 A    12 A    13 A    14 A    15 A    16 A                  
  0.689   0.706   0.784   0.808   0.862   0.935   0.971   1.008
 17 A    18 A    19 A    20 A    21 A    22 A    23 A    24 A                  
  1.128   1.235   1.265   1.268   1.292   1.599   1.707   1.743
 25 A    26 A    27 A    28 A    29 A    30 A    31 A    32 A                  
  1.820   1.863   1.869   1.928   1.970   1.981   2.213   2.257
 33 A    34 A    35 A    36 A    37 A    38 A    39 A    40 A                  
  2.378   2.453   2.490   2.616   2.721   2.812   3.145   3.385
 41 A    42 A    43 A    44 A    45 A    46 A    47 A    48 A                  
  Import AO data ...  CPU 0.00 s  wall 0.15 s
  Using point group: C1
  Irreducible representations in point group: A
  Molecular orbitals: 
  Occupied MOs:
  Block   0:   1 (  A) A   2 (  A) A   3 (  A) A   4 (  A) A   5 (  A) A
                  -11.24      -11.23      -1.032     -0.7873     -0.6422
               6 (  A) A   7 (  A) A   8 (  A) A
                  -0.579     -0.5048      -0.374
  Block   1:   1 (  A) B   2 (  A) B   3 (  A) B   4 (  A) B   5 (  A) B
                  -11.24      -11.23      -1.032     -0.7873     -0.6422
               6 (  A) B   7 (  A) B   8 (  A) B
                  -0.579     -0.5048      -0.374
  Virtual MOs:
  Block   0:   9 (  A) A  10 (  A) A  11 (  A) A  12 (  A) A  13 (  A) A
                  0.1686      0.2029      0.2321      0.2399       0.303
              14 (  A) A  15 (  A) A  16 (  A) A  17 (  A) A  18 (  A) A
                  0.4597      0.5756      0.6193      0.6891      0.7061
              19 (  A) A  20 (  A) A  21 (  A) A  22 (  A) A
                  0.7838       0.808       0.862       0.935
  Block   1:  23 (  A) A  24 (  A) A  25 (  A) A  26 (  A) A  27 (  A) A
                   0.971       1.008       1.128       1.235       1.265
              28 (  A) A  29 (  A) A  30 (  A) A  31 (  A) A  32 (  A) A
                   1.268       1.292       1.599       1.707       1.743
              33 (  A) A  34 (  A) A  35 (  A) A  36 (  A) A
                    1.82       1.863       1.869       1.928
  Block   2:  37 (  A) A  38 (  A) A  39 (  A) A  40 (  A) A  41 (  A) A
                    1.97       1.981       2.213       2.257       2.378
              42 (  A) A  43 (  A) A  44 (  A) A  45 (  A) A  46 (  A) A
                   2.453        2.49       2.616       2.721       2.812
              47 (  A) A  48 (  A) A
                   3.145       3.385
  Block   3:   9 (  A) B  10 (  A) B  11 (  A) B  12 (  A) B  13 (  A) B
                  0.1686      0.2029      0.2321      0.2399       0.303
              14 (  A) B  15 (  A) B  16 (  A) B  17 (  A) B  18 (  A) B
                  0.4597      0.5756      0.6193      0.6891      0.7061
              19 (  A) B  20 (  A) B  21 (  A) B  22 (  A) B
                  0.7838       0.808       0.862       0.935
  Block   4:  23 (  A) B  24 (  A) B  25 (  A) B  26 (  A) B  27 (  A) B
                   0.971       1.008       1.128       1.235       1.265
              28 (  A) B  29 (  A) B  30 (  A) B  31 (  A) B  32 (  A) B
                   1.268       1.292       1.599       1.707       1.743
              33 (  A) B  34 (  A) B  35 (  A) B  36 (  A) B
                    1.82       1.863       1.869       1.928
  Block   5:  37 (  A) B  38 (  A) B  39 (  A) B  40 (  A) B  41 (  A) B
                    1.97       1.981       2.213       2.257       2.378
              42 (  A) B  43 (  A) B  44 (  A) B  45 (  A) B  46 (  A) B
                   2.453        2.49       2.616       2.721       2.812
              47 (  A) B  48 (  A) B
                   3.145       3.385
  Import MO data ...  CPU 0.01 s  wall 0.01 s
  Import HF data ...  CPU 0.07 s  wall 0.03 s
  Import 2e integrals ...  CPU 0.88 s  wall 0.14 s

--------------------------------------------------------------------------------
                                   HF Summary                                   
--------------------------------------------------------------------------------
  Energy:                                                  -78.0396955711 a.u.
  Dip. moment [a.u.]:                  [   0.003823,   -0.002080,    0.001167]
  Total dipole [Debye]:                                               0.011453
  <r^2> [a.u.]:                        [ 175.392030,   34.870225,   11.637641]
  Total <r^2> [a.u.]:                                               221.899896
--------------------------------------------------------------------------------
  HF properties ...  CPU 0.01 s  wall 0.00 s
  MP(1) calculation ...  CPU 0.01 s  wall 0.00 s
  N^6 prerequesite intermediates ...  CPU 0.57 s  wall 0.09 s
  Difference density matrix of state mp2_gs printed to ASCII file 'State_mp2_gs_Difference.txt'
Exporting MP density matrix to file 'Densmat_MP.txt'.
Export successful
  Total density matrix of state mp2_gs printed to ASCII file 'State_mp2_gs_Total.txt'
Exporting MP density matrix to file 'Densmat_MP.txt'.
Export successful

--------------------------------------------------------------------------------
                                 MP(2) Summary                                  
--------------------------------------------------------------------------------
  MP energy contribution:                                   -0.2798968551 a.u.
  Total energy:                                            -78.3195924262 a.u.
  Dip. moment [a.u.]:                  [   0.003065,   -0.002440,    0.001095]
  Total dipole [Debye]:                                               0.010339
  <r^2> [a.u.]:                        [ 175.431397,   34.912474,   11.468606]
  Total <r^2> [a.u.]:                                               221.812477

  Density matrix analysis:
  ------------------------
  NOs
    Occupation of frontier NOs:
       0.0453   1.9382
    Number of electrons: 16.000000
    Number of unpaired electrons: n_u =  0.40417, n_u,nl =  0.04521
    NO participation ratio (PR_NO): 13.867295
  
  
  Mulliken Population Analysis
  Atom      Charge (e)              h+              e-           Del q
  --------------------------------------------------------------------
   1 H        0.050203        0.014092       -0.011202        0.002890
   2 C       -0.101270        0.092769       -0.098963       -0.006194
   3 H        0.050152        0.014100       -0.011191        0.002909
   4 C       -0.104012        0.094222       -0.099038       -0.004816
   5 H        0.051736        0.013878       -0.011260        0.002618
   6 H        0.053191        0.013840       -0.011248        0.002593
  --------------------------------------------------------------------
  Sum:        0.000000        0.242902       -0.242902        0.000000
  
  Multipole moment analysis of the density matrix
    Molecular charge:                      -0.000000
    Number of electrons:                   16.000000
      Center of electronic charge [Ang]: [ -1.560678,  -0.068022,   0.001942]
    Total nuclear charge:                  16.000000
      Center of nuclear charge [Ang]:    [ -1.560576,  -0.068102,   0.001978]
    Dipole moment [D]:                     0.010339
      Cartesian components [D]:          [  0.007790,  -0.006201,   0.002784]
    RMS size of the density [Ang]:         1.200737
      Cartesian components [Ang]:        [  0.796648,   0.778719,   0.448015]
  
  Exciton analysis of the difference density matrix
    <r_h> [Ang]:                  [ -1.563169,  -0.067631,   0.001671]
    <r_e> [Ang]:                  [ -1.561517,  -0.066846,   0.001827]
    |<r_e - r_h>| [Ang]:            0.001836
    Hole size [Ang]:                1.394124
      Cartesian components [Ang]: [  0.848533,   0.832720,   0.728115]
    Electron size [Ang]:            1.359438
      Cartesian components [Ang]: [  0.877813,   0.861530,   0.579034]
--------------------------------------------------------------------------------
  MP(2) calculation ...  CPU 0.11 s  wall 0.15 s
  Start ADC(2)-s ...  CPU 0.01 s  wall 0.00 s
  ADC(2) intermediates ...  CPU 0.02 s  wall 0.01 s
  Starting Davidson for singlet states of irrep A ... 
--------------------------------------------------------------------------------
   It NVec Conv  Avg. Norm  Max. Norm  Conv. states           Remark
--------------------------------------------------------------------------------
        10    0  1.330e-01  4.671e-01  0.4106 n n n n n n n n Guess.
    1   20    0  2.311e-02  1.099e-01  0.3264 n n n n n n n n 
    2   30    0  6.048e-03  2.957e-02  0.3216 n n n n n n n n 
    3   40    0  2.186e-03  1.613e-02  0.3212 n n n n n n n n 
    4   50    0  6.358e-04  4.810e-03  0.3212 n n n n n n n n 
    5   20    0  2.827e-04  2.107e-03  0.3212 n n n n n n n n Subspace collapsed.
    6   30    0  2.258e-04  2.095e-03  0.3212 n n n n n n n n 
    7   40    0  2.004e-04  1.846e-03  0.3212 n n n n n n n n 
    8   50    0  2.275e-04  2.246e-03  0.3212 n n n n n n n n 
    9   20    1  1.008e-04  9.911e-04  0.3212 n y n n n n n n Subspace collapsed.
   10   30    3  9.043e-05  8.884e-04  0.3212 n y y y n n n n 
   11   40    5  6.646e-05  6.597e-04  0.3212 n y y y y y n n 
   12   50    6  8.820e-05  8.806e-04  0.3212 y y y y y y n n 
   13   20    6  4.681e-05  4.673e-04  0.3212 y y y y y y n n Subspace collapsed.
   14   30    6  5.046e-05  5.040e-04  0.3212 y y y y y y n n 
   15   40    6  4.820e-05  4.817e-04  0.3212 y y y y y y n n 
   16   50    6  5.271e-05  5.269e-04  0.3212 y y y y y y n n 
   17   20    6  2.340e-05  2.339e-04  0.3212 y y y y y y n n Subspace collapsed.
   18   30    6  2.099e-05  2.099e-04  0.3212 y y y y y y n n 
   19   40    8  1.321e-05  1.320e-04  0.3212 y y y y y y y y 
   20   50    8  1.966e-05  1.966e-04  0.3212 y y y y y y y y 
   21   20    8  8.503e-06  8.502e-05  0.3212 y y y y y y y y Subspace collapsed.
   22   30    8  1.294e-05  1.294e-04  0.3212 y y y y y y y y 
   23   39    8  9.907e-06  9.906e-05  0.3212 y y y y y y y y 
   24   47    8  1.346e-05  1.346e-04  0.3212 y y y y y y y y 
   25   50    8  1.265e-05  1.265e-04  0.3212 y y y y y y y y 
   26   17    9  5.895e-06  5.895e-05  0.3212 y y y y y y y y Subspace collapsed.
   27   23    9  5.456e-06  5.456e-05  0.3212 y y y y y y y y 
   28   29    9  3.741e-06  3.741e-05  0.3212 y y y y y y y y 
   29   34    9  5.075e-06  5.075e-05  0.3212 y y y y y y y y 
   30   38    9  3.913e-06  3.913e-05  0.3212 y y y y y y y y 
   31   42    9  2.638e-06  2.638e-05  0.3212 y y y y y y y y 
   32   46    9  2.108e-06  2.108e-05  0.3212 y y y y y y y y 
   33   50    9  1.365e-06  1.365e-05  0.3212 y y y y y y y y 
   34   14    9  5.142e-07  5.142e-06  0.3212 y y y y y y y y Subspace collapsed.
   35   18    9  4.075e-07  4.074e-06  0.3212 y y y y y y y y 
   36   22    9  2.951e-07  2.951e-06  0.3212 y y y y y y y y 
   37   26    9  2.099e-07  2.099e-06  0.3212 y y y y y y y y 
   38   30    9  1.401e-07  1.401e-06  0.3212 y y y y y y y y 
   39   34    9  1.105e-07  1.105e-06  0.3212 y y y y y y y y 
   40   38   10  9.002e-08  9.002e-07  0.3212 y y y y y y y y Converged.
--------------------------------------------------------------------------------
  Davidson Summary: 
 ------------------------------------------------------------
  State  0: excitation energy =   0.3212 a.u.   (converged)
  State  1: excitation energy =   0.3333 a.u.   (converged)
  State  2: excitation energy =   0.3356 a.u.   (converged)
  State  3: excitation energy =   0.3608 a.u.   (converged)
  State  4: excitation energy =   0.3742 a.u.   (converged)
  State  5: excitation energy =   0.3863 a.u.   (converged)
  State  6: excitation energy =   0.4238 a.u.   (converged)
  State  7: excitation energy =   0.4476 a.u.   (converged)
  State  8: excitation energy =   0.4569 a.u.   (converged)
  State  9: excitation energy =   0.4643 a.u.   (converged)
 ------------------------------------------------------------

  Singlet states of irrep A ...  CPU 116.06 s  wall 29.39 s
  TDMs ...  CPU 0.58 s  wall 0.23 s
  SDMs ...  CPU 1.36 s  wall 0.45 s
  Starting TPA DIIS iterations ... 
------------------------------------ 
   It     Res. Norm  Remark
------------------------------------
                       Guess.
    1     4.390e+00  
    2     5.822e+00  
    3     1.081e+00  
    4     2.596e-01  
    5     6.587e-02  
    6     2.692e-02  
    7     8.253e-03  
    8     1.466e-03  
    9     5.404e-04  
   10     9.132e-05  
   11     2.873e-05  
   12     4.474e-06  
   13     1.426e-06  
   14     4.709e-07  Converged.
   ... Converged in 14 steps (norm: 4.70899e-07)
------------------------------------
  Starting TPA DIIS iterations ... 
------------------------------------ 
   It     Res. Norm  Remark
------------------------------------
                       Guess.
    1     4.184e+00  
    2     5.533e+00  
    3     1.023e+00  
    4     2.544e-01  
    5     6.550e-02  
    6     2.649e-02  
    7     8.049e-03  
    8     1.442e-03  
    9     5.353e-04  
   10     8.895e-05  
   11     2.815e-05  
   12     4.294e-06  
   13     1.474e-06  
   14     4.615e-07  Converged.
   ... Converged in 14 steps (norm: 4.61505e-07)
------------------------------------
  Starting TPA DIIS iterations ... 
------------------------------------ 
   It     Res. Norm  Remark
------------------------------------
                       Guess.
    1     6.929e-01  
    2     4.845e-01  
    3     1.699e-01  
    4     5.768e-02  
    5     1.871e-02  
    6     6.820e-03  
    7     1.087e-03  
    8     4.546e-04  
    9     1.368e-04  
   10     2.246e-05  
   11     1.121e-05  
   12     3.883e-06  
   13     2.409e-06  
   14     9.638e-07  Converged.
   ... Converged in 14 steps (norm: 9.63797e-07)
------------------------------------
  Starting TPA DIIS iterations ... 
------------------------------------ 
   It     Res. Norm  Remark
------------------------------------
                       Guess.
    1     4.686e+00  
    2     6.355e+00  
    3     1.166e+00  
    4     2.896e-01  
    5     7.451e-02  
    6     3.073e-02  
    7     9.404e-03  
    8     1.668e-03  
    9     6.195e-04  
   10     1.053e-04  
   11     3.346e-05  
   12     5.269e-06  
   13     1.688e-06  
   14     5.669e-07  Converged.
   ... Converged in 14 steps (norm: 5.66887e-07)
------------------------------------
  Starting TPA DIIS iterations ... 
------------------------------------ 
   It     Res. Norm  Remark
------------------------------------
                       Guess.
    1     4.466e+00  
    2     6.038e+00  
    3     1.103e+00  
    4     2.834e-01  
    5     7.411e-02  
    6     3.025e-02  
    7     9.170e-03  
    8     1.641e-03  
    9     6.138e-04  
   10     1.025e-04  
   11     3.276e-05  
   12     5.045e-06  
   13     1.758e-06  
   14     5.544e-07  Converged.
   ... Converged in 14 steps (norm: 5.54354e-07)
------------------------------------
  Starting TPA DIIS iterations ... 
------------------------------------ 
   It     Res. Norm  Remark
------------------------------------
                       Guess.
    1     7.055e-01  
    2     5.025e-01  
    3     1.800e-01  
    4     6.543e-02  
    5     2.024e-02  
    6     7.471e-03  
    7     1.231e-03  
    8     5.349e-04  
    9     1.629e-04  
   10     2.491e-05  
   11     1.322e-05  
   12     4.611e-06  
   13     3.032e-06  
   14     1.233e-06  
   15     4.578e-07  Converged.
   ... Converged in 15 steps (norm: 4.57807e-07)
------------------------------------
  Starting TPA DIIS iterations ... 
------------------------------------ 
   It     Res. Norm  Remark
------------------------------------
                       Guess.
    1     4.749e+00  
    2     6.468e+00  
    3     1.183e+00  
    4     2.960e-01  
    5     7.637e-02  
    6     3.155e-02  
    7     9.653e-03  
    8     1.712e-03  
    9     6.366e-04  
   10     1.083e-04  
   11     3.450e-05  
   12     5.444e-06  
   13     1.745e-06  
   14     5.884e-07  Converged.
   ... Converged in 14 steps (norm: 5.88425e-07)
------------------------------------
  Starting TPA DIIS iterations ... 
------------------------------------ 
   It     Res. Norm  Remark
------------------------------------
                       Guess.
    1     4.525e+00  
    2     6.146e+00  
    3     1.119e+00  
    4     2.897e-01  
    5     7.596e-02  
    6     3.106e-02  
    7     9.412e-03  
    8     1.684e-03  
    9     6.308e-04  
   10     1.055e-04  
   11     3.377e-05  
   12     5.210e-06  
   13     1.821e-06  
   14     5.751e-07  Converged.
   ... Converged in 14 steps (norm: 5.7511e-07)
------------------------------------
  Starting TPA DIIS iterations ... 
------------------------------------ 
   It     Res. Norm  Remark
------------------------------------
                       Guess.
    1     7.080e-01  
    2     5.062e-01  
    3     1.821e-01  
    4     6.713e-02  
    5     2.055e-02  
    6     7.611e-03  
    7     1.263e-03  
    8     5.527e-04  
    9     1.686e-04  
   10     2.540e-05  
   11     1.367e-05  
   12     4.774e-06  
   13     3.174e-06  
   14     1.296e-06  
   15     4.795e-07  Converged.
   ... Converged in 15 steps (norm: 4.79547e-07)
------------------------------------
  Starting TPA DIIS iterations ... 
------------------------------------ 
   It     Res. Norm  Remark
------------------------------------
                       Guess.
    1     5.503e+00  
    2     7.874e+00  
    3     1.397e+00  
    4     3.787e-01  
    5     1.002e-01  
    6     4.222e-02  
    7     1.284e-02  
    8     2.267e-03  
    9     8.576e-04  
   10     1.475e-04  
   11     4.815e-05  
   12     7.769e-06  
   13     2.527e-06  
   14     8.915e-07  Converged.
   ... Converged in 14 steps (norm: 8.91452e-07)
------------------------------------
  Starting TPA DIIS iterations ... 
------------------------------------ 
   It     Res. Norm  Remark
------------------------------------
                       Guess.
    1     5.241e+00  
    2     7.480e+00  
    3     1.320e+00  
    4     3.697e-01  
    5     9.971e-02  
    6     4.158e-02  
    7     1.251e-02  
    8     2.232e-03  
    9     8.502e-04  
   10     1.435e-04  
   11     4.703e-05  
   12     7.386e-06  
   13     2.685e-06  
   14     8.640e-07  Converged.
   ... Converged in 14 steps (norm: 8.63986e-07)
------------------------------------
  Starting TPA DIIS iterations ... 
------------------------------------ 
   It     Res. Norm  Remark
------------------------------------
                       Guess.
    1     7.360e-01  
    2     5.486e-01  
    3     2.071e-01  
    4     8.956e-02  
    5     2.430e-02  
    6     9.412e-03  
    7     1.683e-03  
    8     7.846e-04  
    9     2.433e-04  
   10     3.122e-05  
   11     1.972e-05  
   12     7.068e-06  
   13     5.249e-06  
   14     2.254e-06  
   15     7.538e-07  Converged.
   ... Converged in 15 steps (norm: 7.53759e-07)
------------------------------------
  Starting TPA DIIS iterations ... 
------------------------------------ 
   It     Res. Norm  Remark
------------------------------------
                       Guess.
    1     5.984e+00  
    2     8.801e+00  
    3     1.532e+00  
    4     4.355e-01  
    5     1.166e-01  
    6     4.964e-02  
    7     1.502e-02  
    8     2.648e-03  
    9     1.011e-03  
   10     1.747e-04  
   11     5.784e-05  
   12     9.443e-06  
   13     3.099e-06  
   14     1.130e-06  
   15     3.187e-07  Converged.
   ... Converged in 15 steps (norm: 3.18659e-07)
------------------------------------
  Starting TPA DIIS iterations ... 
------------------------------------ 
   It     Res. Norm  Remark
------------------------------------
                       Guess.
    1     5.698e+00  
    2     8.361e+00  
    3     1.448e+00  
    4     4.245e-01  
    5     1.160e-01  
    6     4.889e-02  
    7     1.464e-02  
    8     2.607e-03  
    9     1.002e-03  
   10     1.699e-04  
   11     5.642e-05  
   12     8.933e-06  
   13     3.333e-06  
   14     1.087e-06  
   15     5.098e-07  Converged.
   ... Converged in 15 steps (norm: 5.0982e-07)
------------------------------------
  Starting TPA DIIS iterations ... 
------------------------------------ 
   It     Res. Norm  Remark
------------------------------------
                       Guess.
    1     7.517e-01  
    2     5.739e-01  
    3     2.224e-01  
    4     1.056e-01  
    5     2.669e-02  
    6     1.066e-02  
    7     1.986e-03  
    8     9.399e-04  
    9     2.936e-04  
   10     3.597e-05  
   11     2.425e-05  
   12     8.872e-06  
   13     6.928e-06  
   14     3.053e-06  
   15     9.413e-07  Converged.
   ... Converged in 15 steps (norm: 9.41333e-07)
------------------------------------
  Starting TPA DIIS iterations ... 
------------------------------------ 
   It     Res. Norm  Remark
------------------------------------
                       Guess.
    1     6.487e+00  
    2     9.794e+00  
    3     1.672e+00  
    4     4.979e-01  
    5     1.345e-01  
    6     5.784e-02  
    7     1.742e-02  
    8     3.064e-03  
    9     1.181e-03  
   10     2.048e-04  
   11     6.866e-05  
   12     1.134e-05  
   13     3.751e-06  
   14     1.423e-06  
   15     4.029e-07  Converged.
   ... Converged in 15 steps (norm: 4.02855e-07)
------------------------------------
  Starting TPA DIIS iterations ... 
------------------------------------ 
   It     Res. Norm  Remark
------------------------------------
                       Guess.
    1     6.176e+00  
    2     9.303e+00  
    3     1.580e+00  
    4     4.845e-01  
    5     1.339e-01  
    6     5.698e-02  
    7     1.697e-02  
    8     3.017e-03  
    9     1.171e-03  
   10     1.990e-04  
   11     6.689e-05  
   12     1.067e-05  
   13     4.087e-06  
   14     1.357e-06  
   15     6.632e-07  Converged.
   ... Converged in 15 steps (norm: 6.63153e-07)
------------------------------------
  Starting TPA DIIS iterations ... 
------------------------------------ 
   It     Res. Norm  Remark
------------------------------------
                       Guess.
    1     7.666e-01  
    2     5.989e-01  
    3     2.380e-01  
    4     1.236e-01  
    5     2.923e-02  
    6     1.203e-02  
    7     2.331e-03  
    8     1.098e-03  
    9     3.466e-04  
   10     4.253e-05  
   11     2.956e-05  
   12     1.107e-05  
   13     8.997e-06  
   14     4.044e-06  
   15     1.166e-06  
   16     6.146e-07  Converged.
   ... Converged in 16 steps (norm: 6.14558e-07)
------------------------------------
  Starting TPA DIIS iterations ... 
------------------------------------ 
   It     Res. Norm  Remark
------------------------------------
                       Guess.
    1     8.553e+00  
    2     1.411e+01  
    3     2.239e+00  
    4     7.816e-01  
    5     2.162e-01  
    6     9.598e-02  
    7     2.836e-02  
    8     4.949e-03  
    9     1.966e-03  
   10     3.438e-04  
   11     1.187e-04  
   12     2.058e-05  
   13     6.886e-06  
   14     3.186e-06  
   15     9.779e-07  Converged.
   ... Converged in 15 steps (norm: 9.7786e-07)
------------------------------------
  Starting TPA DIIS iterations ... 
------------------------------------ 
   It     Res. Norm  Remark
------------------------------------
                       Guess.
    1     8.137e+00  
    2     1.340e+01  
    3     2.115e+00  
    4     7.565e-01  
    5     2.152e-01  
    6     9.461e-02  
    7     2.761e-02  
    8     4.878e-03  
    9     1.950e-03  
   10     3.333e-04  
   11     1.153e-04  
   12     1.881e-05  
   13     7.969e-06  
   14     2.914e-06  
   15     1.582e-06  
   16     5.457e-07  Converged.
   ... Converged in 16 steps (norm: 5.45675e-07)
------------------------------------
  Starting TPA DIIS iterations ... 
------------------------------------ 
   It     Res. Norm  Remark
------------------------------------
                       Guess.
    1     8.168e-01  
    2     6.911e-01  
    3     2.984e-01  
    4     2.080e-01  
    5     4.048e-02  
    6     1.829e-02  
    7     4.015e-03  
    8     1.607e-03  
    9     5.576e-04  
   10     8.396e-05  
   11     5.750e-05  
   12     2.383e-05  
   13     2.092e-05  
   14     9.650e-06  
   15     2.878e-06  
   16     1.584e-06  
   17     3.947e-07  Converged.
   ... Converged in 17 steps (norm: 3.94738e-07)
------------------------------------
  Starting TPA DIIS iterations ... 
------------------------------------ 
   It     Res. Norm  Remark
------------------------------------
                       Guess.
    1     1.048e+01  
    2     1.843e+01  
    3     2.752e+00  
    4     1.076e+00  
    5     3.018e-01  
    6     1.370e-01  
    7     3.983e-02  
    8     6.914e-03  
    9     2.806e-03  
   10     4.914e-04  
   11     1.699e-04  
   12     3.133e-05  
   13     1.033e-05  
   14     5.771e-06  
   15     2.059e-06  
   16     1.540e-06  
   17     7.184e-07  Converged.
   ... Converged in 17 steps (norm: 7.18441e-07)
------------------------------------
  Starting TPA DIIS iterations ... 
------------------------------------ 
   It     Res. Norm  Remark
------------------------------------
                       Guess.
    1     9.962e+00  
    2     1.750e+01  
    3     2.599e+00  
    4     1.038e+00  
    5     3.005e-01  
    6     1.351e-01  
    7     3.875e-02  
    8     6.818e-03  
    9     2.782e-03  
   10     4.752e-04  
   11     1.650e-04  
   12     2.765e-05  
   13     1.272e-05  
   14     5.172e-06  
   15     2.931e-06  
   16     9.881e-07  Converged.
   ... Converged in 16 steps (norm: 9.88108e-07)
------------------------------------
  Starting TPA DIIS iterations ... 
------------------------------------ 
   It     Res. Norm  Remark
------------------------------------
                       Guess.
    1     8.526e-01  
    2     7.658e-01  
    3     3.502e-01  
    4     2.940e-01  
    5     5.198e-02  
    6     2.454e-02  
    7     5.856e-03  
    8     1.855e-03  
    9     7.435e-04  
   10     1.325e-04  
   11     9.195e-05  
   12     4.126e-05  
   13     3.546e-05  
   14     1.681e-05  
   15     5.983e-06  
   16     2.977e-06  
   17     6.472e-07  Converged.
   ... Converged in 17 steps (norm: 6.47168e-07)
------------------------------------
  Starting TPA DIIS iterations ... 
------------------------------------ 
   It     Res. Norm  Remark
------------------------------------
                       Guess.
    1     1.142e+01  
    2     2.064e+01  
    3     2.999e+00  
    4     1.229e+00  
    5     3.467e-01  
    6     1.587e-01  
    7     4.584e-02  
    8     7.941e-03  
    9     3.250e-03  
   10     5.689e-04  
   11     1.960e-04  
   12     3.746e-05  
   13     1.226e-05  
   14     7.382e-06  
   15     2.846e-06  
   16     2.074e-06  
   17     9.262e-07  Converged.
   ... Converged in 17 steps (norm: 9.26164e-07)
------------------------------------
  Starting TPA DIIS iterations ... 
------------------------------------ 
   It     Res. Norm  Remark
------------------------------------
                       Guess.
    1     1.086e+01  
    2     1.960e+01  
    3     2.832e+00  
    4     1.183e+00  
    5     3.452e-01  
    6     1.566e-01  
    7     4.458e-02  
    8     7.831e-03  
    9     3.223e-03  
   10     5.496e-04  
   11     1.905e-04  
   12     3.242e-05  
   13     1.552e-05  
   14     6.626e-06  
   15     3.813e-06  
   16     1.272e-06  
   17     9.321e-07  Converged.
   ... Converged in 17 steps (norm: 9.32145e-07)
------------------------------------
  Starting TPA DIIS iterations ... 
------------------------------------ 
   It     Res. Norm  Remark
------------------------------------
                       Guess.
    1     8.677e-01  
    2     7.997e-01  
    3     3.744e-01  
    4     3.358e-01  
    5     5.789e-02  
    6     2.757e-02  
    7     6.818e-03  
    8     1.930e-03  
    9     8.324e-04  
   10     1.577e-04  
   11     1.116e-04  
   12     5.172e-05  
   13     4.286e-05  
   14     2.092e-05  
   15     8.026e-06  
   16     3.866e-06  
   17     8.150e-07  Converged.
   ... Converged in 17 steps (norm: 8.14961e-07)
------------------------------------
  Starting TPA DIIS iterations ... 
------------------------------------ 
   It     Res. Norm  Remark
------------------------------------
                       Guess.
    1     1.227e+01  
    2     2.269e+01  
    3     3.220e+00  
    4     1.371e+00  
    5     3.888e-01  
    6     1.793e-01  
    7     5.147e-02  
    8     8.902e-03  
    9     3.670e-03  
   10     6.418e-04  
   11     2.203e-04  
   12     4.354e-05  
   13     1.419e-05  
   14     9.029e-06  
   15     3.717e-06  
   16     2.650e-06  
   17     1.129e-06  
   18     5.308e-07  Converged.
   ... Converged in 18 steps (norm: 5.30789e-07)
------------------------------------
  Starting TPA DIIS iterations ... 
------------------------------------ 
   It     Res. Norm  Remark
------------------------------------
                       Guess.
    1     1.167e+01  
    2     2.155e+01  
    3     3.040e+00  
    4     1.318e+00  
    5     3.870e-01  
    6     1.769e-01  
    7     5.005e-02  
    8     8.780e-03  
    9     3.639e-03  
   10     6.193e-04  
   11     2.141e-04  
   12     3.700e-05  
   13     1.836e-05  
   14     8.159e-06  
   15     4.758e-06  
   16     1.582e-06  
   17     1.195e-06  
   18     3.126e-07  Converged.
   ... Converged in 18 steps (norm: 3.12576e-07)
------------------------------------
  Starting TPA DIIS iterations ... 
------------------------------------ 
   It     Res. Norm  Remark
------------------------------------
                       Guess.
    1     8.802e-01  
    2     8.290e-01  
    3     3.957e-01  
    4     3.725e-01  
    5     6.334e-02  
    6     3.025e-02  
    7     7.709e-03  
    8     1.988e-03  
    9     9.122e-04  
   10     1.810e-04  
   11     1.308e-04  
   12     6.227e-05  
   13     4.936e-05  
   14     2.495e-05  
   15     1.016e-05  
   16     4.813e-06  
   17     1.022e-06  
   18     7.507e-07  Converged.
   ... Converged in 18 steps (norm: 7.50671e-07)
------------------------------------
  Two-photon absorbption ...  CPU 104.66 s  wall 19.40 s
  Transition density matrix of state singlet_A_1 printed to ASCII file 'State_singlet_A_1_Transition.txt'
  Transition density matrix of state singlet_A_2 printed to ASCII file 'State_singlet_A_2_Transition.txt'
  Transition density matrix of state singlet_A_3 printed to ASCII file 'State_singlet_A_3_Transition.txt'
  Transition density matrix of state singlet_A_4 printed to ASCII file 'State_singlet_A_4_Transition.txt'
  Transition density matrix of state singlet_A_5 printed to ASCII file 'State_singlet_A_5_Transition.txt'
  Transition density matrix of state singlet_A_6 printed to ASCII file 'State_singlet_A_6_Transition.txt'
  Transition density matrix of state singlet_A_7 printed to ASCII file 'State_singlet_A_7_Transition.txt'
  Transition density matrix of state singlet_A_8 printed to ASCII file 'State_singlet_A_8_Transition.txt'
  Transition density matrix of state singlet_A_9 printed to ASCII file 'State_singlet_A_9_Transition.txt'
  Transition density matrix of state singlet_A_10 printed to ASCII file 'State_singlet_A_10_Transition.txt'
  Transition properties ...  CPU 0.17 s  wall 1.67 s
  Difference density matrix of state singlet_A_1 printed to ASCII file 'State_singlet_A_1_Difference.txt'
  Total density matrix of state singlet_A_1 printed to ASCII file 'State_singlet_A_1_Total.txt'
  Difference density matrix of state singlet_A_2 printed to ASCII file 'State_singlet_A_2_Difference.txt'
  Total density matrix of state singlet_A_2 printed to ASCII file 'State_singlet_A_2_Total.txt'
  Difference density matrix of state singlet_A_3 printed to ASCII file 'State_singlet_A_3_Difference.txt'
  Total density matrix of state singlet_A_3 printed to ASCII file 'State_singlet_A_3_Total.txt'
  Difference density matrix of state singlet_A_4 printed to ASCII file 'State_singlet_A_4_Difference.txt'
  Total density matrix of state singlet_A_4 printed to ASCII file 'State_singlet_A_4_Total.txt'
  Difference density matrix of state singlet_A_5 printed to ASCII file 'State_singlet_A_5_Difference.txt'
  Total density matrix of state singlet_A_5 printed to ASCII file 'State_singlet_A_5_Total.txt'
  Difference density matrix of state singlet_A_6 printed to ASCII file 'State_singlet_A_6_Difference.txt'
  Total density matrix of state singlet_A_6 printed to ASCII file 'State_singlet_A_6_Total.txt'
  Difference density matrix of state singlet_A_7 printed to ASCII file 'State_singlet_A_7_Difference.txt'
  Total density matrix of state singlet_A_7 printed to ASCII file 'State_singlet_A_7_Total.txt'
  Difference density matrix of state singlet_A_8 printed to ASCII file 'State_singlet_A_8_Difference.txt'
  Total density matrix of state singlet_A_8 printed to ASCII file 'State_singlet_A_8_Total.txt'
  Difference density matrix of state singlet_A_9 printed to ASCII file 'State_singlet_A_9_Difference.txt'
  Total density matrix of state singlet_A_9 printed to ASCII file 'State_singlet_A_9_Total.txt'
  Difference density matrix of state singlet_A_10 printed to ASCII file 'State_singlet_A_10_Difference.txt'
  Total density matrix of state singlet_A_10 printed to ASCII file 'State_singlet_A_10_Total.txt'
  Properties ...  CPU 0.29 s  wall 2.09 s
  ISR TDMS ...  CPU 7.95 s  wall 2.70 s
  ISR transition properties ...  CPU 0.14 s  wall 0.07 s
  Sum-over-states TPA ...  CPU 0.00 s  wall 0.00 s

--------------------------------------------------------------------------------
                   State-averaged natural transition orbitals
--------------------------------------------------------------------------------
--------------------------------------------------------------------------------
  SA-NTO decomposition ...  CPU 0.01 s  wall 0.44 s

--------------------------------------------------------------------------------
                             Excited State Summary
--------------------------------------------------------------------------------
--------------------------------------------------------------------------------

  Excited state 1 (singlet, A)                                     [converged]
  ----------------------------------------------------------------------------
  Term symbol:  2 (1) A                                     R^2 =  4.33044e-13

  Total energy:                                            -77.9983974158 a.u.
  Excitation energy:                                               8.740161 eV

  Osc. strength:                                                      0.446096
  Trans. dip. moment [a.u.]:           [  -1.050058,    0.990250,    0.008768]
  <i|r^2|0> [a.u.]:                    [  -6.206005,    0.254999,   -0.000446]
  Two-photon absorption cross-section (SoS) [a.u.]:                   0.010067
  Two-photon absorption matrix (SoS) [a.u.]:
                                       |   -0.017460   -0.017810   -0.002034 |
                                       |   -0.017810    0.023691   -0.001305 |
                                       |   -0.002034   -0.001305    0.023636 |
  Two-photon absorption cross-section [a.u.]:                         0.013623
  Two-photon absorption matrix [a.u.]:
                                       |   -0.043136   -0.018207    0.000983 |
                                       |   -0.018207    0.020723    0.000619 |
                                       |    0.000983    0.000619    0.021195 |

  Dip. moment [a.u.]:                  [   0.002015,   -0.002533,    0.001283]
  Total dipole [Debye]:                                               0.008848
  <r^2> [a.u.]:                        [ 176.177995,   35.605688,   11.877263]
  Total <r^2> [a.u.]:                                               223.660945

  V1^2 = 0.9715, V2^2 = 0.0285

  Important amplitudes:
      occ i     occ j     vir a      vir b          v   
    -----------------------------------------------------
     8 (A) A              9 (A) A                 0.6810
     6 (A) A             14 (A) A                 0.0625
     4 (A) A             10 (A) A                -0.0615
     7 (A) A             16 (A) A                -0.0561
     5 (A) A             13 (A) A                -0.0512
     6 (A) A             23 (A) A                 0.0491
     8 (A) A             20 (A) A                 0.0352
     6 (A) A             19 (A) A                -0.0304
     3 (A) A             12 (A) A                -0.0281
     7 (A) A             11 (A) A                 0.0224
     5 (A) A             22 (A) A                -0.0214
     4 (A) A             24 (A) A                -0.0188
     3 (A) A             26 (A) A                 0.0184
     8 (A) A   8 (A) B   17 (A) A   20 (A) B     -0.0184
     8 (A) A   8 (A) B    9 (A) A   28 (A) B     -0.0168
     6 (A) A             26 (A) A                 0.0160
     7 (A) A             21 (A) A                 0.0154
     3 (A) A             14 (A) A                 0.0139
     6 (A) A             12 (A) A                 0.0138
     3 (A) A   4 (A) B    9 (A) A    9 (A) B      0.0129
     3 (A) A             19 (A) A                -0.0118
     8 (A) A   8 (A) B   18 (A) A   19 (A) B      0.0112
     7 (A) A             32 (A) A                 0.0093
     7 (A) A             36 (A) A                -0.0084
     3 (A) A             23 (A) A                 0.0084
     8 (A) A   8 (A) B   25 (A) A   29 (A) B      0.0076
     6 (A) A             40 (A) A                -0.0068
     3 (A) A   6 (A) B    9 (A) A   28 (A) B     -0.0065
     6 (A) A   8 (A) A   19 (A) A   28 (A) A     -0.0060
     5 (A) A   7 (A) B    9 (A) A    9 (A) B     -0.0060
     5 (A) A   8 (A) B   11 (A) A   20 (A) B     -0.0060
     7 (A) A   8 (A) B   13 (A) A   20 (A) B      0.0059
     5 (A) A   8 (A) B   16 (A) A    9 (A) B      0.0059
     3 (A) A   5 (A) B    9 (A) A   25 (A) B     -0.0058
     5 (A) A   8 (A) B   11 (A) A    9 (A) B      0.0058
     6 (A) A   8 (A) A    9 (A) A   18 (A) A     -0.0057
     3 (A) A             40 (A) A                -0.0057
     7 (A) A   8 (A) B   22 (A) A   20 (A) B      0.0057
     8 (A) A   8 (A) B   19 (A) A   30 (A) B      0.0056
     4 (A) A   8 (A) B   12 (A) A   20 (A) B     -0.0054
    -----------------------------------------------------

  Density matrix analysis:
  ------------------------
  NOs
    Occupation of frontier NOs:
       0.9492   1.0220
    Number of electrons: 16.000000
    Number of unpaired electrons: n_u =  2.31402, n_u,nl =  2.03282
    NO participation ratio (PR_NO):  2.867263
  
  
  Mulliken Population Analysis
  Atom      Charge (e)              h+              e-           Del q
  --------------------------------------------------------------------
   1 H        0.057767        0.020152       -0.012588        0.007564
   2 C       -0.116753        0.490514       -0.505998       -0.015484
   3 H        0.057768        0.020240       -0.012624        0.007616
   4 C       -0.118475        0.491126       -0.505588       -0.014463
   5 H        0.059170        0.020070       -0.012636        0.007434
   6 H        0.060523        0.020114       -0.012782        0.007332
  --------------------------------------------------------------------
  Sum:        0.000000        1.062215       -1.062215        0.000000
  
  Multipole moment analysis of the density matrix
    Molecular charge:                      -0.000000
    Number of electrons:                   16.000000
      Center of electronic charge [Ang]: [ -1.560643,  -0.068019,   0.001936]
    Total nuclear charge:                  16.000000
      Center of nuclear charge [Ang]:    [ -1.560576,  -0.068102,   0.001978]
    Dipole moment [D]:                     0.008848
      Cartesian components [D]:          [  0.005121,  -0.006437,   0.003260]
    RMS size of the density [Ang]:         1.214178
      Cartesian components [Ang]:        [  0.804874,   0.786471,   0.455927]
  
  Exciton analysis of the difference density matrix
    <r_h> [Ang]:                  [ -1.560652,  -0.066502,   0.001465]
    <r_e> [Ang]:                  [ -1.560129,  -0.066455,   0.001372]
    |<r_e - r_h>| [Ang]:            0.000533
    Hole size [Ang]:                1.285420
      Cartesian components [Ang]: [  0.728714,   0.712210,   0.783606]
    Electron size [Ang]:            1.463301
      Cartesian components [Ang]: [  0.854096,   0.830662,   0.849571]

  Transition density matrix analysis:
  -----------------------------------
  
  CT numbers (Mulliken)
    omega =     0.9534
    <Phe> =    -0.1602
  
  Exciton analysis of the transition density matrix
    Trans. dipole moment [D]:             1.834330
      Cartesian components [D]:         [ -1.334491,   1.258483,   0.011143]
    <r_h> [Ang]:                        [ -1.560823,  -0.066010,   0.001596]
    <r_e> [Ang]:                        [ -1.560178,  -0.066554,   0.001281]
    |<r_e - r_h>| [Ang]:                  0.000901
    Hole size [Ang]:                      1.214240
      Cartesian components [Ang]:       [  0.649882,   0.636300,   0.804459]
    Electron size [Ang]:                  1.486013
      Cartesian components [Ang]:       [  0.864549,   0.839399,   0.869598]
    RMS electron-hole separation [Ang]:   1.936047
      Cartesian components [Ang]:       [  1.106085,   1.074806,   1.170318]
    Covariance(r_h, r_e) [Ang^2]:        -0.032830
    Correlation coefficient:             -0.018195
    Center-of-mass size [Ang]:            0.950915
      Cartesian components [Ang]:       [  0.528242,   0.515686,   0.599389]

  Decomposition into state-averaged NTOs
    H- 0 -> L+ 0:  0.6698 ( 89.7%)
    H- 2 -> L+ 5:  0.0839 (  1.4%)
                   omega =  95.3%
  ----------------------------------------------------------------------------


  Excited state 2 (singlet, A)                                     [converged]
  ----------------------------------------------------------------------------
  Term symbol:  3 (1) A                                     R^2 =  5.38095e-13

  Total energy:                                            -77.9863269134 a.u.
  Excitation energy:                                               9.068616 eV

  Osc. strength:                                                      0.000780
  Trans. dip. moment [a.u.]:           [   0.008903,   -0.001289,   -0.058545]
  <i|r^2|0> [a.u.]:                    [   0.119244,    0.079848,   -0.146620]
  Two-photon absorption cross-section (SoS) [a.u.]:                   5.559657
  Two-photon absorption matrix (SoS) [a.u.]:
                                       |    0.055077    0.061975   -0.575509 |
                                       |    0.061975    0.070543   -0.590216 |
                                       |   -0.575509   -0.590216   -0.122835 |
  Two-photon absorption cross-section [a.u.]:                         0.055056
  Two-photon absorption matrix [a.u.]:
                                       |    0.000529   -0.005523    0.078365 |
                                       |   -0.005523   -0.008884    0.024643 |
                                       |    0.078365    0.024643    0.011107 |

  Dip. moment [a.u.]:                  [   0.104953,    0.075866,    0.011752]
  Total dipole [Debye]:                                               0.330514
  <r^2> [a.u.]:                        [ 175.307291,   34.314326,   13.100512]
  Total <r^2> [a.u.]:                                               222.722129

  V1^2 = 0.9544, V2^2 = 0.0456

  Important amplitudes:
      occ i     occ j     vir a      vir b          v   
    -----------------------------------------------------
     7 (A) A              9 (A) A                -0.6568
     8 (A) A             11 (A) A                -0.1545
     8 (A) A             10 (A) A                 0.1211
     7 (A) A             20 (A) A                -0.0746
     5 (A) A   8 (A) B    9 (A) A    9 (A) B      0.0309
     8 (A) A             16 (A) A                -0.0277
     8 (A) A             21 (A) A                -0.0186
     5 (A) A             28 (A) A                 0.0147
     4 (A) A   7 (A) B    9 (A) A   19 (A) B      0.0133
     5 (A) A   7 (A) B    9 (A) A   16 (A) B      0.0130
     7 (A) A   8 (A) B   20 (A) A   17 (A) B      0.0103
     7 (A) A   8 (A) A    9 (A) A   28 (A) A     -0.0095
     5 (A) A   8 (A) B    9 (A) A   20 (A) B      0.0094
     4 (A) A   6 (A) B    9 (A) A   16 (A) B      0.0090
     5 (A) A   6 (A) A    9 (A) A   23 (A) A     -0.0090
     5 (A) A   6 (A) A    9 (A) A   14 (A) A     -0.0087
     5 (A) A   6 (A) B    9 (A) A   19 (A) B      0.0084
     4 (A) A   5 (A) A    9 (A) A   10 (A) A     -0.0084
     8 (A) A   7 (A) B    9 (A) A   28 (A) B      0.0083
     8 (A) A             24 (A) A                 0.0083
     6 (A) A   7 (A) B    9 (A) A   18 (A) B      0.0081
     5 (A) A   6 (A) B    9 (A) A   23 (A) B     -0.0080
     3 (A) A   7 (A) B    9 (A) A   18 (A) B     -0.0077
     5 (A) A   7 (A) A    9 (A) A   16 (A) A      0.0077
     4 (A) A   8 (A) B    9 (A) A   25 (A) B     -0.0076
     7 (A) A   8 (A) B   17 (A) A   20 (A) B      0.0073
     4 (A) A   7 (A) B   19 (A) A    9 (A) B      0.0073
     7 (A) A   8 (A) B   19 (A) A   18 (A) B     -0.0070
     5 (A) A   5 (A) B    9 (A) A   13 (A) B      0.0070
     5 (A) A   8 (A) A    9 (A) A   20 (A) A      0.0067
     4 (A) A   5 (A) B    9 (A) A   18 (A) B      0.0065
     7 (A) A   7 (A) B   20 (A) A   22 (A) B     -0.0064
     7 (A) A   8 (A) B   17 (A) A    9 (A) B      0.0063
     8 (A) A             18 (A) A                -0.0063
     5 (A) A   6 (A) B    9 (A) A   14 (A) B     -0.0061
     4 (A) A   7 (A) B    9 (A) A   14 (A) B      0.0061
     4 (A) A   7 (A) A    9 (A) A   19 (A) A      0.0060
     4 (A) A   5 (A) B   10 (A) A    9 (A) B      0.0060
     5 (A) A   7 (A) B   11 (A) A   20 (A) B      0.0059
     5 (A) A             37 (A) A                 0.0058
    -----------------------------------------------------

  Density matrix analysis:
  ------------------------
  NOs
    Occupation of frontier NOs:
       0.9237   1.0869
    Number of electrons: 16.000000
    Number of unpaired electrons: n_u =  2.35586, n_u,nl =  2.08846
    NO participation ratio (PR_NO):  3.229125
  
  
  Mulliken Population Analysis
  Atom      Charge (e)              h+              e-           Del q
  --------------------------------------------------------------------
   1 H        0.162009        0.122397       -0.010590        0.111806
   2 C       -0.280551        0.274166       -0.453447       -0.179281
   3 H        0.120844        0.122790       -0.052099        0.070691
   4 C       -0.281751        0.270680       -0.448420       -0.177739
   5 H        0.152930        0.111449       -0.010255        0.101194
   6 H        0.126519        0.129407       -0.056078        0.073329
  --------------------------------------------------------------------
  Sum:        0.000000        1.030890       -1.030890        0.000000
  
  Multipole moment analysis of the density matrix
    Molecular charge:                      -0.000000
    Number of electrons:                   16.000000
      Center of electronic charge [Ang]: [ -1.564047,  -0.070611,   0.001589]
    Total nuclear charge:                  16.000000
      Center of nuclear charge [Ang]:    [ -1.560576,  -0.068102,   0.001978]
    Dipole moment [D]:                     0.330514
      Cartesian components [D]:          [  0.266763,   0.192833,   0.029870]
    RMS size of the density [Ang]:         1.202831
      Cartesian components [Ang]:        [  0.788635,   0.771736,   0.478832]
  
  Exciton analysis of the difference density matrix
    <r_h> [Ang]:                  [ -1.568939,  -0.089173,   0.000466]
    <r_e> [Ang]:                  [ -1.621240,  -0.129369,  -0.005004]
    |<r_e - r_h>| [Ang]:            0.066190
    Hole size [Ang]:                1.485149
      Cartesian components [Ang]: [  1.015615,   0.974041,   0.474803]
    Electron size [Ang]:            1.509007
      Cartesian components [Ang]: [  0.911544,   0.881754,   0.817741]

  Transition density matrix analysis:
  -----------------------------------
  
  CT numbers (Mulliken)
    omega =     0.9219
    <Phe> =    -0.0118
  
  Exciton analysis of the transition density matrix
    Trans. dipole moment [D]:             0.075277
      Cartesian components [D]:         [  0.011314,  -0.001638,  -0.074404]
    <r_h> [Ang]:                        [ -1.566368,  -0.088630,   0.000760]
    <r_e> [Ang]:                        [ -1.626133,  -0.131757,  -0.005526]
    |<r_e - r_h>| [Ang]:                  0.073968
    Hole size [Ang]:                      1.504405
      Cartesian components [Ang]:       [  1.033904,   0.989682,   0.463471]
    Electron size [Ang]:                  1.508083
      Cartesian components [Ang]:       [  0.904964,   0.875254,   0.830232]
    RMS electron-hole separation [Ang]:   2.113165
      Cartesian components [Ang]:       [  1.360122,   1.308782,   0.950066]
    Covariance(r_h, r_e) [Ang^2]:         0.038777
    Correlation coefficient:              0.017092
    Center-of-mass size [Ang]:            1.074139
      Cartesian components [Ang]:       [  0.694527,   0.667089,   0.475814]

  Decomposition into state-averaged NTOs
    H- 1 -> L+ 0: -0.6493 ( 84.3%)
    H- 0 -> L+ 2: -0.1502 (  4.5%)
    H- 0 -> L+ 1: -0.1246 (  3.1%)
                   omega =  92.2%
  ----------------------------------------------------------------------------


  Excited state 3 (singlet, A)                                     [converged]
  ----------------------------------------------------------------------------
  Term symbol:  4 (1) A                                     R^2 =  3.40281e-13

  Total energy:                                            -77.9839522174 a.u.
  Excitation energy:                                               9.133235 eV

  Osc. strength:                                                      0.023291
  Trans. dip. moment [a.u.]:           [  -0.012014,   -0.021678,    0.321676]
  <i|r^2|0> [a.u.]:                    [  -0.055759,    0.005570,   -0.027422]
  Two-photon absorption cross-section (SoS) [a.u.]:                   0.025858
  Two-photon absorption matrix (SoS) [a.u.]:
                                       |    0.017174   -0.002196    0.028971 |
                                       |   -0.002196   -0.027617    0.042635 |
                                       |    0.028971    0.042635   -0.002102 |
  Two-photon absorption cross-section [a.u.]:                         0.173722
  Two-photon absorption matrix [a.u.]:
                                       |    0.002993   -0.008184    0.087962 |
                                       |   -0.008184   -0.034795    0.114508 |
                                       |    0.087962    0.114508    0.015821 |

  Dip. moment [a.u.]:                  [   0.073289,    0.001532,    0.002155]
  Total dipole [Debye]:                                               0.186402
  <r^2> [a.u.]:                        [ 181.076298,   40.286283,   11.091934]
  Total <r^2> [a.u.]:                                               232.454515

  V1^2 = 0.9586, V2^2 = 0.0414

  Important amplitudes:
      occ i     occ j     vir a      vir b          v   
    -----------------------------------------------------
     8 (A) A             10 (A) A                -0.6781
     7 (A) A              9 (A) A                -0.1211
     8 (A) A             24 (A) A                -0.0499
     8 (A) A             18 (A) A                 0.0311
     4 (A) A              9 (A) A                 0.0240
     8 (A) A   8 (A) B    9 (A) A   12 (A) B      0.0215
     8 (A) A             15 (A) A                -0.0180
     8 (A) A   8 (A) B   10 (A) A   17 (A) B     -0.0169
     5 (A) A   8 (A) B   11 (A) A   10 (A) B     -0.0162
     7 (A) A   8 (A) B   13 (A) A   10 (A) B      0.0138
     7 (A) A             20 (A) A                -0.0135
     8 (A) A             11 (A) A                -0.0117
     4 (A) A   8 (A) B   12 (A) A   10 (A) B     -0.0109
     7 (A) A   8 (A) B   22 (A) A   10 (A) B      0.0106
     6 (A) A   8 (A) A   10 (A) A   15 (A) A      0.0106
     4 (A) A   8 (A) A   10 (A) A   12 (A) A      0.0105
     6 (A) A   8 (A) B   15 (A) A   10 (A) B     -0.0104
     7 (A) A   8 (A) A   10 (A) A   22 (A) A     -0.0097
     7 (A) A   8 (A) A   10 (A) A   13 (A) A     -0.0095
     5 (A) A   8 (A) B   21 (A) A   10 (A) B     -0.0092
     5 (A) A   8 (A) A   10 (A) A   11 (A) A      0.0091
     6 (A) A   8 (A) A   10 (A) A   18 (A) A      0.0089
     6 (A) A   8 (A) B   10 (A) A   10 (A) B      0.0086
     7 (A) A   8 (A) A   12 (A) A   16 (A) A     -0.0080
     3 (A) A   4 (A) B   10 (A) A    9 (A) B     -0.0078
     5 (A) A   8 (A) A   10 (A) A   21 (A) A      0.0077
     4 (A) A   8 (A) B   19 (A) A   10 (A) B     -0.0074
     8 (A) A   8 (A) B    9 (A) A   23 (A) B      0.0073
     8 (A) A   8 (A) B   10 (A) A   28 (A) B      0.0072
     3 (A) A   8 (A) B   10 (A) A   10 (A) B     -0.0071
     5 (A) A   8 (A) B   10 (A) A   11 (A) B     -0.0071
     3 (A) A   8 (A) A   10 (A) A   24 (A) A      0.0070
     7 (A) A   8 (A) B   16 (A) A   12 (A) B      0.0069
     8 (A) A   8 (A) B    9 (A) A   19 (A) B      0.0069
     6 (A) A   8 (A) B   18 (A) A   10 (A) B     -0.0068
     3 (A) A   8 (A) B   10 (A) A   18 (A) B      0.0067
     3 (A) A   6 (A) B   10 (A) A   28 (A) B      0.0061
     5 (A) A   8 (A) B    9 (A) A    9 (A) B      0.0058
     7 (A) A   8 (A) B   12 (A) A   11 (A) B      0.0057
     6 (A) A             28 (A) A                -0.0057
    -----------------------------------------------------

  Density matrix analysis:
  ------------------------
  NOs
    Occupation of frontier NOs:
       0.9545   1.0115
    Number of electrons: 16.000000
    Number of unpaired electrons: n_u =  2.32517, n_u,nl =  2.04112
    NO participation ratio (PR_NO):  2.845345
  
  
  Mulliken Population Analysis
  Atom      Charge (e)              h+              e-           Del q
  --------------------------------------------------------------------
   1 H       -0.140971        0.058125       -0.249299       -0.191174
   2 C        0.298358        0.508915       -0.109288        0.399627
   3 H       -0.147910        0.054657       -0.252719       -0.198062
   4 C        0.298430        0.516610       -0.114168        0.402442
   5 H       -0.150053        0.057408       -0.259198       -0.201789
   6 H       -0.157853        0.054332       -0.265376       -0.211044
  --------------------------------------------------------------------
  Sum:       -0.000000        1.250048       -1.250048        0.000000
  
  Multipole moment analysis of the density matrix
    Molecular charge:                      0.000000
    Number of electrons:                   16.000000
      Center of electronic charge [Ang]: [ -1.563000,  -0.068153,   0.001907]
    Total nuclear charge:                  16.000000
      Center of nuclear charge [Ang]:    [ -1.560576,  -0.068102,   0.001978]
    Dipole moment [D]:                     0.186402
      Cartesian components [D]:          [  0.186281,   0.003893,   0.005479]
    RMS size of the density [Ang]:         1.273087
      Cartesian components [Ang]:        [  0.852167,   0.836921,   0.440596]
  
  Exciton analysis of the difference density matrix
    <r_h> [Ang]:                  [ -1.560409,  -0.062284,   0.001998]
    <r_e> [Ang]:                  [ -1.590137,  -0.063965,   0.001549]
    |<r_e - r_h>| [Ang]:            0.029778
    Hole size [Ang]:                1.420689
      Cartesian components [Ang]: [  0.843612,   0.828401,   0.787672]
    Electron size [Ang]:            2.075682
      Cartesian components [Ang]: [  1.372065,   1.374717,   0.732153]

  Transition density matrix analysis:
  -----------------------------------
  
  CT numbers (Mulliken)
    omega =     0.9257
    <Phe> =    -0.0112
  
  Exciton analysis of the transition density matrix
    Trans. dipole moment [D]:             0.410021
      Cartesian components [D]:         [ -0.015268,  -0.027549,   0.408809]
    <r_h> [Ang]:                        [ -1.554908,  -0.060236,   0.002095]
    <r_e> [Ang]:                        [ -1.597730,  -0.061893,   0.001552]
    |<r_e - r_h>| [Ang]:                  0.042858
    Hole size [Ang]:                      1.223910
      Cartesian components [Ang]:       [  0.652939,   0.640168,   0.813517]
    Electron size [Ang]:                  2.265310
      Cartesian components [Ang]:       [  1.495995,   1.500693,   0.800967]
    RMS electron-hole separation [Ang]:   2.564875
      Cartesian components [Ang]:       [  1.624958,   1.624303,   1.140058]
    Covariance(r_h, r_e) [Ang^2]:         0.026419
    Correlation coefficient:              0.009529
    Center-of-mass size [Ang]:            1.292519
      Cartesian components [Ang]:       [  0.820061,   0.819365,   0.571617]

  Decomposition into state-averaged NTOs
    H- 0 -> L+ 1:  0.6682 ( 89.3%)
    H- 1 -> L+ 0: -0.1197 (  2.9%)
                   omega =  92.6%
  ----------------------------------------------------------------------------


  Excited state 4 (singlet, A)                                     [converged]
  ----------------------------------------------------------------------------
  Term symbol:  5 (1) A                                     R^2 =  3.21209e-13

  Total energy:                                            -77.9587442430 a.u.
  Excitation energy:                                               9.819178 eV

  Osc. strength:                                                      0.000093
  Trans. dip. moment [a.u.]:           [   0.003423,   -0.001036,   -0.019330]
  <i|r^2|0> [a.u.]:                    [   0.004898,   -0.020920,    0.036059]
  Two-photon absorption cross-section (SoS) [a.u.]:                 146.448097
  Two-photon absorption matrix (SoS) [a.u.]:
                                       |   -0.287680   -0.318021    2.924602 |
                                       |   -0.318021   -0.351431    3.056816 |
                                       |    2.924602    3.056816    0.639254 |
  Two-photon absorption cross-section [a.u.]:                        91.144184
  Two-photon absorption matrix [a.u.]:
                                       |   -0.235209   -0.251831    2.329212 |
                                       |   -0.251831   -0.268000    2.390381 |
                                       |    2.329212    2.390381    0.503751 |

  Dip. moment [a.u.]:                  [  -0.122233,   -0.160043,   -0.016815]
  Total dipole [Debye]:                                               0.513642
  <r^2> [a.u.]:                        [ 180.565810,   40.467642,   10.793393]
  Total <r^2> [a.u.]:                                               231.826844

  V1^2 = 0.9634, V2^2 = 0.0366

  Important amplitudes:
      occ i     occ j     vir a      vir b          v   
    -----------------------------------------------------
     8 (A) A             11 (A) A                 0.6684
     7 (A) A              9 (A) A                -0.1560
     8 (A) A             21 (A) A                 0.0775
     8 (A) A             16 (A) A                 0.0637
     8 (A) A   8 (A) B    9 (A) A   13 (A) B     -0.0166
     8 (A) A             10 (A) A                 0.0163
     5 (A) A   8 (A) B   11 (A) A   11 (A) B      0.0156
     7 (A) A             20 (A) A                -0.0144
     8 (A) A   8 (A) B   11 (A) A   17 (A) B      0.0140
     7 (A) A   8 (A) B   13 (A) A   11 (A) B     -0.0127
     4 (A) A   8 (A) B   12 (A) A   11 (A) B      0.0111
     5 (A) A   8 (A) A   11 (A) A   21 (A) A     -0.0110
     8 (A) A   8 (A) B    9 (A) A   22 (A) B     -0.0106
     7 (A) A   8 (A) A   11 (A) A   22 (A) A      0.0096
     6 (A) A   8 (A) B   10 (A) A   11 (A) B     -0.0090
     6 (A) A   8 (A) B   15 (A) A   11 (A) B      0.0089
     7 (A) A   8 (A) B   22 (A) A   11 (A) B     -0.0089
     3 (A) A   4 (A) B   11 (A) A    9 (A) B      0.0083
     3 (A) A   8 (A) B   11 (A) A   18 (A) B     -0.0081
     6 (A) A   8 (A) A   11 (A) A   15 (A) A     -0.0079
     7 (A) A   8 (A) A   13 (A) A   16 (A) A      0.0078
     7 (A) A   8 (A) A   11 (A) A   13 (A) A      0.0077
     5 (A) A   8 (A) B   21 (A) A   11 (A) B      0.0071
     4 (A) A   8 (A) B   19 (A) A   11 (A) B      0.0070
     5 (A) A   8 (A) B    9 (A) A    9 (A) B      0.0070
     6 (A) A   8 (A) A   11 (A) A   18 (A) A     -0.0064
     4 (A) A   8 (A) A   11 (A) A   12 (A) A     -0.0063
     6 (A) A   8 (A) B   18 (A) A   11 (A) B      0.0062
     3 (A) A   6 (A) B   11 (A) A   28 (A) B     -0.0060
     7 (A) A   8 (A) B   16 (A) A   13 (A) B     -0.0057
     5 (A) A   8 (A) B   10 (A) A   10 (A) B      0.0056
     3 (A) A   8 (A) A   11 (A) A   18 (A) A     -0.0056
     3 (A) A   8 (A) B   11 (A) A   30 (A) B     -0.0055
     3 (A) A   5 (A) B   11 (A) A   25 (A) B     -0.0054
     6 (A) A   8 (A) B   11 (A) A   10 (A) B     -0.0054
     7 (A) A   8 (A) B   12 (A) A   10 (A) B     -0.0054
     8 (A) A   8 (A) B   20 (A) A   22 (A) B     -0.0053
     3 (A) A   8 (A) A   11 (A) A   24 (A) A     -0.0053
     5 (A) A   8 (A) A   11 (A) A   16 (A) A     -0.0050
     6 (A) A   8 (A) A   10 (A) A   16 (A) A      0.0048
    -----------------------------------------------------

  Density matrix analysis:
  ------------------------
  NOs
    Occupation of frontier NOs:
       0.9372   1.0313
    Number of electrons: 16.000000
    Number of unpaired electrons: n_u =  2.32017, n_u,nl =  2.05174
    NO participation ratio (PR_NO):  2.936721
  
  
  Mulliken Population Analysis
  Atom      Charge (e)              h+              e-           Del q
  --------------------------------------------------------------------
   1 H       -0.166549        0.047757       -0.264509       -0.216752
   2 C        0.271996        0.494135       -0.120869        0.373266
   3 H       -0.102101        0.046679       -0.198932       -0.152253
   4 C        0.272332        0.496122       -0.119778        0.376344
   5 H       -0.158967        0.046838       -0.257542       -0.210703
   6 H       -0.116711        0.047100       -0.217002       -0.169902
  --------------------------------------------------------------------
  Sum:        0.000000        1.178632       -1.178632        0.000000
  
  Multipole moment analysis of the density matrix
    Molecular charge:                      0.000000
    Number of electrons:                   16.000000
      Center of electronic charge [Ang]: [ -1.556534,  -0.062809,   0.002534]
    Total nuclear charge:                  16.000000
      Center of nuclear charge [Ang]:    [ -1.560576,  -0.068102,   0.001978]
    Dipole moment [D]:                     0.513642
      Cartesian components [D]:          [ -0.310685,  -0.406788,  -0.042740]
    RMS size of the density [Ang]:         1.276963
      Cartesian components [Ang]:        [  0.858736,   0.839232,   0.434623]
  
  Exciton analysis of the difference density matrix
    <r_h> [Ang]:                  [ -1.557081,  -0.062640,   0.002077]
    <r_e> [Ang]:                  [ -1.500825,   0.008120,   0.010118]
    |<r_e - r_h>| [Ang]:            0.090754
    Hole size [Ang]:                1.396625
      Cartesian components [Ang]: [  0.823199,   0.805454,   0.790032]
    Electron size [Ang]:            2.122649
      Cartesian components [Ang]: [  1.438594,   1.404441,   0.680903]

  Transition density matrix analysis:
  -----------------------------------
  
  CT numbers (Mulliken)
    omega =     0.9296
    <Phe> =    -0.0135
  
  Exciton analysis of the transition density matrix
    Trans. dipole moment [D]:             0.024983
      Cartesian components [D]:         [  0.004351,  -0.001316,  -0.024566]
    <r_h> [Ang]:                        [ -1.560495,  -0.067237,   0.001438]
    <r_e> [Ang]:                        [ -1.489411,   0.022289,   0.011663]
    |<r_e - r_h>| [Ang]:                  0.114771
    Hole size [Ang]:                      1.229262
      Cartesian components [Ang]:       [  0.664012,   0.647740,   0.806601]
    Electron size [Ang]:                  2.259039
      Cartesian components [Ang]:       [  1.531607,   1.494821,   0.723148]
    RMS electron-hole separation [Ang]:   2.563727
      Cartesian components [Ang]:       [  1.662263,   1.623855,   1.082899]
    Covariance(r_h, r_e) [Ang^2]:         0.027409
    Correlation coefficient:              0.009870
    Center-of-mass size [Ang]:            1.291236
      Cartesian components [Ang]:       [  0.838958,   0.818417,   0.541879]

  Decomposition into state-averaged NTOs
    H- 0 -> L+ 2:  0.6634 ( 88.0%)
    H- 1 -> L+ 0: -0.1539 (  4.7%)
                   omega =  93.0%
  ----------------------------------------------------------------------------


  Excited state 5 (singlet, A)                                     [converged]
  ----------------------------------------------------------------------------
  Term symbol:  6 (1) A                                     R^2 =  2.30955e-13

  Total energy:                                            -77.9454195389 a.u.
  Excitation energy:                                              10.181762 eV

  Osc. strength:                                                      0.000000
  Trans. dip. moment [a.u.]:           [  -0.000096,   -0.000569,    0.001164]
  <i|r^2|0> [a.u.]:                    [   0.086715,   -0.107833,    0.021089]
  Two-photon absorption cross-section (SoS) [a.u.]:                 134.996295
  Two-photon absorption matrix (SoS) [a.u.]:
                                       |    0.283341    0.034952   -2.932503 |
                                       |    0.034952   -0.330846    2.859495 |
[...]
    16   -1.419481987851e-03
    17   -1.737368937446e-03
    18   -8.406345772572e-05
    19   -2.918584806515e-03
    20    1.262940247351e-02
    21    9.530925162116e-01
    22   -2.434173456829e-04
    23    1.413019513317e-02
    24    8.405736203611e-04
    25    7.140872852579e-02
    26   -5.403150368565e-02
    27   -1.402693023342e+00
    28    1.052133246379e-01
    29   -8.726716629910e-02
    30   -8.264292341650e-04
    31    3.903533305081e-01
    32   -3.341825633602e-01
    33   -3.734436134225e-03
    34    1.507533180883e-02
    35   -1.332582617423e-03
    36   -1.813061987292e-03
    37    8.814414592171e-04
    38   -3.630424578518e-03
    39    1.156709282373e-02
    40    9.087725721811e-01
    41    1.119931766347e-03
    42   -1.385090805442e-02
    43   -7.945140279177e-04
    44    1.529746639735e-02
    45    9.538497918694e-01
    46    1.403706505180e-02
    47    4.378021128191e-04
    48    6.428065880932e-04
Sym=X
Ene= 0.232135
Spin=Alpha
Occup=0
     1    2.555210558390e-02
     2    1.231171113242e+00
     3   -1.470434221355e-02
     4   -3.708788736612e-03
     5   -9.131997635333e-04
     6    3.562214930776e-03
     7   -2.645616542328e-03
     8   -8.262073639125e-02
     9   -1.564586944608e-01
    10   -1.544718912869e-01
    11   -1.666623167138e-02
    12   -5.506989692127e-01
    13   -5.440390817076e-01
    14   -5.879396737984e-02
    15    9.156781277716e-04
    16   -1.302657808720e-04
    17   -4.444155081414e-05
    18   -7.407032748658e-04
    19   -4.457453736524e-04
    20   -2.466868825898e-02
    21   -1.128642808017e+00
    22   -2.546536518357e-03
    23   -1.317644705207e-02
    24   -9.171452110392e-04
    25    2.695545094288e-04
    26   -3.062837730689e-04
    27   -2.174559140325e-02
    28   -1.504009110656e-01
    29   -1.638378987152e-01
    30   -1.651149249186e-02
    31   -5.324109771799e-01
    32   -5.985062688357e-01
    33   -5.944305678040e-02
    34   -4.437853441725e-05
    35   -3.351905434647e-05
    36   -5.831747414252e-05
    37    3.640973492423e-04
    38    2.543435460384e-05
    39    2.365975733140e-02
    40    1.214954257830e+00
    41   -2.911496432188e-03
    42   -1.424457083596e-02
    43   -9.764692822100e-04
    44   -2.603034981435e-02
    45   -1.185838546919e+00
    46   -1.361318605696e-02
    47   -3.606516804916e-03
    48   -8.279369523363e-04
Sym=X
Ene= 0.239901
Spin=Alpha
Occup=0
     1   -1.666850666280e-02
     2   -1.093816310490e+00
     3    1.728007625589e-02
     4    9.157171538750e-03
     5    1.371685103889e-03
     6   -8.704831545700e-02
     7    7.927146612866e-02
     8    1.620040158181e+00
     9    5.790051897999e-02
    10   -5.852704027992e-02
    11   -4.647400071237e-04
    12    2.307121247973e-01
    13   -2.117307833821e-01
    14   -3.878202550975e-04
    15   -2.282586637515e-02
    16    2.696853676198e-03
    17    2.948830304536e-03
    18    1.341081595538e-06
    19    1.327458665357e-02
    20   -1.602120655160e-02
    21   -1.101569234250e+00
    22   -8.585166675142e-03
    23   -1.747204958825e-02
    24   -1.421406399976e-03
    25    8.651517735599e-02
    26   -8.008306040593e-02
    27   -1.587189213873e+00
    28    5.500464455688e-02
    29   -5.817471486637e-02
    30   -1.484638956088e-03
    31    1.915251036114e-01
    32   -2.279934418597e-01
    33   -6.923962123660e-03
    34    2.214575840343e-02
    35   -2.443900468637e-03
    36   -3.058616956464e-03
    37    2.040064886308e-03
    38   -1.318430923378e-02
    39    1.872466761772e-02
    40    1.126757279563e+00
    41   -7.701140421440e-03
    42   -1.813174202976e-02
    43   -1.474717249139e-03
    44    1.729633812024e-02
    45    1.028469763988e+00
    46    1.575268877903e-02
    47    9.013388228787e-03
    48    1.224462780645e-03
Sym=X
Ene= 0.303048
Spin=Alpha
Occup=0
     1    1.960388212302e-02
     2   -1.688317883525e+00
     3    2.225243389559e-02
     4   -4.271554173810e-04
     5    1.048304433458e-03
     6    1.420831503163e-03
     7    3.934603979083e-04
     8   -5.885757831141e-02
     9    1.336561748928e-01
    10    1.429233354864e-01
    11    1.482311947726e-02
    12    1.158705038617e+00
    13    1.188991321542e+00
    14    1.249274720283e-01
    15    9.629689607570e-04
    16    1.512163144782e-03
    17   -1.865198876413e-03
    18    3.148783575435e-02
    19    1.095904794845e-03
    20   -1.966556906785e-02
    21    1.721252347186e+00
    22   -1.127741060846e-03
    23    2.320570383824e-02
    24    1.302769074505e-03
    25   -1.384035860808e-03
    26   -2.334807320064e-04
    27    3.452336963920e-02
    28   -1.318818126137e-01
    29   -1.391510488080e-01
    30   -1.427269312187e-02
    31   -1.113765125847e+00
    32   -1.223012578908e+00
    33   -1.240015599074e-01
    34   -6.266910326185e-04
    35    1.534233065542e-03
    36   -1.811596609798e-03
    37    3.149937912451e-02
    38    2.007116108960e-03
    39   -2.223547491128e-02
    40    1.672985525957e+00
    41    9.852185825039e-04
    42   -2.209421124935e-02
    43   -1.270057440516e-03
    44    1.874387868504e-02
    45   -1.679292683247e+00
    46   -2.293105050841e-02
    47   -5.597466957500e-04
    48   -1.076355941376e-03
Sym=X
Ene= 0.459724
Spin=Alpha
Occup=0
     1   -1.112189972281e-01
     2   -7.054280885212e-01
     3   -1.613173041544e-02
     4   -9.477191024098e-03
     5   -1.321723566874e-03
     6    5.993673021130e-02
     7    1.724702941998e-02
     8   -3.556563799183e+00
     9    1.061414209754e-01
    10   -1.027503258610e-01
    11   -1.140058047823e-03
    12    2.388767244865e+00
    13   -2.269830906837e+00
    14   -2.028728471233e-02
    15    5.244119767120e-02
    16   -3.219347308034e-03
    17   -4.441093450484e-03
    18   -2.130803826943e-03
    19    1.936315237006e-02
    20   -1.116694007441e-01
    21   -7.025922009981e-01
    22    8.117641070782e-03
    23    1.590595790294e-02
    24    1.339510510453e-03
    25   -5.970326943650e-02
    26   -2.058068537916e-02
    27    3.568580585909e+00
    28    1.037758454672e-01
    29   -9.438502104008e-02
    30   -1.308486885508e-03
    31    2.400872862170e+00
    32   -2.278076157284e+00
    33   -2.267719807184e-02
    34   -5.574678140927e-02
    35    3.575067558555e-03
    36    4.882097499088e-03
    37    6.632093144350e-04
    38   -1.630433272549e-02
    39    1.235804872518e-01
    40    7.037355399180e-01
    41    1.009318787522e-02
    42    1.694885335560e-02
    43    1.443391268453e-03
    44    1.357572440704e-01
    45    6.587693424236e-01
    46   -1.627780676822e-02
    47   -9.286117786111e-03
    48   -1.314147446445e-03
Sym=X
Ene= 0.575582
Spin=Alpha
Occup=0
     1    2.476272466645e-01
     2    6.556485838596e-02
     3   -1.774873206170e-02
     4    2.779324009250e-02
     5    8.079484287117e-04
     6   -6.133871156972e-03
     7   -1.510805289702e-01
     8   -3.444008422708e-01
     9    2.912108561947e-01
    10   -2.784158040813e-01
    11   -2.739892123628e-03
    12   -7.985568946643e-01
    13    7.676372408354e-01
    14    8.161670404766e-03
    15   -9.493915567295e-03
    16    4.207708769754e-03
    17    4.095769417576e-03
    18   -4.204261381427e-03
    19    6.097645860416e-02
    20    2.695381193584e-01
    21    5.406576536637e-02
    22   -2.585205835715e-02
    23    1.416650764273e-02
    24   -3.823038202001e-04
    25   -2.631175777339e-03
    26   -1.493507773208e-01
    27   -5.162043138786e-01
    28   -3.032852361638e-01
    29    2.786368970447e-01
    30    2.167287358946e-03
    31    6.795025725601e-01
    32   -6.298712843546e-01
    33   -6.219722080456e-03
    34   -9.613276241518e-03
    35    4.438839396714e-03
    36    3.882196863180e-03
    37    3.024236655076e-05
    38    6.172897179584e-02
    39    2.468360816702e-01
    40    2.164157531441e-02
    41    2.704784620225e-02
    42   -1.584807540807e-02
    43    2.822520645619e-04
    44    2.771589172902e-01
    45   -2.304089584356e-02
    46    1.513597796465e-02
    47   -2.446272098539e-02
    48   -7.774064259124e-04
Sym=X
Ene= 0.619278
Spin=Alpha
Occup=0
     1    5.334056195372e-01
     2   -2.039014401809e-01
     3    6.218317408041e-02
     4   -3.646452285783e-02
     5    7.802530428670e-04
     6    4.068714256406e-04
     7    4.892143818174e-03
     8   -5.038390474125e-02
     9    3.962057705558e-02
    10    3.803333642496e-02
    11    4.037577758456e-03
    12   -3.031569837095e-01
    13   -3.071823342078e-01
    14   -3.280336999333e-02
    15   -1.222864405473e-03
    16    7.930831654860e-03
    17   -8.309854529925e-03
    18    1.521785587753e-01
    19    9.911941994018e-03
    20   -5.103754653515e-01
    21    2.008786388211e-01
    22   -4.297812727130e-02
    23    6.034992827686e-02
    24    1.505331794532e-03
    25    1.402718995070e-03
    26    7.650907634242e-03
    27   -2.856195705976e-02
    28    2.811592767803e-02
    29    4.040062758746e-02
    30    3.747802043966e-03
    31   -2.249548552865e-01
    32   -3.254139481790e-01
    33   -2.933177987127e-02
    34   -2.519366850144e-03
    35   -7.010622846179e-03
    36    8.990778746209e-03
    37   -1.494297731419e-01
    38   -9.068160691920e-03
    39    5.304527286365e-01
    40   -1.914382456852e-01
    41   -4.087220936299e-02
    42    6.046514947711e-02
    43    1.774590381546e-03
    44   -4.960789056998e-01
    45    2.204728918358e-01
    46    6.221092173822e-02
    47   -4.176320543983e-02
    48    3.485405575986e-04
Sym=X
Ene= 0.689144
Spin=Alpha
Occup=0
     1    9.756717797223e-04
     2   -3.311688932719e-05
     3    1.164313206028e-03
     4    1.387975729275e-03
     5   -2.098972716589e-02
     6    6.324293961431e-05
     7    6.160238178290e-04
     8    1.874745510624e-04
     9    3.131642049607e-02
    10    4.005680186766e-02
    11   -6.698833323291e-01
    12   -2.999327531315e-02
    13   -3.549477942319e-02
    14    6.128363062313e-01
    15   -1.542971241245e-03
    16    8.287925934169e-02
    17   -7.850257928922e-02
    18   -8.468507499670e-03
    19   -9.891616579636e-04
    20    9.402515511159e-04
    21    3.680773769103e-04
    22    9.155221009916e-04
    23    1.085454417916e-03
    24   -2.094186819320e-02
    25    9.820389208093e-06
    26    1.067037688725e-03
    27   -1.132868622012e-03
    28    3.124903944130e-02
    29    3.940113480956e-02
    30   -6.710265959055e-01
    31   -2.979616810156e-02
    32   -3.470616791299e-02
    33    6.136408916348e-01
    34    1.019246291050e-03
    35   -8.225864482564e-02
    36    7.820423794319e-02
    37    8.550148589187e-03
    38    1.185254430089e-03
    39    9.546610691374e-05
    40   -9.586439869927e-04
    41    9.421867371509e-04
    42    1.488055391126e-03
    43   -2.106302267955e-02
    44    2.319549775235e-04
    45   -1.386611873628e-03
    46    6.094981977968e-04
    47    1.083267310474e-03
    48   -1.907203086454e-02
Sym=X
Ene= 0.706124
Spin=Alpha
Occup=0
     1   -4.493678317613e-01
     2    1.217517058355e-01
     3   -7.685008450834e-02
     4   -4.293271409476e-02
     5   -6.250382921933e-03
     6   -4.466642932266e-02
     7   -3.235228948069e-01
     8    3.745375359928e-01
     9    2.094109079251e-01
    10   -2.035208681695e-01
    11   -3.144827994089e-03
    12   -4.494352933788e-02
    13    4.012189232943e-02
    14    4.448863856344e-04
    15    1.904127946078e-01
    16   -1.959591946352e-02
    17   -2.350404479110e-02
    18    7.214173948481e-03
    19   -7.255228015145e-02
    20   -4.659253098854e-01
    21    1.343189487755e-01
    22    3.873745357501e-02
    23    8.200791676535e-02
    24    6.604598033434e-03
    25   -4.949493795530e-02
    26   -3.138003025657e-01
    27    5.310399234467e-01
    28   -2.162122685585e-01
    29    1.943048917612e-01
    30    3.995220798456e-04
    31    1.644667221913e-01
    32   -1.491087791825e-01
    33    1.006140574463e-03
    34    1.949195987981e-01
    35   -2.041539270501e-02
    36   -2.386647195145e-02
    37    1.878145467359e-03
    38   -7.976517440791e-02
    39   -4.669102362752e-01
    40    1.730264626379e-01
    41   -3.924207058954e-02
    42   -8.279804876175e-02
    43   -6.691995663546e-03
    44   -4.937054910649e-01
    45    2.064157183566e-01
    46    8.204491894409e-02
    47    4.492524935978e-02
    48    6.470206558905e-03
Sym=X
Ene= 0.783829
Spin=Alpha
Occup=0
     1   -5.491567951695e-01
     2    5.022753432470e-01
     3   -1.151206715943e-01
     4   -2.763065118363e-02
     5   -7.123373508444e-03
     6   -9.258973726878e-02
     7    2.036260178098e-01
     8    7.497388818040e-01
     9   -9.993579038671e-02
    10    1.073486204528e-01
    11   -4.366501823495e-04
    12   -3.702011520511e-01
    13    3.302668929569e-01
    14    5.717604655304e-03
    15    2.097383516783e-01
    16   -1.855687071527e-02
    17   -2.205935907780e-02
    18   -5.019183885743e-03
    19   -1.563962908393e-02
    20   -5.427526394042e-01
    21    4.743734123193e-01
    22    2.280152971526e-02
    23    1.104065350085e-01
    24    7.582933182407e-03
    25    8.994394231421e-02
    26   -2.288347739180e-01
    27   -6.775199751096e-01
    28   -1.041934578395e-01
    29    1.074106660260e-01
    30    3.023207104378e-03
    31   -3.917455444632e-01
    32    3.494199968613e-01
    33   -1.159719717644e-03
    34   -2.003136130889e-01
    35    1.663500481550e-02
    36    2.161012592437e-02
    37   -1.223174960796e-03
    38    1.507635397892e-02
    39    5.174412890458e-01
    40   -4.863046767841e-01
    41    1.778487368565e-02
    42    1.107903343966e-01
    43    7.389095104012e-03
    44    5.261656670639e-01
    45   -5.176137853863e-01
    46   -1.097523029392e-01
    47   -2.796494356107e-02
    48   -6.682768639745e-03
Sym=X
Ene= 0.808020
Spin=Alpha
Occup=0
     1   -1.189380932243e-03
     2    8.443800393096e-04
     3   -1.866013709386e-03
     4   -1.941592632224e-03
     5    3.384815540708e-02
     6   -2.382651706574e-04
     7    8.370078457592e-04
     8    3.913022334127e-04
     9   -3.679428455101e-02
    10   -4.480441267464e-02
    11    7.635921456212e-01
    12    5.302639515111e-02
    13    6.756247271215e-02
    14   -1.127287034775e+00
    15   -3.594105290366e-04
    16    6.530918578704e-02
    17   -6.194125553710e-02
    18   -6.611847980016e-03
    19   -7.692157842276e-04
    20   -1.159816081814e-03
    21    1.820643422121e-03
    22   -1.616024156609e-03
    23   -1.682512029941e-03
    24    3.453483010032e-02
    25    2.017162286823e-04
    26   -1.232825992172e-04
    27   -6.434349180963e-04
    28    3.470022968754e-02
    29    4.538806678825e-02
    30   -7.628982968405e-01
    31   -5.283846006967e-02
    32   -6.553011345216e-02
    33    1.126656331437e+00
    34   -1.701776234635e-03
    35    6.540141811627e-02
    36   -6.195958808711e-02
    37   -6.856277411100e-03
    38   -1.020352812463e-03
    39    1.165740135337e-03
    40   -2.034560980278e-03
    41    1.524104939790e-03
    42    2.571289924093e-03
    43   -3.407296664057e-02
    44    1.133481385808e-03
    45   -1.151286645365e-03
    46    1.105256764656e-03
    47    2.100988653697e-03
    48   -3.385693704516e-02
Sym=X
Ene= 0.861950
Spin=Alpha
Occup=0
     1   -7.406327583623e-04
     2   -1.086168796569e+00
     3    1.452144398331e-01
     4    5.725543629973e-02
     5    1.019441402623e-02
     6   -8.422811379037e-04
     7    1.383890484817e-02
     8   -1.129917484362e-02
     9   -4.103633615846e-01
    10   -4.196871139128e-01
    11   -4.458858256409e-02
    12    9.630941822118e-01
    13    9.848344758869e-01
    14    1.046200896093e-01
    15    1.092816604526e-03
    16    1.148317063878e-02
    17   -1.339153019250e-02
    18    2.330472457035e-01
    19    1.284837883431e-02
    20   -6.736874893069e-03
    21    1.087690937289e+00
    22    5.085582158370e-02
    23    1.507678211231e-01
    24    1.137496452519e-02
    25    2.184006999814e-03
    26    9.958377159657e-03
    27   -1.538349165806e-03
    28   -4.158559062757e-01
    29   -4.326079196034e-01
    30   -4.444795153822e-02
    31    9.521006463925e-01
    32    1.016901175087e+00
    33    1.033159506582e-01
    34   -6.948603474072e-03
    35   -1.115550182402e-02
    36    1.360843780689e-02
    37   -2.300944450142e-01
    38   -1.885476957194e-02
    39    2.208407243864e-02
    40   -1.104479618604e+00
    41    5.094200202760e-02
    42    1.527613780875e-01
    43    1.153378887767e-02
    44   -9.050374494577e-03
    45    1.102372806599e+00
    46    1.467798040515e-01
    47    6.392343108820e-02
    48    1.042290768537e-02
Sym=X
Ene= 0.934960
Spin=Alpha
Occup=0
     1   -1.131441139805e-01
     2    1.263900358994e+00
     3   -1.803069469313e-01
     4    7.505893188456e-03
     5   -8.230804386844e-03
     6   -9.804802863024e-04
     7    9.313899820697e-03
     8   -5.202243255576e-02
     9    4.575413856031e-01
    10    5.197169776743e-01
    11    5.233439371852e-02
    12   -1.415173648271e+00
    13   -1.608794147095e+00
    14   -1.618701006033e-01
    15    7.817547175325e-04
    16   -5.631503262108e-03
    17    7.248787249658e-03
    18   -1.209649614617e-01
    19    8.187859902141e-03
    20    1.204382678299e-01
    21   -1.331682141949e+00
    22    8.593261668969e-03
    23   -1.848776030567e-01
    24   -1.041023106948e-02
    25    1.863849994502e-03
    26    3.267308907176e-02
    27   -7.271536998708e-03
    28   -4.929131099722e-01
    29   -4.745120168112e-01
    30   -5.087528419647e-02
    31    1.522001233502e+00
    32    1.482129430982e+00
    33    1.581630926450e-01
    34   -3.175420963189e-03
    35   -6.200383062438e-03
    36    5.648870018708e-03
    37   -1.098170388938e-01
    38   -2.718334010532e-02
    39    1.080760993756e-01
    40   -1.213471878868e+00
    41   -1.775270166640e-02
    42    1.720003074407e-01
    43    9.317114985607e-03
    44   -1.181511513137e-01
    45    1.319898604450e+00
    46    1.854044966854e-01
    47    7.684208501693e-03
    48    8.990778076476e-03
Sym=X
Ene= 0.970951
Spin=Alpha
Occup=0
     1   -5.462552915195e-02
     2    9.438515516996e-01
     3   -8.983729541122e-02
     4   -9.582644442544e-02
     5   -9.910912729536e-03
     6    2.558488187108e-02
     7    1.969100613627e-01
     8    6.179307330621e-01
     9    4.963325366979e-01
    10   -4.295559545941e-01
    11   -1.631726508107e-03
    12   -1.561321838895e+00
    13    1.301923340716e+00
    14    2.250148782385e-03
    15   -5.594084866230e-02
    16   -1.239316627460e-02
    17   -9.175824918587e-03
    18    1.261533760516e-02
    19   -2.976446116531e-01
    20   -6.546165396819e-02
    21    8.147743013031e-01
    22    9.292143989047e-02
    23    7.928509226710e-02
    24    9.045768220917e-03
    25   -2.650635105977e-02
    26   -2.748992413443e-01
    27   -4.890355133156e-01
    28    4.610614628334e-01
    29   -4.844161149925e-01
    30   -7.869737200621e-03
    31   -1.384939270960e+00
    32    1.517071463521e+00
    33    2.693008721582e-02
    34    6.066428902167e-02
    35    1.174747639511e-02
    36    1.009194985527e-02
    37   -2.797380631559e-02
    38    3.072228507837e-01
    39    5.708185517688e-02
    40   -1.011679156284e+00
    41    9.380556292905e-02
    42    1.053688087869e-01
    43    1.085349448942e-02
    44    6.185552928436e-02
    45   -8.293661400188e-01
    46   -7.585272860367e-02
    47   -1.011567302841e-01
    48   -9.233213693401e-03
[5D]

======= END OF MOLDEN-FORMATTED INPUT FILE =======


        *************************************************************
        *                                                           *
        *  Thank you very much for using Q-Chem.  Have a nice day.  *
        *                                                           *
        *************************************************************


