                  Welcome to Q-Chem
     A Quantum Leap Into The Future Of Chemistry


 Q-Chem 5.4 (devel), Q-Chem, Inc., Pleasanton, CA (2021)

 E. Epifanovsky,  A. T. B. Gilbert,  Xintian Feng,  Joonho Lee,  Yuezhi Mao,  
 N. Mardirossian,  P. Pokhilko,  A. White,  M. Wormit,  M. P. Coons,  
 A. L. Dempwolff,  Zhengting Gan,  D. Hait,  P. R. Horn,  L. D. Jacobson,  
 I. Kaliman,  J. Kussmann,  A. W. Lange,  Ka Un Lao,  D. S. Levine,  Jie Liu,  
 S. C. McKenzie,  A. F. Morrison,  K. Nanda,  F. Plasser,  D. R. Rehn,  
 M. L. Vidal,  Zhi-Qiang You,  Ying Zhu,  B. Alam,  B. Albrecht,  
 A. Aldossary,  E. Alguire,  J. H. Andersen,  D. Barton,  K. Begam,  A. Behn,  
 Y. A. Bernard,  E. J. Berquist,  H. Burton,  A. Carreras,  K. Carter-Fenk,  
 R. Chakraborty,  A. D. Chien,  K. D. Closser,  V. Cofer-Shabica,  
 S. Dasgupta,  Jia Deng,  M. de Wergifosse,  M. Diedenhofen,  Hainam Do,  
 S. Ehlert,  Po-Tung Fang,  S. Fatehi,  Qingguo Feng,  T. Friedhoff,  
 J. Gayvert,  Qinghui Ge,  G. Gidofalvi,  M. Goldey,  J. Gomes,  
 C. Gonzalez-Espinoza,  S. Gulania,  A. Gunina,  M. W. D. Hanson-Heine,  
 P. H. P. Harbach,  A. W. Hauser,  M. F. Herbst,  M. Hernandez Vera,  
 M. Hodecker,  Z. C. Holden,  S. Houck,  Xunkun Huang,  Kerwin Hui,  
 B. C. Huynh,  M. Ivanov,  Hyunjun Ji,  Hanjie Jiang,  B. Kaduk,  S. Kaehler,  
 K. Khistyaev,  Jaehoon Kim,  P. Klunzinger,  Z. Koczor-Benda,  
 Joong Hoon Koh,  D. Kosenkov,  L. Koulias,  T. Kowalczyk,  C. M. Krauter,  
 K. Kue,  A. Kunitsa,  T. Kus,  A. Landau,  K. V. Lawler,  D. Lefrancois,  
 S. Lehtola,  Rain Li,  Yi-Pei Li,  Jiashu Liang,  M. Liebenthal,  
 Hung-Hsuan Lin,  You-Sheng Lin,  Fenglai Liu,  Kuan-Yu Liu,  
 M. Loipersberger,  A. Luenser,  A. Manjanath,  P. Manohar,  E. Mansoor,  
 S. F. Manzer,  Shan-Ping Mao,  A. V. Marenich,  T. Markovich,  S. Mason,  
 S. A. Maurer,  P. F. McLaughlin,  M. F. S. J. Menger,  J.-M. Mewes,  
 S. A. Mewes,  P. Morgante,  J. W. Mullinax,  K. J. Oosterbaan,  G. Paran,  
 Alexander C. Paul,  Suranjan K. Paul,  F. Pavosevic,  Zheng Pei,  S. Prager,  
 E. I. Proynov,  E. Ramos,  B. Rana,  A. E. Rask,  A. Rettig,  R. M. Richard,  
 F. Rob,  E. Rossomme,  T. Scheele,  M. Scheurer,  M. Schneider,  
 N. Sergueev,  S. M. Sharada,  W. Skomorowski,  D. W. Small,  C. J. Stein,  
 Yu-Chuan Su,  E. J. Sundstrom,  Zhen Tao,  J. Thirman,  T. Tsuchimochi,  
 N. M. Tubman,  S. P. Veccham,  O. Vydrov,  J. Wenzel,  J. Witte,  A. Yamada,  
 Kun Yao,  S. Yeganeh,  S. R. Yost,  A. Zech,  Igor Ying Zhang,  Xing Zhang,  
 Yu Zhang,  D. Zuev,  A. Aspuru-Guzik,  A. T. Bell,  N. A. Besley,  
 K. B. Bravaya,  B. R. Brooks,  D. Casanova,  Jeng-Da Chai,  S. Coriani,  
 C. J. Cramer,  A. E. DePrince, III,  R. A. DiStasio Jr.,  A. Dreuw,  
 B. D. Dunietz,  T. R. Furlani,  W. A. Goddard III,  S. Grimme,  
 S. Hammes-Schiffer,  T. Head-Gordon,  W. J. Hehre,  Chao-Ping Hsu,  
 T.-C. Jagau,  Yousung Jung,  A. Klamt,  Jing Kong,  D. S. Lambrecht,  
 WanZhen Liang,  N. J. Mayhall,  C. W. McCurdy,  J. B. Neaton,  
 C. Ochsenfeld,  J. A. Parkhill,  R. Peverati,  V. A. Rassolov,  Yihan Shao,  
 L. V. Slipchenko,  T. Stauch,  R. P. Steele,  J. E. Subotnik,  
 A. J. W. Thom,  A. Tkatchenko,  D. G. Truhlar,  T. Van Voorhis,  
 T. A. Wesolowski,  K. B. Whaley,  H. L. Woodcock III,  P. M. Zimmerman,  
 S. Faraji,  P. M. W. Gill,  M. Head-Gordon,  J. M. Herbert,  A. I. Krylov

 Additional authors for Version 5.4.1: 
 S. Kotaru,  Shaozhi Li,  Xiangyuan Li,  F. Matz,  A. Molle,  Haisheng Ren,  
 Yingli Su,  Hung-Yi Tsai,  C. Utku,  Fang Wang

 Contributors to earlier versions of Q-Chem not listed above: 
 R. D. Adamson,  B. Austin,  R. Baer,  J. Baker,  G. J. O. Beran,  
 K. Brandhorst,  S. T. Brown,  E. F. C. Byrd,  A. K. Chakraborty,  
 G. K. L. Chan,  Chun-Min Chang,  Yunqing Chen,  C.-L. Cheng,  
 Siu Hung Chien,  D. M. Chipman,  D. L. Crittenden,  H. Dachsel,  
 R. J. Doerksen,  A. D. Dutoi,  R. G. Edgar,  J. Fosso-Tande,  
 L. Fusti-Molnar,  D. Ghosh,  A. Ghysels,  A. Golubeva-Zadorozhnaya,  
 J. Gonthier,  M. S. Gordon,  S. R. Gwaltney,  G. Hawkins,  J. E. Herr,  
 A. Heyden,  S. Hirata,  E. G. Hohenstein,  G. Kedziora,  F. J. Keil,  
 C. Kelley,  Jihan Kim,  R. A. King,  R. Z. Khaliullin,  P. P. Korambath,  
 W. Kurlancheek,  A. Laurent,  A. M. Lee,  M. S. Lee,  S. V. Levchenko,  
 Ching Yeh Lin,  D. Liotard,  E. Livshits,  R. C. Lochan,  I. Lotan,  
 L. A. Martinez-Martinez,  P. E. Maslen,  N. Nair,  D. P. O'Neill,  
 D. Neuhauser,  E. Neuscamman,  C. M. Oana,  R. Olivares-Amaya,  R. Olson,  
 T. M. Perrine,  B. Peters,  P. A. Pieniazek,  A. Prociuk,  Y. M. Rhee,  
 J. Ritchie,  M. A. Rohrdanz,  E. Rosta,  N. J. Russ,  H. F. Schaefer III,  
 M. W. Schmidt,  N. E. Schultz,  S. Sharma,  N. Shenvi,  C. D. Sherrill,  
 A. C. Simmonett,  A. Sodt,  T. Stein,  D. Stuck,  K. S. Thanthiriwatte,  
 V. Vanovschi,  L. Vogt,  Tao Wang,  A. Warshel,  M. A. Watson,  
 C. F. Williams,  Q. Wu,  X. Xu,  Jun Yang,  W. Zhang,  Yan Zhao

 Please cite Q-Chem as follows:
 Y. Shao et al., Mol. Phys. 113, 184-215 (2015)
 DOI: 10.1080/00268976.2014.952696

 Q-Chem 5.4.1 for Intel X86 EM64T Linux

 Parts of Q-Chem use Armadillo 9.800.1 (Horizon Scraper).
 http://arma.sourceforge.net/

 Q-Chem begins on Thu Nov 17 00:22:07 2022  

 Host: cpu316.baobab
0

     Scratch files written to /scratch/fum/qchem15129//
 Processing $rem in /home/share/wesolowski/qc5.aug2021.FDE/config/preferences:
 Processing $rem in /home/fum/.qchemrc:

 Checking the input file for inconsistencies... 	...done.

--------------------------------------------------------------
User input:
--------------------------------------------------------------
$comment
generated from CCJob.Templates
$end

$rem
sym_ignore = true
method = adc(2)
ee_states = 10
basis = cc-pVDZ
mem_static = 1024
mem_total = 30000
adc_davidson_maxiter = 900
adc_davidson_conv = 6
adc_print = 3
adc_prop_es = true
adc_prop_es2es = true
adc_prop_tpa = true
molden_format = True
state_analysis = true
print_orbitals = 15
gen_scfman = false
fde_export_density = true
fde_details = 3
$end

$molecule
0 1
H -0.0348278765 -0.2442097827 0.0636489606
C -1.0765972949 -0.5242748755 -0.0023551776
H -1.313264467 -1.5717591607 -0.0757276926
C -2.043634118 0.3926884087 0.0061254933
H -1.8137616575 1.4459188338 0.0804456828
H -3.085977293 0.114931858 -0.0593381042                     
$end
--------------------------------------------------------------
 ----------------------------------------------------------------
             Standard Nuclear Orientation (Angstroms)
    I     Atom           X                Y                Z
 ----------------------------------------------------------------
    1      H      -0.0348278765    -0.2442097827     0.0636489606
    2      C      -1.0765972949    -0.5242748755    -0.0023551776
    3      H      -1.3132644670    -1.5717591607    -0.0757276926
    4      C      -2.0436341180     0.3926884087     0.0061254933
    5      H      -1.8137616575     1.4459188338     0.0804456828
    6      H      -3.0859772930     0.1149318580    -0.0593381042
 ----------------------------------------------------------------
 Nuclear Repulsion Energy =          33.44143719 hartrees
 There are        8 alpha and        8 beta electrons
 Requested basis set is cc-pVDZ
 There are 24 shells and 48 basis functions
 Total memory of 30000 MB is distributed as follows: 
   MEM_STATIC is set to 1024 MB
   QALLOC/CCMAN JOB total memory use is  28976 MB
 Warning: actual memory use might exceed 30000 MB

 Total QAlloc Memory Limit  30000 MB
 Mega-Array Size      1001 MB
 MEM_STATIC part      1024 MB

                       Distance Matrix (Angstroms)
             H (  1)   C (  2)   H (  3)   C (  4)   H (  5)
   C (  2)  1.080776
   H (  3)  1.848300  1.076391
   C (  4)  2.108139  1.332687  2.097426
   H (  5)  2.453859  2.105215  3.062886  1.080583
   H (  6)  3.074674  2.109370  2.446979  1.080700  1.846510

 A cutoff of  1.0D-11 yielded    300 shell pairs
 There are      1220 function pairs (      1329 Cartesian)
 Smallest overlap matrix eigenvalue = 4.80E-03

 Scale SEOQF with 1.000000e-01/1.000000e-01/1.000000e+00

 Standard Electronic Orientation quadrupole field applied
 Nucleus-field energy     =     0.0000000022 hartrees
 Guess from superposition of atomic densities
 Warning:  Energy on first SCF cycle will be non-variational
 SAD guess density has 16.000000 electrons
 A restricted Hartree-Fock SCF calculation will be
 performed using Pulay DIIS extrapolation
 SCF converges when DIIS error is below 1.0E-08
 using 8 threads for integral computing
 -------------------------------------------------------
 OpenMP Integral computing Module                
 Release: version 1.0, May 2013, Q-Chem Inc. Pittsburgh 
 -------------------------------------------------------
 ---------------------------------------
  Cycle       Energy         DIIS Error
 ---------------------------------------
    1     -78.4423439564      1.01E-01
    2     -78.0176350259      7.22E-03
    3     -78.0382819457      1.85E-03
    4     -78.0397655136      5.73E-04
    5     -78.0398873827      5.80E-05
    6     -78.0398892612      9.29E-06
    7     -78.0398893218      2.20E-06
    8     -78.0398893247      8.07E-07
    9     -78.0398893249      1.16E-07
   10     -78.0398893249      2.34E-08
   11     -78.0398893249      6.82E-09 Convergence criterion met
 ---------------------------------------
 SCF time:  CPU 1.94 s  wall 2.16 s
 SCF   energy in the final basis set = -78.03988932
 Total energy in the final basis set = -78.03988932
Exporting Density Matrix to file 'Densmat_SCF.txt'.
Export successful
================================================================================
|                                                                              |
|                                 A D C  M A N                                 |
|                                                                              |
 ------------------------------------------------------------------------------ 
|                                                                              |
| Components:                                                                  |
|                                                                              |
| - libvmm - 1.3-trunk                                                         |
|   Authors:                                                                   |
|   Evgeny Epifanovsky, Ilya Kaliman                                           |
|                                                                              |
| - libtensor - 2.5-trunk                                                      |
|   Authors:                                                                   |
|   Evgeny Epifanovsky, Michael Wormit, Dmitry Zuev, Sam Manzer,               |
|   Ilya Kaliman                                                               |
|                                                                              |
| - libwfa - 1.1-trunk                                                         |
|   Authors:                                                                   |
|   Felix Plasser, Stefanie Mewes (Baeppler), Benjamin Thomitzni,              |
|   Michael Wormit, Feng Chen, Anna I. Krylov, Pavel Pokhilko                  |
|                                                                              |
| - libadc - 1.1-trunk                                                         |
|   Authors:                                                                   |
|   Michael Wormit, Adrian L. Dempwolff, Philipp H. P. Harbach,                |
|   Caroline Krauter, Dirk Rehn, Matthias Schneider, Jan Wenzel                |
|                                                                              |
| - adcman - 2.6-trunk                                                         |
|   Authors:                                                                   |
|   Michael Wormit, Adrian L. Dempwolff, Philipp H. P. Harbach,                |
|   Caroline Krauter, Daniel Lefrancois, Jan-Michael Mewes, Dirk Rehn,         |
|   Matthias Schneider, Jan Wenzel, Andreas Dreuw                              |
|                                                                              |
| Authors of earlier versions of ADCMAN:                                       |
| Andreas Dreuw, Jan Hendrik Starcke, Dirk Rehn, Michael Wormit                |
|                                                                              |
================================================================================

 Created directory /scratch/fum/qchem15129/plots
  Import QC data ...  CPU 0.00 s  wall 0.00 s

 Alpha MOs, Restricted
 -- Occupied --                  
-11.235 -11.233  -1.032  -0.790  -0.642  -0.582  -0.505  -0.374
  1 A     2 A     3 A     4 A     5 A     6 A     7 A     8 A                  
 -- Virtual --                   
  0.168   0.204   0.233   0.240   0.303   0.462   0.577   0.615
  9 A    10 A    11 A    12 A    13 A    14 A    15 A    16 A                  
  0.689   0.709   0.785   0.808   0.863   0.937   0.973   1.010
 17 A    18 A    19 A    20 A    21 A    22 A    23 A    24 A                  
  1.130   1.235   1.255   1.266   1.294   1.602   1.727   1.751
 25 A    26 A    27 A    28 A    29 A    30 A    31 A    32 A                  
  1.820   1.860   1.868   1.923   1.977   1.979   2.222   2.258
 33 A    34 A    35 A    36 A    37 A    38 A    39 A    40 A                  
  2.377   2.456   2.508   2.635   2.725   2.825   3.143   3.402
 41 A    42 A    43 A    44 A    45 A    46 A    47 A    48 A                  

 Beta MOs, Restricted
 -- Occupied --                  
-11.235 -11.233  -1.032  -0.790  -0.642  -0.582  -0.505  -0.374
  1 A     2 A     3 A     4 A     5 A     6 A     7 A     8 A                  
 -- Virtual --                   
  0.168   0.204   0.233   0.240   0.303   0.462   0.577   0.615
  9 A    10 A    11 A    12 A    13 A    14 A    15 A    16 A                  
  0.689   0.709   0.785   0.808   0.863   0.937   0.973   1.010
 17 A    18 A    19 A    20 A    21 A    22 A    23 A    24 A                  
  1.130   1.235   1.255   1.266   1.294   1.602   1.727   1.751
 25 A    26 A    27 A    28 A    29 A    30 A    31 A    32 A                  
  1.820   1.860   1.868   1.923   1.977   1.979   2.222   2.258
 33 A    34 A    35 A    36 A    37 A    38 A    39 A    40 A                  
  2.377   2.456   2.508   2.635   2.725   2.825   3.143   3.402
 41 A    42 A    43 A    44 A    45 A    46 A    47 A    48 A                  
  Import AO data ...  CPU 0.00 s  wall 0.00 s
  Using point group: C1
  Irreducible representations in point group: A
  Molecular orbitals: 
  Occupied MOs:
  Block   0:   1 (  A) A   2 (  A) A   3 (  A) A   4 (  A) A   5 (  A) A
                  -11.23      -11.23      -1.032     -0.7902     -0.6416
               6 (  A) A   7 (  A) A   8 (  A) A
                  -0.582      -0.505      -0.374
  Block   1:   1 (  A) B   2 (  A) B   3 (  A) B   4 (  A) B   5 (  A) B
                  -11.23      -11.23      -1.032     -0.7902     -0.6416
               6 (  A) B   7 (  A) B   8 (  A) B
                  -0.582      -0.505      -0.374
  Virtual MOs:
  Block   0:   9 (  A) A  10 (  A) A  11 (  A) A  12 (  A) A  13 (  A) A
                  0.1684      0.2038      0.2331      0.2396      0.3033
              14 (  A) A  15 (  A) A  16 (  A) A  17 (  A) A  18 (  A) A
                  0.4621      0.5774      0.6155      0.6892      0.7094
              19 (  A) A  20 (  A) A  21 (  A) A  22 (  A) A
                  0.7853       0.808      0.8626      0.9366
  Block   1:  23 (  A) A  24 (  A) A  25 (  A) A  26 (  A) A  27 (  A) A
                  0.9727        1.01        1.13       1.235       1.255
              28 (  A) A  29 (  A) A  30 (  A) A  31 (  A) A  32 (  A) A
                   1.266       1.294       1.602       1.727       1.751
              33 (  A) A  34 (  A) A  35 (  A) A  36 (  A) A
                    1.82        1.86       1.868       1.923
  Block   2:  37 (  A) A  38 (  A) A  39 (  A) A  40 (  A) A  41 (  A) A
                   1.977       1.979       2.222       2.258       2.377
              42 (  A) A  43 (  A) A  44 (  A) A  45 (  A) A  46 (  A) A
                   2.456       2.508       2.635       2.725       2.825
              47 (  A) A  48 (  A) A
                   3.143       3.402
  Block   3:   9 (  A) B  10 (  A) B  11 (  A) B  12 (  A) B  13 (  A) B
                  0.1684      0.2038      0.2331      0.2396      0.3033
              14 (  A) B  15 (  A) B  16 (  A) B  17 (  A) B  18 (  A) B
                  0.4621      0.5774      0.6155      0.6892      0.7094
              19 (  A) B  20 (  A) B  21 (  A) B  22 (  A) B
                  0.7853       0.808      0.8626      0.9366
  Block   4:  23 (  A) B  24 (  A) B  25 (  A) B  26 (  A) B  27 (  A) B
                  0.9727        1.01        1.13       1.235       1.255
              28 (  A) B  29 (  A) B  30 (  A) B  31 (  A) B  32 (  A) B
                   1.266       1.294       1.602       1.727       1.751
              33 (  A) B  34 (  A) B  35 (  A) B  36 (  A) B
                    1.82        1.86       1.868       1.923
  Block   5:  37 (  A) B  38 (  A) B  39 (  A) B  40 (  A) B  41 (  A) B
                   1.977       1.979       2.222       2.258       2.377
              42 (  A) B  43 (  A) B  44 (  A) B  45 (  A) B  46 (  A) B
                   2.456       2.508       2.635       2.725       2.825
              47 (  A) B  48 (  A) B
                   3.143       3.402
  Import MO data ...  CPU 0.09 s  wall 0.02 s
  Import HF data ...  CPU 0.59 s  wall 0.16 s
  Import 2e integrals ...  CPU 0.71 s  wall 0.22 s

--------------------------------------------------------------------------------
                                   HF Summary                                   
--------------------------------------------------------------------------------
  Energy:                                                  -78.0398893249 a.u.
  Dip. moment [a.u.]:                  [  -0.000817,   -0.000195,    0.000323]
  Total dipole [Debye]:                                               0.002287
  <r^2> [a.u.]:                        [ 175.317458,   34.862015,   11.621400]
  Total <r^2> [a.u.]:                                               221.800874
--------------------------------------------------------------------------------
  HF properties ...  CPU 0.02 s  wall 0.07 s
  MP(1) calculation ...  CPU 0.01 s  wall 0.06 s
  N^6 prerequesite intermediates ...  CPU 0.45 s  wall 0.23 s
  Difference density matrix of state mp2_gs printed to ASCII file 'State_mp2_gs_Difference.txt'
Exporting MP density matrix to file 'Densmat_MP.txt'.
Export successful
  Total density matrix of state mp2_gs printed to ASCII file 'State_mp2_gs_Total.txt'
Exporting MP density matrix to file 'Densmat_MP.txt'.
Export successful

--------------------------------------------------------------------------------
                                 MP(2) Summary                                  
--------------------------------------------------------------------------------
  MP energy contribution:                                   -0.2796365633 a.u.
  Total energy:                                            -78.3195258882 a.u.
  Dip. moment [a.u.]:                  [  -0.000740,   -0.000215,    0.000321]
  Total dipole [Debye]:                                               0.002121
  <r^2> [a.u.]:                        [ 175.364728,   34.903354,   11.453582]
  Total <r^2> [a.u.]:                                               221.721664

  Density matrix analysis:
  ------------------------
  NOs
    Occupation of frontier NOs:
       0.0453   1.9383
    Number of electrons: 16.000000
    Number of unpaired electrons: n_u =  0.40310, n_u,nl =  0.04502
    NO participation ratio (PR_NO): 13.853320
  
  
  Mulliken Population Analysis
  Atom      Charge (e)              h+              e-           Del q
  --------------------------------------------------------------------
   1 H        0.050808        0.014039       -0.011188        0.002851
   2 C       -0.098367        0.092914       -0.098695       -0.005781
   3 H        0.049234        0.014146       -0.011168        0.002978
   4 C       -0.102198        0.093029       -0.098907       -0.005877
   5 H        0.050039        0.014120       -0.011183        0.002937
   6 H        0.050484        0.014081       -0.011188        0.002892
  --------------------------------------------------------------------
  Sum:        0.000000        0.242329       -0.242329       -0.000000
  
  Multipole moment analysis of the density matrix
    Molecular charge:                      0.000000
    Number of electrons:                   16.000000
      Center of electronic charge [Ang]: [ -1.560552,  -0.065283,   0.001968]
    Total nuclear charge:                  16.000000
      Center of nuclear charge [Ang]:    [ -1.560576,  -0.065290,   0.001978]
    Dipole moment [D]:                     0.002121
      Cartesian components [D]:          [ -0.001880,  -0.000546,   0.000816]
    RMS size of the density [Ang]:         1.200390
      Cartesian components [Ang]:        [  0.796162,   0.778851,   0.447721]
  
  Exciton analysis of the difference density matrix
    <r_h> [Ang]:                  [ -1.560653,  -0.064838,   0.001929]
    <r_e> [Ang]:                  [ -1.560820,  -0.064795,   0.001934]
    |<r_e - r_h>| [Ang]:            0.000173
    Hole size [Ang]:                1.393073
      Cartesian components [Ang]: [  0.846676,   0.833130,   0.727796]
    Electron size [Ang]:            1.359634
      Cartesian components [Ang]: [  0.878044,   0.861325,   0.579449]
--------------------------------------------------------------------------------
  MP(2) calculation ...  CPU 0.18 s  wall 0.13 s
  Start ADC(2)-s ...  CPU 0.01 s  wall 0.02 s
  ADC(2) intermediates ...  CPU 0.12 s  wall 0.02 s
  Starting Davidson for singlet states of irrep A ... 
--------------------------------------------------------------------------------
   It NVec Conv  Avg. Norm  Max. Norm  Conv. states           Remark
--------------------------------------------------------------------------------
        10    0  1.330e-01  4.687e-01  0.4120 n n n n n n n n Guess.
    1   20    0  2.304e-02  1.109e-01  0.3262 n n n n n n n n 
    2   30    0  5.823e-03  2.501e-02  0.3215 n n n n n n n n 
    3   40    0  1.917e-03  1.241e-02  0.3211 n n n n n n n n 
    4   50    0  6.131e-04  4.495e-03  0.3211 n n n n n n n n 
    5   20    0  2.818e-04  2.110e-03  0.3211 n n n n n n n n Subspace collapsed.
    6   30    0  1.697e-04  1.480e-03  0.3211 n n n n n n n n 
    7   40    0  1.017e-04  7.198e-04  0.3211 n n n n n n n n 
    8   50    0  8.853e-05  8.192e-04  0.3211 n n n n n n n n 
    9   20    2  6.035e-05  5.750e-04  0.3211 n y n y n n n n Subspace collapsed.
   10   30    5  7.629e-05  7.441e-04  0.3211 n y y y y y n n 
   11   40    5  7.593e-05  7.559e-04  0.3211 n y y y y y n n 
   12   50    6  6.569e-05  6.562e-04  0.3211 y y y y y y n n 
   13   20    6  3.047e-05  3.043e-04  0.3211 y y y y y y n n Subspace collapsed.
   14   30    6  2.272e-05  2.268e-04  0.3211 y y y y y y n n 
   15   40    6  1.372e-05  1.370e-04  0.3211 y y y y y y n n 
   16   50    6  1.258e-05  1.257e-04  0.3211 y y y y y y n n 
   17   20    8  6.397e-06  6.395e-05  0.3211 y y y y y y n y Subspace collapsed.
   18   30    7  1.151e-05  1.151e-04  0.3211 y y y y y y n y 
   19   40    8  1.060e-05  1.060e-04  0.3211 y y y y y y n y 
   20   50    9  1.113e-05  1.113e-04  0.3211 y y y y y y y y 
   21   20    9  3.998e-06  3.998e-05  0.3211 y y y y y y y y Subspace collapsed.
   22   30    9  3.078e-06  3.078e-05  0.3211 y y y y y y y y 
   23   38    9  1.523e-06  1.523e-05  0.3211 y y y y y y y y 
   24   46    9  1.698e-06  1.698e-05  0.3211 y y y y y y y y 
   25   50    9  1.703e-06  1.703e-05  0.3211 y y y y y y y y 
   26   16    9  7.802e-07  7.802e-06  0.3211 y y y y y y y y Subspace collapsed.
   27   21    9  1.846e-06  1.846e-05  0.3211 y y y y y y y y 
   28   25    9  1.773e-06  1.773e-05  0.3211 y y y y y y y y 
   29   29    9  1.666e-06  1.666e-05  0.3211 y y y y y y y y 
   30   33    9  7.690e-07  7.690e-06  0.3211 y y y y y y y y 
   31   37    9  3.275e-07  3.275e-06  0.3211 y y y y y y y y 
   32   41    9  1.441e-07  1.441e-06  0.3211 y y y y y y y y 
   33   45   10  6.217e-08  6.217e-07  0.3211 y y y y y y y y Converged.
--------------------------------------------------------------------------------
  Davidson Summary: 
 ------------------------------------------------------------
  State  0: excitation energy =   0.3211 a.u.   (converged)
  State  1: excitation energy =   0.3330 a.u.   (converged)
  State  2: excitation energy =   0.3372 a.u.   (converged)
  State  3: excitation energy =   0.3617 a.u.   (converged)
  State  4: excitation energy =   0.3754 a.u.   (converged)
  State  5: excitation energy =   0.3873 a.u.   (converged)
  State  6: excitation energy =   0.4251 a.u.   (converged)
  State  7: excitation energy =   0.4473 a.u.   (converged)
  State  8: excitation energy =   0.4565 a.u.   (converged)
  State  9: excitation energy =   0.4652 a.u.   (converged)
 ------------------------------------------------------------

  Singlet states of irrep A ...  CPU 82.60 s  wall 26.91 s
  TDMs ...  CPU 1.01 s  wall 0.34 s
  SDMs ...  CPU 3.01 s  wall 0.79 s
  Starting TPA DIIS iterations ... 
------------------------------------ 
   It     Res. Norm  Remark
------------------------------------
                       Guess.
    1     4.406e+00  
    2     5.842e+00  
    3     1.078e+00  
    4     2.570e-01  
    5     6.585e-02  
    6     2.679e-02  
    7     8.234e-03  
    8     1.443e-03  
    9     5.348e-04  
   10     8.978e-05  
   11     2.822e-05  
   12     4.365e-06  
   13     1.400e-06  
   14     4.258e-07  Converged.
   ... Converged in 14 steps (norm: 4.25815e-07)
------------------------------------
  Starting TPA DIIS iterations ... 
------------------------------------ 
   It     Res. Norm  Remark
------------------------------------
                       Guess.
    1     4.187e+00  
    2     5.543e+00  
    3     1.028e+00  
    4     2.543e-01  
    5     6.526e-02  
    6     2.652e-02  
    7     8.089e-03  
    8     1.434e-03  
    9     5.291e-04  
   10     8.886e-05  
   11     2.786e-05  
   12     4.268e-06  
   13     1.396e-06  
   14     4.157e-07  Converged.
   ... Converged in 14 steps (norm: 4.15658e-07)
------------------------------------
  Starting TPA DIIS iterations ... 
------------------------------------ 
   It     Res. Norm  Remark
------------------------------------
                       Guess.
    1     6.879e-01  
    2     4.833e-01  
    3     1.706e-01  
    4     5.976e-02  
    5     1.830e-02  
    6     6.628e-03  
    7     1.033e-03  
    8     4.459e-04  
    9     1.236e-04  
   10     2.937e-05  
   11     5.311e-06  
   12     1.536e-06  
   13     8.957e-07  Converged.
   ... Converged in 13 steps (norm: 8.95663e-07)
------------------------------------
  Starting TPA DIIS iterations ... 
------------------------------------ 
   It     Res. Norm  Remark
------------------------------------
                       Guess.
    1     4.701e+00  
    2     6.372e+00  
    3     1.161e+00  
    4     2.863e-01  
    5     7.440e-02  
    6     3.053e-02  
    7     9.367e-03  
    8     1.638e-03  
    9     6.121e-04  
   10     1.033e-04  
   11     3.281e-05  
   12     5.119e-06  
   13     1.653e-06  
   14     5.024e-07  Converged.
   ... Converged in 14 steps (norm: 5.02424e-07)
------------------------------------
  Starting TPA DIIS iterations ... 
------------------------------------ 
   It     Res. Norm  Remark
------------------------------------
                       Guess.
    1     4.466e+00  
    2     6.045e+00  
    3     1.107e+00  
    4     2.830e-01  
    5     7.375e-02  
    6     3.024e-02  
    7     9.203e-03  
    8     1.630e-03  
    9     6.054e-04  
   10     1.023e-04  
   11     3.238e-05  
   12     5.001e-06  
   13     1.648e-06  
   14     4.906e-07  Converged.
   ... Converged in 14 steps (norm: 4.90638e-07)
------------------------------------
  Starting TPA DIIS iterations ... 
------------------------------------ 
   It     Res. Norm  Remark
------------------------------------
                       Guess.
    1     7.002e-01  
    2     5.011e-01  
    3     1.808e-01  
    4     6.782e-02  
    5     1.974e-02  
    6     7.260e-03  
    7     1.170e-03  
    8     5.276e-04  
    9     1.501e-04  
   10     3.365e-05  
   11     6.049e-06  
   12     1.818e-06  
   13     1.130e-06  
   14     4.081e-07  Converged.
   ... Converged in 14 steps (norm: 4.08134e-07)
------------------------------------
  Starting TPA DIIS iterations ... 
------------------------------------ 
   It     Res. Norm  Remark
------------------------------------
                       Guess.
    1     4.811e+00  
    2     6.572e+00  
    3     1.192e+00  
    4     2.976e-01  
    5     7.769e-02  
    6     3.198e-02  
    7     9.802e-03  
    8     1.714e-03  
    9     6.420e-04  
   10     1.086e-04  
   11     3.461e-05  
   12     5.414e-06  
   13     1.753e-06  
   14     5.325e-07  Converged.
   ... Converged in 14 steps (norm: 5.32505e-07)
------------------------------------
  Starting TPA DIIS iterations ... 
------------------------------------ 
   It     Res. Norm  Remark
------------------------------------
                       Guess.
    1     4.570e+00  
    2     6.235e+00  
    3     1.136e+00  
    4     2.941e-01  
    5     7.702e-02  
    6     3.168e-02  
    7     9.632e-03  
    8     1.705e-03  
    9     6.349e-04  
   10     1.075e-04  
   11     3.414e-05  
   12     5.288e-06  
   13     1.748e-06  
   14     5.201e-07  Converged.
   ... Converged in 14 steps (norm: 5.20134e-07)
------------------------------------
  Starting TPA DIIS iterations ... 
------------------------------------ 
   It     Res. Norm  Remark
------------------------------------
                       Guess.
    1     7.046e-01  
    2     5.076e-01  
    3     1.845e-01  
    4     7.096e-02  
    5     2.028e-02  
    6     7.503e-03  
    7     1.224e-03  
    8     5.600e-04  
    9     1.606e-04  
   10     3.498e-05  
   11     6.329e-06  
   12     1.930e-06  
   13     1.227e-06  
   14     4.417e-07  Converged.
   ... Converged in 14 steps (norm: 4.4165e-07)
------------------------------------
  Starting TPA DIIS iterations ... 
------------------------------------ 
   It     Res. Norm  Remark
------------------------------------
                       Guess.
    1     5.557e+00  
    2     7.964e+00  
    3     1.401e+00  
    4     3.785e-01  
    5     1.013e-01  
    6     4.246e-02  
    7     1.293e-02  
    8     2.252e-03  
    9     8.583e-04  
   10     1.466e-04  
   11     4.789e-05  
   12     7.595e-06  
   13     2.510e-06  
   14     7.577e-07  Converged.
   ... Converged in 14 steps (norm: 7.57657e-07)
------------------------------------
  Starting TPA DIIS iterations ... 
------------------------------------ 
   It     Res. Norm  Remark
------------------------------------
                       Guess.
    1     5.277e+00  
    2     7.556e+00  
    3     1.335e+00  
    4     3.733e-01  
    5     1.004e-01  
    6     4.212e-02  
    7     1.271e-02  
    8     2.241e-03  
    9     8.482e-04  
   10     1.451e-04  
   11     4.714e-05  
   12     7.409e-06  
   13     2.498e-06  
   14     7.420e-07  Converged.
   ... Converged in 14 steps (norm: 7.41999e-07)
------------------------------------
  Starting TPA DIIS iterations ... 
------------------------------------ 
   It     Res. Norm  Remark
------------------------------------
                       Guess.
    1     7.317e-01  
    2     5.493e-01  
    3     2.092e-01  
    4     9.427e-02  
    5     2.385e-02  
    6     9.253e-03  
    7     1.625e-03  
    8     7.982e-04  
    9     2.363e-04  
   10     4.021e-05  
   11     8.325e-06  
   12     2.785e-06  
   13     2.024e-06  
   14     7.195e-07  Converged.
   ... Converged in 14 steps (norm: 7.1954e-07)
------------------------------------
  Starting TPA DIIS iterations ... 
------------------------------------ 
   It     Res. Norm  Remark
------------------------------------
                       Guess.
    1     6.065e+00  
    2     8.944e+00  
    3     1.542e+00  
    4     4.377e-01  
    5     1.185e-01  
    6     5.021e-02  
    7     1.522e-02  
    8     2.644e-03  
    9     1.018e-03  
   10     1.747e-04  
   11     5.791e-05  
   12     9.242e-06  
   13     3.096e-06  
   14     9.324e-07  Converged.
   ... Converged in 14 steps (norm: 9.32399e-07)
------------------------------------
  Starting TPA DIIS iterations ... 
------------------------------------ 
   It     Res. Norm  Remark
------------------------------------
                       Guess.
    1     5.758e+00  
    2     8.485e+00  
    3     1.470e+00  
    4     4.311e-01  
    5     1.176e-01  
    6     4.984e-02  
    7     1.497e-02  
    8     2.632e-03  
    9     1.006e-03  
   10     1.729e-04  
   11     5.694e-05  
   12     9.010e-06  
   13     3.077e-06  
   14     9.155e-07  Converged.
   ... Converged in 14 steps (norm: 9.15544e-07)
------------------------------------
  Starting TPA DIIS iterations ... 
------------------------------------ 
   It     Res. Norm  Remark
------------------------------------
                       Guess.
    1     7.478e-01  
    2     5.758e-01  
    3     2.254e-01  
    4     1.119e-01  
    5     2.631e-02  
    6     1.054e-02  
    7     1.934e-03  
    8     9.672e-04  
    9     2.892e-04  
   10     4.123e-05  
   11     9.813e-06  
   12     3.455e-06  
   13     2.705e-06  
   14     9.611e-07  Converged.
   ... Converged in 14 steps (norm: 9.61116e-07)
------------------------------------
  Starting TPA DIIS iterations ... 
------------------------------------ 
   It     Res. Norm  Remark
------------------------------------
                       Guess.
    1     6.563e+00  
    2     9.931e+00  
    3     1.680e+00  
    4     4.987e-01  
    5     1.363e-01  
    6     5.829e-02  
    7     1.758e-02  
    8     3.048e-03  
    9     1.184e-03  
   10     2.039e-04  
   11     6.844e-05  
   12     1.097e-05  
   13     3.720e-06  
   14     1.122e-06  
   15     3.828e-07  Converged.
   ... Converged in 15 steps (norm: 3.82835e-07)
------------------------------------
  Starting TPA DIIS iterations ... 
------------------------------------ 
   It     Res. Norm  Remark
------------------------------------
                       Guess.
    1     6.230e+00  
    2     9.421e+00  
    3     1.601e+00  
    4     4.907e-01  
    5     1.352e-01  
    6     5.790e-02  
    7     1.729e-02  
    8     3.034e-03  
    9     1.169e-03  
   10     2.018e-04  
   11     6.721e-05  
   12     1.069e-05  
   13     3.694e-06  
   14     1.105e-06  
   15     3.570e-07  Converged.
   ... Converged in 15 steps (norm: 3.57026e-07)
------------------------------------
  Starting TPA DIIS iterations ... 
------------------------------------ 
   It     Res. Norm  Remark
------------------------------------
                       Guess.
    1     7.623e-01  
    2     6.005e-01  
    3     2.408e-01  
    4     1.305e-01  
    5     2.879e-02  
    6     1.188e-02  
    7     2.266e-03  
    8     1.128e-03  
    9     3.401e-04  
   10     4.166e-05  
   11     1.140e-05  
   12     4.177e-06  
   13     3.479e-06  
   14     1.241e-06  
   15     4.672e-07  Converged.
   ... Converged in 15 steps (norm: 4.67192e-07)
------------------------------------
  Starting TPA DIIS iterations ... 
------------------------------------ 
   It     Res. Norm  Remark
------------------------------------
                       Guess.
    1     8.696e+00  
    2     1.440e+01  
    3     2.260e+00  
    4     7.879e-01  
    5     2.206e-01  
    6     9.733e-02  
    7     2.878e-02  
    8     4.951e-03  
    9     1.986e-03  
   10     3.444e-04  
   11     1.190e-04  
   12     1.934e-05  
   13     6.769e-06  
   14     2.159e-06  
   15     7.566e-07  Converged.
   ... Converged in 15 steps (norm: 7.56578e-07)
------------------------------------
  Starting TPA DIIS iterations ... 
------------------------------------ 
   It     Res. Norm  Remark
------------------------------------
                       Guess.
    1     8.251e+00  
    2     1.366e+01  
    3     2.152e+00  
    4     7.720e-01  
    5     2.191e-01  
    6     9.689e-02  
    7     2.832e-02  
    8     4.926e-03  
    9     1.957e-03  
   10     3.406e-04  
   11     1.164e-04  
   12     1.886e-05  
   13     6.696e-06  
   14     2.158e-06  
   15     6.746e-07  Converged.
   ... Converged in 15 steps (norm: 6.74624e-07)
------------------------------------
  Starting TPA DIIS iterations ... 
------------------------------------ 
   It     Res. Norm  Remark
------------------------------------
                       Guess.
    1     8.129e-01  
    2     6.952e-01  
    3     3.032e-01  
    4     2.203e-01  
    5     4.024e-02  
    6     1.816e-02  
    7     3.950e-03  
    8     1.644e-03  
    9     5.394e-04  
   10     5.176e-05  
   11     1.968e-05  
   12     7.841e-06  
   13     7.836e-06  
   14     2.916e-06  
   15     1.333e-06  
   16     7.302e-07  Converged.
   ... Converged in 16 steps (norm: 7.30238e-07)
------------------------------------
  Starting TPA DIIS iterations ... 
------------------------------------ 
   It     Res. Norm  Remark
------------------------------------
                       Guess.
    1     1.051e+01  
    2     1.849e+01  
    3     2.741e+00  
    4     1.062e+00  
    5     3.012e-01  
    6     1.356e-01  
    7     3.948e-02  
    8     6.760e-03  
    9     2.767e-03  
   10     4.799e-04  
   11     1.660e-04  
   12     2.750e-05  
   13     9.638e-06  
   14     3.355e-06  
   15     1.197e-06  
   16     4.648e-07  Converged.
   ... Converged in 16 steps (norm: 4.64777e-07)
------------------------------------
  Starting TPA DIIS iterations ... 
------------------------------------ 
   It     Res. Norm  Remark
------------------------------------
                       Guess.
    1     9.973e+00  
    2     1.753e+01  
    3     2.609e+00  
    4     1.038e+00  
    5     2.994e-01  
    6     1.351e-01  
    7     3.886e-02  
    8     6.723e-03  
    9     2.722e-03  
   10     4.745e-04  
   11     1.623e-04  
   12     2.690e-05  
   13     9.514e-06  
   14     3.391e-06  
   15     1.032e-06  
   16     5.531e-07  Converged.
   ... Converged in 16 steps (norm: 5.53103e-07)
------------------------------------
  Starting TPA DIIS iterations ... 
------------------------------------ 
   It     Res. Norm  Remark
------------------------------------
                       Guess.
    1     8.462e-01  
    2     7.659e-01  
    3     3.523e-01  
    4     3.019e-01  
    5     5.089e-02  
    6     2.382e-02  
    7     5.622e-03  
    8     1.850e-03  
    9     6.903e-04  
   10     7.138e-05  
   11     2.851e-05  
   12     1.157e-05  
   13     1.274e-05  
   14     4.931e-06  
   15     2.619e-06  
   16     1.332e-06  
   17     6.773e-07  Converged.
   ... Converged in 17 steps (norm: 6.77348e-07)
------------------------------------
  Starting TPA DIIS iterations ... 
------------------------------------ 
   It     Res. Norm  Remark
------------------------------------
                       Guess.
    1     1.145e+01  
    2     2.069e+01  
    3     2.986e+00  
    4     1.211e+00  
    5     3.456e-01  
    6     1.569e-01  
    7     4.537e-02  
    8     7.752e-03  
    9     3.201e-03  
   10     5.546e-04  
   11     1.911e-04  
   12     3.210e-05  
   13     1.123e-05  
   14     4.085e-06  
   15     1.498e-06  
   16     6.077e-07  Converged.
   ... Converged in 16 steps (norm: 6.07731e-07)
------------------------------------
  Starting TPA DIIS iterations ... 
------------------------------------ 
   It     Res. Norm  Remark
------------------------------------
                       Guess.
    1     1.086e+01  
    2     1.962e+01  
    3     2.841e+00  
    4     1.182e+00  
    5     3.435e-01  
    6     1.565e-01  
    7     4.466e-02  
    8     7.707e-03  
    9     3.148e-03  
   10     5.483e-04  
   11     1.869e-04  
   12     3.146e-05  
   13     1.107e-05  
   14     4.149e-06  
   15     1.278e-06  
   16     7.393e-07  Converged.
   ... Converged in 16 steps (norm: 7.39341e-07)
------------------------------------
  Starting TPA DIIS iterations ... 
------------------------------------ 
   It     Res. Norm  Remark
------------------------------------
                       Guess.
    1     8.610e-01  
    2     7.998e-01  
    3     3.764e-01  
    4     3.431e-01  
    5     5.662e-02  
    6     2.670e-02  
    7     6.536e-03  
    8     1.907e-03  
    9     7.642e-04  
   10     8.314e-05  
   11     3.366e-05  
   12     1.373e-05  
   13     1.575e-05  
   14     6.178e-06  
   15     3.461e-06  
   16     1.718e-06  
   17     9.242e-07  Converged.
   ... Converged in 17 steps (norm: 9.24183e-07)
------------------------------------
  Starting TPA DIIS iterations ... 
------------------------------------ 
   It     Res. Norm  Remark
------------------------------------
                       Guess.
    1     1.247e+01  
    2     2.313e+01  
    3     3.246e+00  
    4     1.377e+00  
    5     3.953e-01  
    6     1.810e-01  
    7     5.197e-02  
    8     8.863e-03  
    9     3.690e-03  
   10     6.384e-04  
   11     2.187e-04  
   12     3.737e-05  
   13     1.309e-05  
   14     4.957e-06  
   15     1.896e-06  
   16     7.907e-07  Converged.
   ... Converged in 16 steps (norm: 7.9067e-07)
------------------------------------
  Starting TPA DIIS iterations ... 
------------------------------------ 
   It     Res. Norm  Remark
------------------------------------
                       Guess.
    1     1.183e+01  
    2     2.194e+01  
    3     3.088e+00  
    4     1.342e+00  
    5     3.930e-01  
    6     1.806e-01  
    7     5.116e-02  
    8     8.807e-03  
    9     3.627e-03  
   10     6.309e-04  
   11     2.139e-04  
   12     3.669e-05  
   13     1.286e-05  
   14     5.059e-06  
   15     1.611e-06  
   16     9.828e-07  Converged.
   ... Converged in 16 steps (norm: 9.8285e-07)
------------------------------------
  Starting TPA DIIS iterations ... 
------------------------------------ 
   It     Res. Norm  Remark
------------------------------------
                       Guess.
    1     8.756e-01  
    2     8.348e-01  
    3     4.017e-01  
    4     3.856e-01  
    5     6.293e-02  
    6     2.969e-02  
    7     7.546e-03  
    8     1.951e-03  
    9     8.418e-04  
   10     9.631e-05  
   11     3.967e-05  
   12     1.633e-05  
   13     1.947e-05  
   14     7.681e-06  
   15     4.500e-06  
   16     2.187e-06  
   17     1.230e-06  
   18     3.993e-07  Converged.
   ... Converged in 18 steps (norm: 3.99346e-07)
------------------------------------
  Two-photon absorbption ...  CPU 86.12 s  wall 21.57 s
  Transition density matrix of state singlet_A_1 printed to ASCII file 'State_singlet_A_1_Transition.txt'
  Transition density matrix of state singlet_A_2 printed to ASCII file 'State_singlet_A_2_Transition.txt'
  Transition density matrix of state singlet_A_3 printed to ASCII file 'State_singlet_A_3_Transition.txt'
  Transition density matrix of state singlet_A_4 printed to ASCII file 'State_singlet_A_4_Transition.txt'
  Transition density matrix of state singlet_A_5 printed to ASCII file 'State_singlet_A_5_Transition.txt'
  Transition density matrix of state singlet_A_6 printed to ASCII file 'State_singlet_A_6_Transition.txt'
  Transition density matrix of state singlet_A_7 printed to ASCII file 'State_singlet_A_7_Transition.txt'
  Transition density matrix of state singlet_A_8 printed to ASCII file 'State_singlet_A_8_Transition.txt'
  Transition density matrix of state singlet_A_9 printed to ASCII file 'State_singlet_A_9_Transition.txt'
  Transition density matrix of state singlet_A_10 printed to ASCII file 'State_singlet_A_10_Transition.txt'
  Transition properties ...  CPU 0.13 s  wall 0.28 s
  Difference density matrix of state singlet_A_1 printed to ASCII file 'State_singlet_A_1_Difference.txt'
  Total density matrix of state singlet_A_1 printed to ASCII file 'State_singlet_A_1_Total.txt'
  Difference density matrix of state singlet_A_2 printed to ASCII file 'State_singlet_A_2_Difference.txt'
  Total density matrix of state singlet_A_2 printed to ASCII file 'State_singlet_A_2_Total.txt'
  Difference density matrix of state singlet_A_3 printed to ASCII file 'State_singlet_A_3_Difference.txt'
  Total density matrix of state singlet_A_3 printed to ASCII file 'State_singlet_A_3_Total.txt'
  Difference density matrix of state singlet_A_4 printed to ASCII file 'State_singlet_A_4_Difference.txt'
  Total density matrix of state singlet_A_4 printed to ASCII file 'State_singlet_A_4_Total.txt'
  Difference density matrix of state singlet_A_5 printed to ASCII file 'State_singlet_A_5_Difference.txt'
  Total density matrix of state singlet_A_5 printed to ASCII file 'State_singlet_A_5_Total.txt'
  Difference density matrix of state singlet_A_6 printed to ASCII file 'State_singlet_A_6_Difference.txt'
  Total density matrix of state singlet_A_6 printed to ASCII file 'State_singlet_A_6_Total.txt'
  Difference density matrix of state singlet_A_7 printed to ASCII file 'State_singlet_A_7_Difference.txt'
  Total density matrix of state singlet_A_7 printed to ASCII file 'State_singlet_A_7_Total.txt'
  Difference density matrix of state singlet_A_8 printed to ASCII file 'State_singlet_A_8_Difference.txt'
  Total density matrix of state singlet_A_8 printed to ASCII file 'State_singlet_A_8_Total.txt'
  Difference density matrix of state singlet_A_9 printed to ASCII file 'State_singlet_A_9_Difference.txt'
  Total density matrix of state singlet_A_9 printed to ASCII file 'State_singlet_A_9_Total.txt'
  Difference density matrix of state singlet_A_10 printed to ASCII file 'State_singlet_A_10_Difference.txt'
  Total density matrix of state singlet_A_10 printed to ASCII file 'State_singlet_A_10_Total.txt'
  Properties ...  CPU 0.24 s  wall 0.45 s
  ISR TDMS ...  CPU 17.40 s  wall 4.76 s
  ISR transition properties ...  CPU 0.19 s  wall 0.09 s
  Sum-over-states TPA ...  CPU 0.00 s  wall 0.00 s

--------------------------------------------------------------------------------
                   State-averaged natural transition orbitals
--------------------------------------------------------------------------------
--------------------------------------------------------------------------------
  SA-NTO decomposition ...  CPU 0.01 s  wall 0.02 s

--------------------------------------------------------------------------------
                             Excited State Summary
--------------------------------------------------------------------------------
--------------------------------------------------------------------------------

  Excited state 1 (singlet, A)                                     [converged]
  ----------------------------------------------------------------------------
  Term symbol:  2 (1) A                                     R^2 =  7.44875e-13

  Total energy:                                            -77.9984507044 a.u.
  Excitation energy:                                               8.736900 eV

  Osc. strength:                                                      0.445540
  Trans. dip. moment [a.u.]:           [   1.045999,   -0.993618,   -0.009194]
  <i|r^2|0> [a.u.]:                    [   6.167568,   -0.243502,    0.000078]
  Two-photon absorption cross-section (SoS) [a.u.]:                   0.000826
  Two-photon absorption matrix (SoS) [a.u.]:
                                       |    0.006143    0.004578    0.000318 |
                                       |    0.004578    0.007035    0.000898 |
                                       |    0.000318    0.000898   -0.000956 |
  Two-photon absorption cross-section [a.u.]:                         0.000284
  Two-photon absorption matrix [a.u.]:
                                       |   -0.001656    0.000890    0.000453 |
                                       |    0.000890   -0.004348    0.001476 |
                                       |    0.000453    0.001476   -0.002543 |

  Dip. moment [a.u.]:                  [  -0.000630,   -0.000347,    0.000409]
  Total dipole [Debye]:                                               0.002102
  <r^2> [a.u.]:                        [ 176.119221,   35.594142,   11.863351]
  Total <r^2> [a.u.]:                                               223.576714

  V1^2 = 0.9715, V2^2 = 0.0285

  Important amplitudes:
      occ i     occ j     vir a      vir b          v   
    -----------------------------------------------------
     8 (A) A              9 (A) A                 0.6811
     6 (A) A             14 (A) A                 0.0624
     4 (A) A             10 (A) A                 0.0605
     7 (A) A             16 (A) A                 0.0569
     5 (A) A             13 (A) A                 0.0512
     6 (A) A             23 (A) A                 0.0486
     8 (A) A             20 (A) A                 0.0350
     6 (A) A             19 (A) A                -0.0309
     3 (A) A             12 (A) A                -0.0280
     5 (A) A             22 (A) A                -0.0214
     7 (A) A             11 (A) A                -0.0210
     4 (A) A             24 (A) A                 0.0187
     3 (A) A             26 (A) A                -0.0185
     8 (A) A   8 (A) B   17 (A) A   20 (A) B     -0.0184
     8 (A) A   8 (A) B    9 (A) A   28 (A) B     -0.0168
     6 (A) A             26 (A) A                 0.0163
     7 (A) A             21 (A) A                 0.0147
     3 (A) A             14 (A) A                -0.0139
     6 (A) A             12 (A) A                -0.0131
     3 (A) A   4 (A) B    9 (A) A    9 (A) B     -0.0129
     3 (A) A             19 (A) A                 0.0119
     8 (A) A   8 (A) B   18 (A) A   19 (A) B     -0.0113
     7 (A) A             32 (A) A                 0.0096
     7 (A) A             36 (A) A                 0.0086
     3 (A) A             23 (A) A                -0.0080
     8 (A) A   8 (A) B   25 (A) A   29 (A) B      0.0076
     6 (A) A             35 (A) A                 0.0072
     6 (A) A             40 (A) A                 0.0068
     3 (A) A   6 (A) B    9 (A) A   28 (A) B      0.0065
     6 (A) A   8 (A) A   19 (A) A   28 (A) A     -0.0061
     5 (A) A   7 (A) B    9 (A) A    9 (A) B     -0.0060
     5 (A) A   8 (A) B   11 (A) A   20 (A) B      0.0059
     7 (A) A   8 (A) B   13 (A) A   20 (A) B     -0.0059
     5 (A) A   8 (A) B   16 (A) A    9 (A) B     -0.0059
     5 (A) A   8 (A) B   11 (A) A    9 (A) B     -0.0058
     3 (A) A   5 (A) B    9 (A) A   25 (A) B     -0.0058
     3 (A) A             40 (A) A                -0.0057
     7 (A) A   8 (A) B   22 (A) A   20 (A) B      0.0057
     6 (A) A   8 (A) A    9 (A) A   18 (A) A      0.0057
     8 (A) A   8 (A) B   19 (A) A   30 (A) B     -0.0056
    -----------------------------------------------------

  Density matrix analysis:
  ------------------------
  NOs
    Occupation of frontier NOs:
       0.9496   1.0217
    Number of electrons: 16.000000
    Number of unpaired electrons: n_u =  2.31310, n_u,nl =  2.03258
    NO participation ratio (PR_NO):  2.863007
  
  
  Mulliken Population Analysis
  Atom      Charge (e)              h+              e-           Del q
  --------------------------------------------------------------------
   1 H        0.058576        0.020309       -0.012541        0.007768
   2 C       -0.113489        0.490892       -0.506014       -0.015122
   3 H        0.056737        0.020123       -0.012620        0.007503
   4 C       -0.117777        0.490744       -0.506322       -0.015579
   5 H        0.057667        0.020178       -0.012550        0.007628
   6 H        0.058286        0.020324       -0.012522        0.007802
  --------------------------------------------------------------------
  Sum:        0.000000        1.062570       -1.062570        0.000000
  
  Multipole moment analysis of the density matrix
    Molecular charge:                      0.000000
    Number of electrons:                   16.000000
      Center of electronic charge [Ang]: [ -1.560555,  -0.065278,   0.001965]
    Total nuclear charge:                  16.000000
      Center of nuclear charge [Ang]:    [ -1.560576,  -0.065290,   0.001978]
    Dipole moment [D]:                     0.002102
      Cartesian components [D]:          [ -0.001600,  -0.000882,   0.001039]
    RMS size of the density [Ang]:         1.213834
      Cartesian components [Ang]:        [  0.804405,   0.786575,   0.455660]
  
  Exciton analysis of the difference density matrix
    <r_h> [Ang]:                  [ -1.560238,  -0.065667,   0.001774]
    <r_e> [Ang]:                  [ -1.560292,  -0.065602,   0.001731]
    |<r_e - r_h>| [Ang]:            0.000096
    Hole size [Ang]:                1.285297
      Cartesian components [Ang]: [  0.728484,   0.712334,   0.783505]
    Electron size [Ang]:            1.463115
      Cartesian components [Ang]: [  0.854024,   0.830348,   0.849629]

  Transition density matrix analysis:
  -----------------------------------
  
  CT numbers (Mulliken)
    omega =     0.9536
    <Phe> =    -0.1608
  
  Exciton analysis of the transition density matrix
    Trans. dipole moment [D]:             1.833528
      Cartesian components [D]:         [  1.329332,  -1.262762,  -0.011685]
    <r_h> [Ang]:                        [ -1.560049,  -0.065921,   0.001804]
    <r_e> [Ang]:                        [ -1.560312,  -0.065561,   0.001703]
    |<r_e - r_h>| [Ang]:                  0.000458
    Hole size [Ang]:                      1.214143
      Cartesian components [Ang]:       [  0.649611,   0.636363,   0.804482]
    Electron size [Ang]:                  1.485959
      Cartesian components [Ang]:       [  0.864462,   0.839248,   0.869737]
    RMS electron-hole separation [Ang]:   1.936710
      Cartesian components [Ang]:       [  1.106761,   1.075115,   1.170494]
    Covariance(r_h, r_e) [Ang^2]:        -0.034315
    Correlation coefficient:             -0.019020
    Center-of-mass size [Ang]:            0.950472
      Cartesian components [Ang]:       [  0.527650,   0.515441,   0.599419]

  Decomposition into state-averaged NTOs
    H- 0 -> L+ 0: -0.6699 ( 89.8%)
    H- 2 -> L+ 5: -0.0837 (  1.4%)
                   omega =  95.4%
  ----------------------------------------------------------------------------


  Excited state 2 (singlet, A)                                     [converged]
  ----------------------------------------------------------------------------
  Term symbol:  3 (1) A                                     R^2 =  4.70735e-13

  Total energy:                                            -77.9865115407 a.u.
  Excitation energy:                                               9.061781 eV

  Osc. strength:                                                      0.000005
  Trans. dip. moment [a.u.]:           [   0.002008,   -0.001863,   -0.003889]
  <i|r^2|0> [a.u.]:                    [  -0.053045,   -0.086084,    0.150539]
  Two-photon absorption cross-section (SoS) [a.u.]:                   4.927186
  Two-photon absorption matrix (SoS) [a.u.]:
                                       |   -0.054101   -0.059129    0.552825 |
                                       |   -0.059129   -0.064036    0.544355 |
                                       |    0.552825    0.544355    0.117899 |
  Two-photon absorption cross-section [a.u.]:                         0.070328
  Two-photon absorption matrix [a.u.]:
                                       |    0.002383    0.006814   -0.063422 |
                                       |    0.006814    0.011784   -0.067455 |
                                       |   -0.063422   -0.067455   -0.014129 |

  Dip. moment [a.u.]:                  [  -0.015880,    0.007325,    0.000525]
  Total dipole [Debye]:                                               0.044469
  <r^2> [a.u.]:                        [ 174.439233,   33.927446,   13.169589]
  Total <r^2> [a.u.]:                                               221.536269

  V1^2 = 0.9542, V2^2 = 0.0458

  Important amplitudes:
      occ i     occ j     vir a      vir b          v   
    -----------------------------------------------------
     7 (A) A              9 (A) A                 0.6693
     8 (A) A             11 (A) A                -0.1476
     7 (A) A             20 (A) A                 0.0759
     5 (A) A   8 (A) B    9 (A) A    9 (A) B     -0.0317
     8 (A) A             16 (A) A                -0.0272
     8 (A) A             21 (A) A                 0.0175
     5 (A) A             28 (A) A                -0.0151
     4 (A) A   7 (A) B    9 (A) A   19 (A) B     -0.0135
     5 (A) A   7 (A) B    9 (A) A   16 (A) B      0.0134
     7 (A) A   8 (A) B   20 (A) A   17 (A) B     -0.0105
     7 (A) A   8 (A) A    9 (A) A   28 (A) A      0.0098
     5 (A) A   8 (A) B    9 (A) A   20 (A) B     -0.0096
     4 (A) A   6 (A) B    9 (A) A   16 (A) B      0.0091
     5 (A) A   6 (A) A    9 (A) A   23 (A) A      0.0091
     5 (A) A   6 (A) A    9 (A) A   14 (A) A      0.0089
     5 (A) A   6 (A) B    9 (A) A   19 (A) B     -0.0087
     8 (A) A   7 (A) B    9 (A) A   28 (A) B     -0.0085
     4 (A) A   5 (A) A    9 (A) A   10 (A) A     -0.0084
     6 (A) A   7 (A) B    9 (A) A   18 (A) B      0.0083
     5 (A) A   6 (A) B    9 (A) A   23 (A) B      0.0080
     3 (A) A   7 (A) B    9 (A) A   18 (A) B      0.0080
     5 (A) A   7 (A) A    9 (A) A   16 (A) A      0.0079
     8 (A) A             12 (A) A                -0.0078
     4 (A) A   8 (A) B    9 (A) A   25 (A) B     -0.0077
     7 (A) A   8 (A) B   17 (A) A   20 (A) B     -0.0074
     4 (A) A   7 (A) B   19 (A) A    9 (A) B     -0.0074
     5 (A) A   5 (A) B    9 (A) A   13 (A) B      0.0072
     7 (A) A   8 (A) B   19 (A) A   18 (A) B     -0.0072
     5 (A) A   8 (A) A    9 (A) A   20 (A) A     -0.0069
     4 (A) A   5 (A) B    9 (A) A   18 (A) B      0.0068
     8 (A) A             10 (A) A                 0.0067
     7 (A) A   7 (A) B   20 (A) A   22 (A) B      0.0065
     7 (A) A   8 (A) B   17 (A) A    9 (A) B     -0.0065
     5 (A) A   6 (A) B    9 (A) A   14 (A) B      0.0063
     4 (A) A   7 (A) A    9 (A) A   19 (A) A     -0.0061
     4 (A) A   5 (A) B   10 (A) A    9 (A) B      0.0061
     5 (A) A   7 (A) B   11 (A) A   20 (A) B      0.0060
     4 (A) A   7 (A) B    9 (A) A   14 (A) B     -0.0060
     4 (A) A   8 (A) A    9 (A) A   25 (A) A     -0.0057
     6 (A) A   7 (A) A   19 (A) A   28 (A) A     -0.0057
    -----------------------------------------------------

  Density matrix analysis:
  ------------------------
  NOs
    Occupation of frontier NOs:
       0.9583   1.0535
    Number of electrons: 16.000000
    Number of unpaired electrons: n_u =  2.35506, n_u,nl =  2.06251
    NO participation ratio (PR_NO):  3.025237
  
  
  Mulliken Population Analysis
  Atom      Charge (e)              h+              e-           Del q
  --------------------------------------------------------------------
   1 H        0.147296        0.122208       -0.025720        0.096487
   2 C       -0.299965        0.269790       -0.471389       -0.201598
   3 H        0.151166        0.125120       -0.023188        0.101932
   4 C       -0.303171        0.274141       -0.475114       -0.200973
   5 H        0.153394        0.128673       -0.025318        0.103355
   6 H        0.151280        0.124088       -0.023292        0.100796
  --------------------------------------------------------------------
  Sum:        0.000000        1.044021       -1.044021       -0.000000
  
  Multipole moment analysis of the density matrix
    Molecular charge:                      -0.000000
    Number of electrons:                   16.000000
      Center of electronic charge [Ang]: [ -1.560051,  -0.065532,   0.001961]
    Total nuclear charge:                  16.000000
      Center of nuclear charge [Ang]:    [ -1.560576,  -0.065290,   0.001978]
    Dipole moment [D]:                     0.044469
      Cartesian components [D]:          [ -0.040362,   0.018618,   0.001335]
    RMS size of the density [Ang]:         1.199676
      Cartesian components [Ang]:        [  0.786917,   0.767787,   0.480091]
  
  Exciton analysis of the difference density matrix
    <r_h> [Ang]:                  [ -1.566362,  -0.057272,   0.002225]
    <r_e> [Ang]:                  [ -1.558689,  -0.061093,   0.002121]
    |<r_e - r_h>| [Ang]:            0.008573
    Hole size [Ang]:                1.485532
      Cartesian components [Ang]: [  1.001088,   0.999159,   0.454212]
    Electron size [Ang]:            1.476688
      Cartesian components [Ang]: [  0.881999,   0.857967,   0.816442]

  Transition density matrix analysis:
  -----------------------------------
  
  CT numbers (Mulliken)
    omega =     0.9218
    <Phe> =    -0.0122
  
  Exciton analysis of the transition density matrix
    Trans. dipole moment [D]:             0.006045
      Cartesian components [D]:         [  0.002552,  -0.002367,  -0.004942]
    <r_h> [Ang]:                        [ -1.567534,  -0.056209,   0.002284]
    <r_e> [Ang]:                        [ -1.557536,  -0.061767,   0.002080]
    |<r_e - r_h>| [Ang]:                  0.011440
    Hole size [Ang]:                      1.514039
      Cartesian components [Ang]:       [  1.023838,   1.023349,   0.443651]
    Electron size [Ang]:                  1.473884
      Cartesian components [Ang]:       [  0.872690,   0.847393,   0.832268]
    RMS electron-hole separation [Ang]:   2.093184
      Cartesian components [Ang]:       [  1.329417,   1.313763,   0.942389]
    Covariance(r_h, r_e) [Ang^2]:         0.041680
    Correlation coefficient:              0.018678
    Center-of-mass size [Ang]:            1.066303
      Cartesian components [Ang]:       [  0.680517,   0.671694,   0.471937]

  Decomposition into state-averaged NTOs
    H- 1 -> L+ 0: -0.6617 ( 87.6%)
    H- 0 -> L+ 2:  0.1477 (  4.4%)
                   omega =  92.2%
  ----------------------------------------------------------------------------


  Excited state 3 (singlet, A)                                     [converged]
  ----------------------------------------------------------------------------
  Term symbol:  4 (1) A                                     R^2 =  6.83965e-13

  Total energy:                                            -77.9823654952 a.u.
  Excitation energy:                                               9.174601 eV

  Osc. strength:                                                      0.025369
  Trans. dip. moment [a.u.]:           [  -0.015248,   -0.020547,    0.334979]
  <i|r^2|0> [a.u.]:                    [  -0.091457,   -0.004400,   -0.001235]
  Two-photon absorption cross-section (SoS) [a.u.]:                   0.002047
  Two-photon absorption matrix (SoS) [a.u.]:
                                       |   -0.008716   -0.001291    0.013554 |
                                       |   -0.001291    0.006284    0.002514 |
                                       |    0.013554    0.002514   -0.001888 |
  Two-photon absorption cross-section [a.u.]:                         0.001247
  Two-photon absorption matrix [a.u.]:
                                       |   -0.007670   -0.000200    0.010025 |
                                       |   -0.000200    0.003890   -0.003149 |
                                       |    0.010025   -0.003149   -0.001574 |

  Dip. moment [a.u.]:                  [   0.003962,   -0.013142,   -0.001096]
  Total dipole [Debye]:                                               0.035000
  <r^2> [a.u.]:                        [ 180.894475,   40.536957,   11.026558]
  Total <r^2> [a.u.]:                                               232.457990

  V1^2 = 0.9588, V2^2 = 0.0412

  Important amplitudes:
      occ i     occ j     vir a      vir b          v   
    -----------------------------------------------------
     8 (A) A             10 (A) A                -0.6891
     8 (A) A             24 (A) A                -0.0507
     8 (A) A             18 (A) A                 0.0311
     4 (A) A              9 (A) A                -0.0237
     8 (A) A   8 (A) B    9 (A) A   12 (A) B      0.0219
     8 (A) A   8 (A) B   10 (A) A   17 (A) B     -0.0173
     8 (A) A             15 (A) A                -0.0170
     5 (A) A   8 (A) B   11 (A) A   10 (A) B      0.0165
     7 (A) A   8 (A) B   13 (A) A   10 (A) B     -0.0141
     4 (A) A   8 (A) B   12 (A) A   10 (A) B      0.0111
     6 (A) A   8 (A) A   10 (A) A   15 (A) A     -0.0110
     7 (A) A   8 (A) B   22 (A) A   10 (A) B      0.0108
     6 (A) A   8 (A) B   15 (A) A   10 (A) B      0.0108
     4 (A) A   8 (A) A   10 (A) A   12 (A) A     -0.0106
     7 (A) A   8 (A) A   10 (A) A   22 (A) A     -0.0099
     7 (A) A   8 (A) A   10 (A) A   13 (A) A      0.0097
     5 (A) A   8 (A) B   21 (A) A   10 (A) B     -0.0094
     5 (A) A   8 (A) A   10 (A) A   11 (A) A     -0.0094
     6 (A) A   8 (A) A   10 (A) A   18 (A) A     -0.0088
     6 (A) A   8 (A) B   10 (A) A   10 (A) B     -0.0087
     7 (A) A   8 (A) A   12 (A) A   16 (A) A      0.0081
     5 (A) A   8 (A) A   10 (A) A   21 (A) A      0.0080
     3 (A) A   4 (A) B   10 (A) A    9 (A) B      0.0079
     4 (A) A   8 (A) B   19 (A) A   10 (A) B     -0.0075
     8 (A) A   8 (A) B    9 (A) A   23 (A) B     -0.0075
     8 (A) A   8 (A) B   10 (A) A   28 (A) B      0.0073
     3 (A) A   8 (A) B   10 (A) A   10 (A) B     -0.0072
     5 (A) A   8 (A) B   10 (A) A   11 (A) B      0.0071
     3 (A) A   8 (A) A   10 (A) A   24 (A) A      0.0071
     7 (A) A   8 (A) B   16 (A) A   12 (A) B     -0.0070
     3 (A) A   8 (A) B   10 (A) A   18 (A) B      0.0069
     7 (A) A              9 (A) A                 0.0068
     8 (A) A   8 (A) B    9 (A) A   19 (A) B     -0.0068
     6 (A) A   8 (A) B   18 (A) A   10 (A) B      0.0067
     3 (A) A   6 (A) B   10 (A) A   28 (A) B     -0.0062
     7 (A) A   8 (A) B   12 (A) A   11 (A) B     -0.0057
     6 (A) A             28 (A) A                 0.0057
     3 (A) A   5 (A) B   10 (A) A   25 (A) B      0.0056
     5 (A) A   8 (A) A   10 (A) A   16 (A) A     -0.0056
     3 (A) A   8 (A) A   10 (A) A   18 (A) A      0.0056
    -----------------------------------------------------

  Density matrix analysis:
  ------------------------
  NOs
    Occupation of frontier NOs:
       0.9815   0.9850
    Number of electrons: 16.000000
    Number of unpaired electrons: n_u =  2.28509, n_u,nl =  2.02438
    NO participation ratio (PR_NO):  2.691410
  
  
  Mulliken Population Analysis
  Atom      Charge (e)              h+              e-           Del q
  --------------------------------------------------------------------
   1 H       -0.163035        0.053797       -0.267640       -0.213843
   2 C        0.330252        0.537721       -0.109102        0.428619
   3 H       -0.164219        0.053808       -0.267261       -0.213453
   4 C        0.327802        0.538693       -0.108693        0.430000
   5 H       -0.166659        0.053719       -0.270417       -0.216699
   6 H       -0.164141        0.054033       -0.268658       -0.214625
  --------------------------------------------------------------------
  Sum:        0.000000        1.291770       -1.291770        0.000000
  
  Multipole moment analysis of the density matrix
    Molecular charge:                      0.000000
    Number of electrons:                   16.000000
      Center of electronic charge [Ang]: [ -1.560707,  -0.064855,   0.002014]
    Total nuclear charge:                  16.000000
      Center of nuclear charge [Ang]:    [ -1.560576,  -0.065290,   0.001978]
    Dipole moment [D]:                     0.035000
      Cartesian components [D]:          [  0.010070,  -0.033404,  -0.002785]
    RMS size of the density [Ang]:         1.276092
      Cartesian components [Ang]:        [  0.854499,   0.839799,   0.439295]
  
  Exciton analysis of the difference density matrix
    <r_h> [Ang]:                  [ -1.561031,  -0.065072,   0.001855]
    <r_e> [Ang]:                  [ -1.562957,  -0.059776,   0.002435]
    |<r_e - r_h>| [Ang]:            0.005665
    Hole size [Ang]:                1.410111
      Cartesian components [Ang]: [  0.834156,   0.819334,   0.788218]
    Electron size [Ang]:            2.076165
      Cartesian components [Ang]: [  1.374239,   1.375942,   0.727128]

  Transition density matrix analysis:
  -----------------------------------
  
  CT numbers (Mulliken)
    omega =     0.9260
    <Phe> =    -0.0109
  
  Exciton analysis of the transition density matrix
    Trans. dipole moment [D]:             0.426956
      Cartesian components [D]:         [ -0.019378,  -0.026113,   0.425716]
    <r_h> [Ang]:                        [ -1.560409,  -0.066228,   0.001715]
    <r_e> [Ang]:                        [ -1.563701,  -0.058104,   0.002594]
    |<r_e - r_h>| [Ang]:                  0.008810
    Hole size [Ang]:                      1.212996
      Cartesian components [Ang]:       [  0.636491,   0.623593,   0.823025]
    Electron size [Ang]:                  2.296450
      Cartesian components [Ang]:       [  1.518980,   1.523189,   0.803915]
    RMS electron-hole separation [Ang]:   2.587246
      Cartesian components [Ang]:       [  1.639466,   1.638944,   1.148849]
    Covariance(r_h, r_e) [Ang^2]:         0.025640
    Correlation coefficient:              0.009205
    Center-of-mass size [Ang]:            1.303488
      Cartesian components [Ang]:       [  0.827195,   0.826419,   0.576074]

  Decomposition into state-averaged NTOs
    H- 0 -> L+ 1: -0.6796 ( 92.4%)
                   omega =  92.6%
  ----------------------------------------------------------------------------


  Excited state 4 (singlet, A)                                     [converged]
  ----------------------------------------------------------------------------
  Term symbol:  5 (1) A                                     R^2 =  2.34896e-13

  Total energy:                                            -77.9578726380 a.u.
  Excitation energy:                                               9.841085 eV

  Osc. strength:                                                      0.000003
  Trans. dip. moment [a.u.]:           [   0.000872,   -0.000554,   -0.003050]
  <i|r^2|0> [a.u.]:                    [   0.023749,    0.017797,   -0.036496]
  Two-photon absorption cross-section (SoS) [a.u.]:                 150.863558
  Two-photon absorption matrix (SoS) [a.u.]:
                                       |    0.297723    0.326990   -3.071613 |
                                       |    0.326990    0.354744   -2.999399 |
                                       |   -3.071613   -2.999399   -0.652039 |
  Two-photon absorption cross-section [a.u.]:                        92.902119
  Two-photon absorption matrix [a.u.]:
                                       |    0.236601    0.256845   -2.412258 |
                                       |    0.256845    0.275523   -2.351802 |
                                       |   -2.412258   -2.351802   -0.511639 |

  Dip. moment [a.u.]:                  [   0.014774,    0.009839,    0.000755]
  Total dipole [Debye]:                                               0.045157
  <r^2> [a.u.]:                        [ 181.608668,   40.274258,   10.762632]
  Total <r^2> [a.u.]:                                               232.645558

  V1^2 = 0.9635, V2^2 = 0.0365

  Important amplitudes:
      occ i     occ j     vir a      vir b          v   
    -----------------------------------------------------
     8 (A) A             11 (A) A                 0.6696
     7 (A) A              9 (A) A                 0.1497
     8 (A) A             21 (A) A                -0.0781
     8 (A) A             16 (A) A                 0.0643
     8 (A) A             12 (A) A                 0.0196
     8 (A) A   8 (A) B    9 (A) A   13 (A) B     -0.0167
     5 (A) A   8 (A) B   11 (A) A   11 (A) B     -0.0155
     8 (A) A   8 (A) B   11 (A) A   17 (A) B      0.0140
     7 (A) A             20 (A) A                 0.0137
     7 (A) A   8 (A) B   13 (A) A   11 (A) B      0.0127
     6 (A) A              9 (A) A                 0.0111
     5 (A) A   8 (A) A   11 (A) A   21 (A) A     -0.0110
     4 (A) A   8 (A) B   12 (A) A   11 (A) B     -0.0110
     8 (A) A   8 (A) B    9 (A) A   22 (A) B      0.0107
     7 (A) A   8 (A) A   11 (A) A   22 (A) A      0.0096
     6 (A) A   8 (A) B   15 (A) A   11 (A) B     -0.0090
     6 (A) A   8 (A) B   10 (A) A   11 (A) B      0.0090
     7 (A) A   8 (A) B   22 (A) A   11 (A) B     -0.0089
     3 (A) A   4 (A) B   11 (A) A    9 (A) B     -0.0083
     3 (A) A   8 (A) B   11 (A) A   18 (A) B     -0.0081
     6 (A) A   8 (A) A   11 (A) A   15 (A) A      0.0080
     7 (A) A   8 (A) A   13 (A) A   16 (A) A     -0.0078
     7 (A) A   8 (A) A   11 (A) A   13 (A) A     -0.0077
     5 (A) A   8 (A) B   21 (A) A   11 (A) B      0.0071
     4 (A) A   8 (A) B   19 (A) A   11 (A) B      0.0070
     5 (A) A   8 (A) B    9 (A) A    9 (A) B     -0.0067
     4 (A) A   8 (A) A   11 (A) A   12 (A) A      0.0062
     6 (A) A   8 (A) A   11 (A) A   18 (A) A      0.0062
     3 (A) A   6 (A) B   11 (A) A   28 (A) B      0.0060
     6 (A) A   8 (A) B   18 (A) A   11 (A) B     -0.0060
     7 (A) A   8 (A) B   16 (A) A   13 (A) B      0.0057
     3 (A) A   8 (A) A   11 (A) A   18 (A) A     -0.0056
     5 (A) A   8 (A) B   10 (A) A   10 (A) B     -0.0056
     3 (A) A   8 (A) B   11 (A) A   30 (A) B     -0.0055
     3 (A) A   5 (A) B   11 (A) A   25 (A) B     -0.0055
     6 (A) A   8 (A) B   11 (A) A   10 (A) B      0.0054
     7 (A) A   8 (A) B   12 (A) A   10 (A) B      0.0054
     8 (A) A   8 (A) B   20 (A) A   22 (A) B      0.0053
     3 (A) A   8 (A) A   11 (A) A   24 (A) A     -0.0053
     5 (A) A   8 (A) A   11 (A) A   16 (A) A      0.0048
    -----------------------------------------------------

  Density matrix analysis:
  ------------------------
  NOs
    Occupation of frontier NOs:
       0.9410   1.0276
    Number of electrons: 16.000000
    Number of unpaired electrons: n_u =  2.31885, n_u,nl =  2.04890
    NO participation ratio (PR_NO):  2.912503
  
  
  Mulliken Population Analysis
  Atom      Charge (e)              h+              e-           Del q
  --------------------------------------------------------------------
   1 H       -0.150145        0.045519       -0.246473       -0.200953
   2 C        0.278314        0.496880       -0.120199        0.376681
   3 H       -0.126322        0.047174       -0.222730       -0.175556
   4 C        0.273633        0.497522       -0.121691        0.375831
   5 H       -0.120179        0.047281       -0.217499       -0.170218
   6 H       -0.155301        0.045667       -0.251451       -0.205784
  --------------------------------------------------------------------
  Sum:        0.000000        1.180044       -1.180044       -0.000000
  
  Multipole moment analysis of the density matrix
    Molecular charge:                      0.000000
    Number of electrons:                   16.000000
      Center of electronic charge [Ang]: [ -1.561065,  -0.065615,   0.001953]
    Total nuclear charge:                  16.000000
      Center of nuclear charge [Ang]:    [ -1.560576,  -0.065290,   0.001978]
    Dipole moment [D]:                     0.045157
      Cartesian components [D]:          [  0.037552,   0.025008,   0.001919]
    RMS size of the density [Ang]:         1.276902
      Cartesian components [Ang]:        [  0.861134,   0.836998,   0.434006]
  
  Exciton analysis of the difference density matrix
    <r_h> [Ang]:                  [ -1.561153,  -0.065402,   0.001813]
    <r_e> [Ang]:                  [ -1.568110,  -0.069911,   0.001618]
    |<r_e - r_h>| [Ang]:            0.008292
    Hole size [Ang]:                1.394808
      Cartesian components [Ang]: [  0.818582,   0.806450,   0.790602]
    Electron size [Ang]:            2.124945
      Cartesian components [Ang]: [  1.459457,   1.387186,   0.679034]

  Transition density matrix analysis:
  -----------------------------------
  
  CT numbers (Mulliken)
    omega =     0.9298
    <Phe> =    -0.0134
  
  Exciton analysis of the transition density matrix
    Trans. dipole moment [D]:             0.004093
      Cartesian components [D]:         [  0.001108,  -0.000704,  -0.003877]
    <r_h> [Ang]:                        [ -1.560541,  -0.065369,   0.001775]
    <r_e> [Ang]:                        [ -1.569776,  -0.070512,   0.001560]
    |<r_e - r_h>| [Ang]:                  0.010573
    Hole size [Ang]:                      1.227813
      Cartesian components [Ang]:       [  0.656885,   0.650891,   0.807692]
    Electron size [Ang]:                  2.263434
      Cartesian components [Ang]:       [  1.556094,   1.476879,   0.721479]
    RMS electron-hole separation [Ang]:   2.564370
      Cartesian components [Ang]:       [  1.680456,   1.606296,   1.082531]
    Covariance(r_h, r_e) [Ang^2]:         0.027389
    Correlation coefficient:              0.009855
    Center-of-mass size [Ang]:            1.292810
      Cartesian components [Ang]:       [  0.848824,   0.810787,   0.541739]

  Decomposition into state-averaged NTOs
    H- 0 -> L+ 2: -0.6648 ( 88.4%)
    H- 1 -> L+ 0: -0.1476 (  4.4%)
                   omega =  93.0%
  ----------------------------------------------------------------------------


  Excited state 5 (singlet, A)                                     [converged]
  ----------------------------------------------------------------------------
  Term symbol:  6 (1) A                                     R^2 =  2.95596e-13

  Total energy:                                            -77.9440795928 a.u.
  Excitation energy:                                              10.216413 eV

  Osc. strength:                                                      0.000001
  Trans. dip. moment [a.u.]:           [  -0.000009,   -0.000023,    0.002272]
  <i|r^2|0> [a.u.]:                    [   0.087534,   -0.104909,    0.017561]
  Two-photon absorption cross-section (SoS) [a.u.]:                 175.696043
  Two-photon absorption matrix (SoS) [a.u.]:
                                       |    0.312864    0.033459   -3.262419 |
                                       |    0.033459   -0.394732    3.344646 |
                                       |   -3.262419    3.344646    0.089346 |
  Two-photon absorption cross-section [a.u.]:                        77.919955
  Two-photon absorption matrix [a.u.]:
                                       |    0.208815    0.021723   -2.153233 |
                                       |    0.021723   -0.262456    2.246077 |
                                       |   -2.153233    2.246077    0.062977 |

  Dip. moment [a.u.]:                  [  -0.003693,   -0.003897,   -0.000218]
  Total dipole [Debye]:                                               0.013658
  <r^2> [a.u.]:                        [ 178.128178,   38.327389,   11.950282]
  Total <r^2> [a.u.]:                                               228.405850

  V1^2 = 0.9574, V2^2 = 0.0426

  Important amplitudes:
      occ i     occ j     vir a      vir b          v   
    -----------------------------------------------------
     8 (A) A             12 (A) A                -0.4882
[...]
    16   -1.475270397468e-03
    17   -1.777398777635e-03
    18   -1.490045027973e-05
    19   -3.283290748306e-03
    20    1.022537887074e-02
    21    9.305374694373e-01
    22   -2.681732073558e-04
    23    1.400330513775e-02
    24    8.218832945345e-04
    25    7.060956761196e-02
    26   -5.269424560174e-02
    27   -1.403866492097e+00
    28    9.755611033422e-02
    29   -9.325341766078e-02
    30   -1.130173443604e-03
    31    3.846022257085e-01
    32   -3.652180777466e-01
    33   -4.322633021578e-03
    34    1.569837955232e-02
    35   -1.479442047708e-03
    36   -1.796633131769e-03
    37   -1.626483409032e-04
    38   -3.212828586684e-03
    39    1.033595741532e-02
    40    9.397285031787e-01
    41    1.824018812095e-04
    42   -1.400477159642e-02
    43   -8.383575016949e-04
    44    9.735193650362e-03
    45    9.397228914659e-01
    46    1.414030944042e-02
    47    3.818261505565e-04
    48    6.837463519672e-04
Sym=X
Ene= 0.233137
Spin=Alpha
Occup=0
     1   -2.682822508690e-02
     2   -1.259809671340e+00
     3    1.467249263485e-02
     4    4.006155889033e-03
     5    9.279145638405e-04
     6   -5.297591575951e-03
     7    5.793804134206e-03
     8    8.187350686252e-02
     9    1.557272455512e-01
    10    1.563554026382e-01
    11    1.662885821346e-02
    12    5.615836502760e-01
    13    5.526002668089e-01
    14    5.926844446341e-02
    15   -9.198128862378e-04
    16    1.098562995852e-04
    17    1.020956597975e-04
    18    2.299187078512e-04
    19    5.624322903527e-04
    20    2.389061400615e-02
    21    1.137092245275e+00
    22    2.301961125022e-03
    23    1.332618304397e-02
    24    9.015608423861e-04
    25    5.493978835911e-03
    26   -5.804340018246e-03
    27   -8.959457194208e-02
    28    1.558706701037e-01
    29    1.572287508321e-01
    30    1.679966491137e-02
    31    5.566793043626e-01
    32    5.478335204273e-01
    33    5.921967136824e-02
    34    1.184835896572e-03
    35   -1.528770757194e-04
    36   -1.035132872894e-04
    37   -5.645742373885e-04
    38   -7.372248321335e-04
    39   -2.418594519268e-02
    40   -1.124316270975e+00
    41    2.211829425795e-03
    42    1.313757708860e-02
    43    8.936880147650e-04
    44    2.635657916858e-02
    45    1.256246146658e+00
    46    1.478250540362e-02
    47    4.021613792272e-03
    48    9.388280709147e-04
Sym=X
Ene= 0.239632
Spin=Alpha
Occup=0
     1    1.494086168215e-02
     2    1.020058702954e+00
     3   -1.621701114987e-02
     4   -9.066475678070e-03
     5   -1.312324658088e-03
     6    8.656945941317e-02
     7   -7.958744799224e-02
     8   -1.602819684739e+00
     9   -4.935357085097e-02
    10    6.466487408275e-02
    11    1.421206757889e-03
    12   -1.963913040169e-01
    13    2.519776224619e-01
    14    5.251153248111e-03
    15    2.279074420809e-02
    16   -2.637563640026e-03
    17   -3.001306130955e-03
    18    6.099642248884e-04
    19   -1.292352922035e-02
    20    1.699678690086e-02
    21    1.165868693813e+00
    22    8.620639221539e-03
    23    1.844754958861e-02
    24    1.500693662652e-03
    25   -8.600701602091e-02
    26    7.874831946968e-02
    27    1.590395719566e+00
    28   -4.851128300905e-02
    29    6.572550846125e-02
    30    1.834208901585e-03
    31   -1.920784869605e-01
    32    2.562339123016e-01
    33    7.013924559889e-03
    34   -2.254854370415e-02
    35    2.567701869710e-03
    36    3.020153090357e-03
    37   -9.240098152421e-04
    38    1.272724392067e-02
    39   -1.707561594094e-02
    40   -1.161840079973e+00
    41    8.673980640768e-03
    42    1.830816242252e-02
    43    1.518333208362e-03
    44   -1.522091385666e-02
    45   -1.008176613824e+00
    46   -1.593558551012e-02
    47   -9.169979962424e-03
    48   -1.286933234589e-03
Sym=X
Ene= 0.303291
Spin=Alpha
Occup=0
     1    2.053918347088e-02
     2   -1.693075494124e+00
     3    2.285219055609e-02
     4   -3.640584951219e-04
     5    1.067856601559e-03
     6    3.397685462246e-04
     7   -1.703983855854e-04
     8   -1.374399126581e-02
     9    1.339821030542e-01
    10    1.393748426879e-01
    11    1.460916035280e-02
    12    1.147175810630e+00
    13    1.195747721230e+00
    14    1.254262041184e-01
    15    3.808715314779e-04
    16    1.613908385099e-03
    17   -1.904019678446e-03
    18    3.270873558433e-02
    19    1.394828554835e-03
    20   -2.054914789873e-02
    21    1.702250823195e+00
    22   -1.415091447069e-03
    23    2.293869180088e-02
    24    1.286462703066e-03
    25   -1.298686223249e-04
    26   -4.234239740339e-04
    27    1.205073251494e-02
    28   -1.345615178729e-01
    29   -1.399082392817e-01
    30   -1.474452240963e-02
    31   -1.138575295059e+00
    32   -1.197888348556e+00
    33   -1.254027066646e-01
    34   -8.517456075999e-05
    35    1.603376754404e-03
    36   -1.876066051807e-03
    37    3.231054178849e-02
    38    1.693656908197e-03
    39   -1.927130649562e-02
    40    1.690014855715e+00
    41    1.622111281678e-03
    42   -2.274218241436e-02
    43   -1.285943817437e-03
    44    1.976469055751e-02
    45   -1.698654612354e+00
    46   -2.302847240716e-02
    47    3.372982377924e-04
    48   -1.067968693833e-03
Sym=X
Ene= 0.462088
Spin=Alpha
Occup=0
     1   -1.157414559357e-01
     2   -7.117284013364e-01
     3   -1.575337980830e-02
     4   -1.033058799750e-02
     5   -1.355955004433e-03
     6    6.065953090621e-02
     7    1.737878190077e-02
     8   -3.585629242524e+00
     9    1.026921562157e-01
    10   -9.885749574549e-02
    11   -1.050821394420e-03
    12    2.424089107348e+00
    13   -2.308097967365e+00
    14   -2.153419599279e-02
    15    5.358805046671e-02
    16   -3.384665432288e-03
    17   -4.650074206883e-03
    18   -9.663551816437e-04
    19    1.777056689994e-02
    20   -1.206316745419e-01
    21   -7.114540936848e-01
    22    8.643415149816e-03
    23    1.641502211548e-02
    24    1.383627739078e-03
    25   -6.093626853088e-02
    26   -1.604070506968e-02
    27    3.590906155106e+00
    28    1.054503107081e-01
    29   -1.007748098222e-01
    30   -1.216677020312e-03
    31    2.423435068289e+00
    32   -2.296555865121e+00
    33   -2.170901094255e-02
    34   -5.268007222497e-02
    35    3.256745606144e-03
    36    4.525065621781e-03
    37    5.992190235115e-04
    38   -1.905892431328e-02
    39    1.149906833377e-01
    40    7.086588420831e-01
    41    8.553806152731e-03
    42    1.627782235300e-02
    43    1.372952417548e-03
    44    1.106997428143e-01
    45    7.199459742717e-01
    46   -1.543294042833e-02
    47   -9.909698362636e-03
    48   -1.331428732999e-03
Sym=X
Ene= 0.577415
Spin=Alpha
Occup=0
     1    2.451952098976e-01
     2    3.910659139555e-02
     3   -1.854329042551e-02
     4    2.580941644590e-02
     5    6.535192946160e-04
     6   -4.258154214612e-03
     7   -1.563654950104e-01
     8   -4.750667174116e-01
     9    2.982034595652e-01
    10   -2.884050514063e-01
    11   -2.980515775459e-03
    12   -7.125556975678e-01
    13    6.984351932764e-01
    14    7.858748366187e-03
    15   -5.898024746178e-03
    16    3.868545395362e-03
    17    3.760765559850e-03
    18   -4.675997455520e-03
    19    6.021432871646e-02
    20    2.582132437180e-01
    21    3.141840737044e-02
    22   -2.579871468306e-02
    23    1.570827660003e-02
    24   -2.902214243839e-04
    25   -5.698982057570e-03
    26   -1.575209183573e-01
    27   -4.047357586333e-01
    28   -2.970386935099e-01
    29    2.847490576369e-01
    30    2.786880545807e-03
    31    7.655622287789e-01
    32   -7.362510083634e-01
    33   -7.775426228329e-03
    34   -6.066067164035e-03
    35    3.947956985821e-03
    36    3.698252333506e-03
    37   -3.260648521475e-03
    38    6.021233161554e-02
    39    2.492506624763e-01
    40    5.205572442831e-02
    41    2.744170629857e-02
    42   -1.715849026718e-02
    43    2.660981905053e-04
    44    2.513284018823e-01
    45    5.552248087659e-02
    46    1.811368777605e-02
    47   -2.576368706145e-02
    48   -6.900587606462e-04
Sym=X
Ene= 0.615466
Spin=Alpha
Occup=0
     1   -5.260475632771e-01
     2    1.983970223139e-01
     3   -6.151621296261e-02
     4    3.733941751371e-02
     5   -7.110939811420e-04
     6   -7.760584975165e-04
     7    1.608320412384e-03
     8   -1.868198576562e-02
     9   -4.190563502062e-02
    10   -3.911106053594e-02
    11   -4.335507563904e-03
    12    3.104839235860e-01
    13    2.849929779564e-01
    14    3.152433970494e-02
    15    2.966475836865e-03
    16   -7.670315263938e-03
    17    8.108810877023e-03
    18   -1.474261964406e-01
    19   -6.931152613614e-03
    20    5.022580688195e-01
    21   -1.909060601601e-01
    22    4.201331051319e-02
    23   -5.818128488747e-02
    24   -1.462651238172e-03
    25    4.485403181509e-04
    26   -1.425299501187e-03
    27    2.649248897463e-02
    28   -3.936716654108e-02
    29   -4.055274856346e-02
    30   -4.264313156757e-03
    31    2.982423864170e-01
    32    2.928154550831e-01
    33    3.173568169855e-02
    34   -1.260552653144e-03
    35    7.425183652459e-03
    36   -8.607137580480e-03
    37    1.493960631032e-01
    38    5.834565141226e-03
    39   -5.170165718066e-01
    40    2.067164597718e-01
    41    4.079075967166e-02
    42   -5.869689085212e-02
    43   -1.589601593771e-03
    44    5.206637282770e-01
    45   -2.067282730010e-01
    46   -6.163050589001e-02
    47    3.786933841265e-02
    48   -6.295411057216e-04
Sym=X
Ene= 0.689201
Spin=Alpha
Occup=0
     1    3.539708013413e-04
     2    1.720926660815e-04
     3    1.041401883246e-03
     4    1.278173964008e-03
     5   -2.095830616378e-02
     6    2.418622047350e-05
     7    2.111422674511e-04
     8    1.014238445916e-04
     9    3.162009467311e-02
    10    3.989922324140e-02
    11   -6.702013803388e-01
    12   -2.947198863362e-02
    13   -3.598138018542e-02
    14    6.137740677931e-01
    15   -1.373134412791e-03
    16    8.266127603904e-02
    17   -7.845237937842e-02
    18   -8.617582775379e-03
    19   -1.100926369273e-03
    20    3.824413144926e-04
    21    5.592149366029e-05
    22    9.816143739631e-04
    23    1.232836757426e-03
    24   -2.178624983264e-02
    25    5.293999533995e-06
    26    3.968432294294e-04
    27   -4.666002912034e-04
    28    3.187734141248e-02
    29    3.992774906551e-02
    30   -6.701906562878e-01
    31   -2.975148041777e-02
    32   -3.603614859474e-02
    33    6.131940249322e-01
    34    1.169830274845e-03
    35   -8.268798661781e-02
    36    7.845384359795e-02
    37    8.568421523071e-03
    38    1.174607153246e-03
    39    6.235887400473e-05
    40   -5.289001217654e-04
    41    1.006000033443e-03
    42    1.361292336886e-03
    43   -2.108416326038e-02
    44    3.729991527231e-05
    45   -4.055670862596e-04
    46    9.051563708348e-04
    47    1.265525174060e-03
    48   -2.105561568394e-02
Sym=X
Ene= 0.709385
Spin=Alpha
Occup=0
     1   -4.705405131448e-01
     2    1.591369719636e-01
     3   -8.028779176103e-02
     4   -4.437884278436e-02
     5   -6.474355031751e-03
     6   -4.743203711456e-02
     7   -3.236201912253e-01
     8    5.117661715395e-01
     9    2.062070705014e-01
    10   -1.908651021162e-01
    11   -1.928387822295e-03
    12   -1.021523447482e-01
    13    6.999412279745e-02
    14   -6.657952449498e-04
    15    1.930744691009e-01
    16   -2.040802366054e-02
    17   -2.386032045058e-02
    18    3.190482603384e-03
    19   -7.731693064126e-02
    20   -4.741035092729e-01
    21    1.339869210014e-01
    22    4.084599143575e-02
    23    8.119214608032e-02
    24    6.723127532592e-03
    25   -4.732192358048e-02
    26   -3.205647191794e-01
    27    4.675805383357e-01
    28   -2.040178226601e-01
    29    1.914573849095e-01
    30    1.361326779216e-03
    31    6.852988353388e-02
    32   -5.531904701280e-02
    33    7.859785998065e-04
    34    1.951211872699e-01
    35   -2.058937264322e-02
    36   -2.397172759092e-02
    37    1.693885410928e-03
    38   -7.570490440247e-02
    39   -4.726996705302e-01
    40    1.372932676373e-01
    41   -4.108975832353e-02
    42   -8.134232676189e-02
    43   -6.792683760775e-03
    44   -4.803832634395e-01
    45    1.519579912270e-01
    46    8.165489765374e-02
    47    4.386200850817e-02
    48    6.497811965905e-03
Sym=X
Ene= 0.785277
Spin=Alpha
Occup=0
     1   -5.294505222036e-01
     2    4.787778885896e-01
     3   -1.120813460426e-01
     4   -2.659633003217e-02
     5   -6.900107015134e-03
     6   -9.156839913643e-02
     7    2.095486669834e-01
     8    6.539087584054e-01
     9   -1.053650047696e-01
    10    1.110256136309e-01
    11    8.837166561515e-04
    12   -3.282858448592e-01
    13    2.768256134929e-01
    14    2.113010031944e-03
    15    2.083812134683e-01
    16   -1.779122070097e-02
    17   -2.195916524803e-02
    18   -1.234685556971e-04
    19   -9.596862288328e-03
    20   -5.373511308109e-01
    21    4.501573112162e-01
    22    2.012483284564e-02
    23    1.122255353600e-01
    24    7.597021326735e-03
    25    9.111408781184e-02
    26   -2.168946799231e-01
    27   -6.508330777807e-01
    28   -1.132595760130e-01
    29    1.078464482491e-01
    30    1.578951687749e-03
    31   -3.086920514597e-01
    32    2.853998277529e-01
    33    1.086525219533e-03
    34   -2.063573923237e-01
    35    1.736335174435e-02
    36    2.207074496055e-02
    37   -1.793615005068e-03
    38    8.111855825812e-03
    39    5.412855649557e-01
    40   -4.649742245962e-01
    41    1.967536257899e-02
    42    1.126227448014e-01
    43    7.668154143999e-03
    44    5.260834670135e-01
    45   -4.638623814561e-01
    46   -1.093956261972e-01
    47   -2.694602483003e-02
    48   -6.791573218693e-03
Sym=X
Ene= 0.808000
Spin=Alpha
Occup=0
     1    3.995276155224e-04
     2   -6.238476806109e-04
     3    1.719343044545e-03
     4    2.013711538447e-03
     5   -3.371479267525e-02
     6    8.296766077017e-05
     7   -3.142013983310e-04
     8   -6.659831794661e-05
     9    3.631281857440e-02
    10    4.501541775740e-02
    11   -7.628540610030e-01
    12   -5.318971579439e-02
    13   -6.689674121591e-02
    14    1.127260701390e+00
    15    7.813645989300e-04
    16   -6.518247879508e-02
    17    6.183545284131e-02
    18    6.822882060168e-03
    19    8.727809207038e-04
    20    4.011854187015e-04
    21   -2.315014859020e-04
    22    1.704609438285e-03
    23    2.026056774353e-03
    24   -3.544854183578e-02
    25   -6.802490867360e-05
    26    1.004701449918e-06
    27    2.326106021895e-04
    28   -3.608429023564e-02
    29   -4.575060576056e-02
    30    7.631675195279e-01
    31    5.381338245499e-02
    32    6.711334026971e-02
    33   -1.127084429158e+00
    34    1.244301942700e-03
    35   -6.514360829437e-02
    36    6.183372010969e-02
    37    6.722583583411e-03
    38    9.582003105346e-04
    39   -3.977798203580e-04
    40    3.391809580078e-04
    41   -1.573149709591e-03
    42   -2.199872268870e-03
    43    3.424064671814e-02
    44   -3.930632825829e-04
    45    6.925443405397e-04
    46   -1.404010206958e-03
    47   -2.023176745427e-03
    48    3.373897565246e-02
Sym=X
Ene= 0.862604
Spin=Alpha
Occup=0
     1    9.072070174453e-03
     2   -1.092230199036e+00
     3    1.470008701952e-01
     4    5.640258918726e-02
     5    1.029583241667e-02
     6   -5.931887006820e-04
     7   -3.385139158053e-03
     8    3.216383567136e-03
     9   -4.059016379080e-01
    10   -4.230010245329e-01
    11   -4.422271403229e-02
    12    9.461201045814e-01
    13    9.912428405258e-01
    14    1.034103727814e-01
    15    1.789375258483e-03
    16    1.154873002332e-02
    17   -1.378874128811e-02
    18    2.354733447698e-01
    19    9.637301710131e-03
    20   -1.473345818604e-02
    21    1.102813153135e+00
    22    5.022345007205e-02
    23    1.514404735034e-01
    24    1.139636146337e-02
    25    3.907662361211e-04
    26   -1.748481740784e-03
    27    2.162789009688e-03
    28   -4.106607114957e-01
    29   -4.308757627784e-01
    30   -4.531515771330e-02
    31    9.529933075875e-01
    32    1.008112632202e+00
    33    1.056300917174e-01
    34   -7.433332604201e-04
    35   -1.178140398215e-02
    36    1.376542248046e-02
    37   -2.374453498947e-01
    38   -1.096306350875e-02
    39    1.584661241458e-02
    40   -1.111100556511e+00
    41    4.865177259586e-02
    42    1.534010869762e-01
    43    1.151926309991e-02
    44   -1.127158777986e-02
    45    1.098584181884e+00
    46    1.492203201879e-01
    47    5.560188353352e-02
    48    1.033093746678e-02
Sym=X
Ene= 0.936607
Spin=Alpha
Occup=0
     1    1.099215236907e-01
     2   -1.301377979499e+00
     3    1.828949983764e-01
     4   -4.248378842103e-03
     5    8.466389962654e-03
     6   -9.327259293674e-04
     7   -7.595798650662e-03
     8    7.745436394134e-03
     9   -4.810136381939e-01
    10   -4.952249024923e-01
    11   -5.221232648102e-02
    12    1.494068911959e+00
    13    1.537541280729e+00
    14    1.621568442261e-01
    15    4.037246534785e-03
    16    5.821325665268e-03
    17   -7.314489462464e-03
    18    1.220809403087e-01
    19    4.979675099186e-03
    20   -1.172534747098e-01
    21    1.289768249348e+00
    22   -1.243335322664e-02
    23    1.833036284684e-01
    24    1.023245209387e-02
    25    4.540964726404e-04
    26   -6.274226813608e-03
    27    1.888450811108e-02
    28    4.684398340610e-01
    29    4.992795006243e-01
    30    5.198700603452e-02
    31   -1.460418612476e+00
    32   -1.541304052012e+00
    33   -1.611533301981e-01
    34   -4.298376589708e-04
    35    5.759349121100e-03
    36   -6.987325775692e-03
    37    1.184343646792e-01
    38    2.427802868201e-03
    39   -1.133372285335e-01
    40    1.278328893163e+00
    41    1.298438843355e-02
    42   -1.804079464553e-01
    43   -1.015631283654e-02
    44    1.139083635250e-01
    45   -1.281434736231e+00
    46   -1.813796548223e-01
    47    6.118417857023e-03
    48   -8.240544851503e-03
Sym=X
Ene= 0.972651
Spin=Alpha
Occup=0
     1   -6.438641880367e-02
     2    9.055787068165e-01
     3   -8.820280622079e-02
     4   -9.810085311027e-02
     5   -1.001057405267e-02
     6    2.499526010014e-02
     7    2.450629785002e-01
     8    5.321617875980e-01
     9    4.745705796858e-01
    10   -4.580651305176e-01
    11   -4.569740925897e-03
    12   -1.475387905771e+00
    13    1.425358339708e+00
    14    1.427239892115e-02
    15   -5.277398393635e-02
    16   -1.281626595226e-02
    17   -9.911933229321e-03
    18    1.574705898627e-02
    19   -3.010059563883e-01
    20   -6.312229493562e-02
    21    9.251533753021e-01
    22    9.541976562751e-02
    23    9.481485401044e-02
    24    1.016633491038e-02
    25   -2.504637214978e-02
    26   -2.452212258228e-01
    27   -5.318381231641e-01
    28    4.822510434710e-01
    29   -4.523714911435e-01
    30   -4.325146331946e-03
    31   -1.501363762046e+00
    32    1.407505982502e+00
    33    1.324223036215e-02
    34    5.251763295051e-02
    35    1.282301339765e-02
    36    9.797808332732e-03
    37   -1.390727843628e-02
    38    2.998359511010e-01
    39    6.296929907491e-02
    40   -9.062882864508e-01
    41    9.475412242693e-02
    42    9.275921063509e-02
    43    1.011363246664e-02
    44    6.716761315052e-02
    45   -9.270372843055e-01
    46   -9.122110002719e-02
    47   -9.824550168967e-02
    48   -1.008184890297e-02
[5D]

======= END OF MOLDEN-FORMATTED INPUT FILE =======


        *************************************************************
        *                                                           *
        *  Thank you very much for using Q-Chem.  Have a nice day.  *
        *                                                           *
        *************************************************************


