                  Welcome to Q-Chem
     A Quantum Leap Into The Future Of Chemistry


 Q-Chem 5.4 (devel), Q-Chem, Inc., Pleasanton, CA (2021)

 E. Epifanovsky,  A. T. B. Gilbert,  Xintian Feng,  Joonho Lee,  Yuezhi Mao,  
 N. Mardirossian,  P. Pokhilko,  A. White,  M. Wormit,  M. P. Coons,  
 A. L. Dempwolff,  Zhengting Gan,  D. Hait,  P. R. Horn,  L. D. Jacobson,  
 I. Kaliman,  J. Kussmann,  A. W. Lange,  Ka Un Lao,  D. S. Levine,  Jie Liu,  
 S. C. McKenzie,  A. F. Morrison,  K. Nanda,  F. Plasser,  D. R. Rehn,  
 M. L. Vidal,  Zhi-Qiang You,  Ying Zhu,  B. Alam,  B. Albrecht,  
 A. Aldossary,  E. Alguire,  J. H. Andersen,  D. Barton,  K. Begam,  A. Behn,  
 Y. A. Bernard,  E. J. Berquist,  H. Burton,  A. Carreras,  K. Carter-Fenk,  
 R. Chakraborty,  A. D. Chien,  K. D. Closser,  V. Cofer-Shabica,  
 S. Dasgupta,  Jia Deng,  M. de Wergifosse,  M. Diedenhofen,  Hainam Do,  
 S. Ehlert,  Po-Tung Fang,  S. Fatehi,  Qingguo Feng,  T. Friedhoff,  
 J. Gayvert,  Qinghui Ge,  G. Gidofalvi,  M. Goldey,  J. Gomes,  
 C. Gonzalez-Espinoza,  S. Gulania,  A. Gunina,  M. W. D. Hanson-Heine,  
 P. H. P. Harbach,  A. W. Hauser,  M. F. Herbst,  M. Hernandez Vera,  
 M. Hodecker,  Z. C. Holden,  S. Houck,  Xunkun Huang,  Kerwin Hui,  
 B. C. Huynh,  M. Ivanov,  Hyunjun Ji,  Hanjie Jiang,  B. Kaduk,  S. Kaehler,  
 K. Khistyaev,  Jaehoon Kim,  P. Klunzinger,  Z. Koczor-Benda,  
 Joong Hoon Koh,  D. Kosenkov,  L. Koulias,  T. Kowalczyk,  C. M. Krauter,  
 K. Kue,  A. Kunitsa,  T. Kus,  A. Landau,  K. V. Lawler,  D. Lefrancois,  
 S. Lehtola,  Rain Li,  Yi-Pei Li,  Jiashu Liang,  M. Liebenthal,  
 Hung-Hsuan Lin,  You-Sheng Lin,  Fenglai Liu,  Kuan-Yu Liu,  
 M. Loipersberger,  A. Luenser,  A. Manjanath,  P. Manohar,  E. Mansoor,  
 S. F. Manzer,  Shan-Ping Mao,  A. V. Marenich,  T. Markovich,  S. Mason,  
 S. A. Maurer,  P. F. McLaughlin,  M. F. S. J. Menger,  J.-M. Mewes,  
 S. A. Mewes,  P. Morgante,  J. W. Mullinax,  K. J. Oosterbaan,  G. Paran,  
 Alexander C. Paul,  Suranjan K. Paul,  F. Pavosevic,  Zheng Pei,  S. Prager,  
 E. I. Proynov,  E. Ramos,  B. Rana,  A. E. Rask,  A. Rettig,  R. M. Richard,  
 F. Rob,  E. Rossomme,  T. Scheele,  M. Scheurer,  M. Schneider,  
 N. Sergueev,  S. M. Sharada,  W. Skomorowski,  D. W. Small,  C. J. Stein,  
 Yu-Chuan Su,  E. J. Sundstrom,  Zhen Tao,  J. Thirman,  T. Tsuchimochi,  
 N. M. Tubman,  S. P. Veccham,  O. Vydrov,  J. Wenzel,  J. Witte,  A. Yamada,  
 Kun Yao,  S. Yeganeh,  S. R. Yost,  A. Zech,  Igor Ying Zhang,  Xing Zhang,  
 Yu Zhang,  D. Zuev,  A. Aspuru-Guzik,  A. T. Bell,  N. A. Besley,  
 K. B. Bravaya,  B. R. Brooks,  D. Casanova,  Jeng-Da Chai,  S. Coriani,  
 C. J. Cramer,  A. E. DePrince, III,  R. A. DiStasio Jr.,  A. Dreuw,  
 B. D. Dunietz,  T. R. Furlani,  W. A. Goddard III,  S. Grimme,  
 S. Hammes-Schiffer,  T. Head-Gordon,  W. J. Hehre,  Chao-Ping Hsu,  
 T.-C. Jagau,  Yousung Jung,  A. Klamt,  Jing Kong,  D. S. Lambrecht,  
 WanZhen Liang,  N. J. Mayhall,  C. W. McCurdy,  J. B. Neaton,  
 C. Ochsenfeld,  J. A. Parkhill,  R. Peverati,  V. A. Rassolov,  Yihan Shao,  
 L. V. Slipchenko,  T. Stauch,  R. P. Steele,  J. E. Subotnik,  
 A. J. W. Thom,  A. Tkatchenko,  D. G. Truhlar,  T. Van Voorhis,  
 T. A. Wesolowski,  K. B. Whaley,  H. L. Woodcock III,  P. M. Zimmerman,  
 S. Faraji,  P. M. W. Gill,  M. Head-Gordon,  J. M. Herbert,  A. I. Krylov

 Additional authors for Version 5.4.1: 
 S. Kotaru,  Shaozhi Li,  Xiangyuan Li,  F. Matz,  A. Molle,  Haisheng Ren,  
 Yingli Su,  Hung-Yi Tsai,  C. Utku,  Fang Wang

 Contributors to earlier versions of Q-Chem not listed above: 
 R. D. Adamson,  B. Austin,  R. Baer,  J. Baker,  G. J. O. Beran,  
 K. Brandhorst,  S. T. Brown,  E. F. C. Byrd,  A. K. Chakraborty,  
 G. K. L. Chan,  Chun-Min Chang,  Yunqing Chen,  C.-L. Cheng,  
 Siu Hung Chien,  D. M. Chipman,  D. L. Crittenden,  H. Dachsel,  
 R. J. Doerksen,  A. D. Dutoi,  R. G. Edgar,  J. Fosso-Tande,  
 L. Fusti-Molnar,  D. Ghosh,  A. Ghysels,  A. Golubeva-Zadorozhnaya,  
 J. Gonthier,  M. S. Gordon,  S. R. Gwaltney,  G. Hawkins,  J. E. Herr,  
 A. Heyden,  S. Hirata,  E. G. Hohenstein,  G. Kedziora,  F. J. Keil,  
 C. Kelley,  Jihan Kim,  R. A. King,  R. Z. Khaliullin,  P. P. Korambath,  
 W. Kurlancheek,  A. Laurent,  A. M. Lee,  M. S. Lee,  S. V. Levchenko,  
 Ching Yeh Lin,  D. Liotard,  E. Livshits,  R. C. Lochan,  I. Lotan,  
 L. A. Martinez-Martinez,  P. E. Maslen,  N. Nair,  D. P. O'Neill,  
 D. Neuhauser,  E. Neuscamman,  C. M. Oana,  R. Olivares-Amaya,  R. Olson,  
 T. M. Perrine,  B. Peters,  P. A. Pieniazek,  A. Prociuk,  Y. M. Rhee,  
 J. Ritchie,  M. A. Rohrdanz,  E. Rosta,  N. J. Russ,  H. F. Schaefer III,  
 M. W. Schmidt,  N. E. Schultz,  S. Sharma,  N. Shenvi,  C. D. Sherrill,  
 A. C. Simmonett,  A. Sodt,  T. Stein,  D. Stuck,  K. S. Thanthiriwatte,  
 V. Vanovschi,  L. Vogt,  Tao Wang,  A. Warshel,  M. A. Watson,  
 C. F. Williams,  Q. Wu,  X. Xu,  Jun Yang,  W. Zhang,  Yan Zhao

 Please cite Q-Chem as follows:
 Y. Shao et al., Mol. Phys. 113, 184-215 (2015)
 DOI: 10.1080/00268976.2014.952696

 Q-Chem 5.4.1 for Intel X86 EM64T Linux

 Parts of Q-Chem use Armadillo 9.800.1 (Horizon Scraper).
 http://arma.sourceforge.net/

 Q-Chem begins on Thu Nov 17 15:39:40 2022  

 Host: cpu197.baobab
0

     Scratch files written to /scratch/fum/qchem4013//
 Processing $rem in /home/share/wesolowski/qc5.aug2021.FDE/config/preferences:
 Processing $rem in /home/fum/.qchemrc:

 Checking the input file for inconsistencies... 	...done.

--------------------------------------------------------------
User input:
--------------------------------------------------------------
$comment
generated from CCJob.Templates
$end

$rem
sym_ignore = true
method = adc(2)
ee_states = 10
basis = cc-pVDZ
mem_static = 1024
mem_total = 40000
adc_davidson_maxiter = 900
adc_davidson_conv = 6
adc_print = 3
adc_prop_es = true
adc_prop_es2es = true
adc_prop_tpa = true
molden_format = True
state_analysis = true
print_orbitals = 15
gen_scfman = false
fde_export_density = true
fde_details = 3
$end

$molecule
0 1
H -0.0248278765 -0.2442097827 0.0636489606
C -1.0765972949 -0.5242748755 -0.0023551776
H -1.313264467 -1.5767591607 -0.0757276926
C -2.043634118 0.3926884087 0.0061254933
H -1.8137616575 1.4459188338 0.0804456828
H -3.085977293 0.114931858 -0.0593381042                     
$end
--------------------------------------------------------------
 ----------------------------------------------------------------
             Standard Nuclear Orientation (Angstroms)
    I     Atom           X                Y                Z
 ----------------------------------------------------------------
    1      H      -0.0248278765    -0.2442097827     0.0636489606
    2      C      -1.0765972949    -0.5242748755    -0.0023551776
    3      H      -1.3132644670    -1.5767591607    -0.0757276926
    4      C      -2.0436341180     0.3926884087     0.0061254933
    5      H      -1.8137616575     1.4459188338     0.0804456828
    6      H      -3.0859772930     0.1149318580    -0.0593381042
 ----------------------------------------------------------------
 Nuclear Repulsion Energy =          33.38864144 hartrees
 There are        8 alpha and        8 beta electrons
 Requested basis set is cc-pVDZ
 There are 24 shells and 48 basis functions
 Total memory of 40000 MB is distributed as follows: 
   MEM_STATIC is set to 1024 MB
   QALLOC/CCMAN JOB total memory use is  38976 MB
 Warning: actual memory use might exceed 40000 MB

 Total QAlloc Memory Limit  40000 MB
 Mega-Array Size      1001 MB
 MEM_STATIC part      1024 MB

                       Distance Matrix (Angstroms)
             H (  1)   C (  2)   H (  3)   C (  4)   H (  5)
   C (  2)  1.090418
   H (  3)  1.858812  1.081258
   C (  4)  2.117670  1.332687  2.102109
   H (  5)  2.461118  2.105215  3.067812  1.080583
   H (  6)  3.084598  2.109370  2.450428  1.080700  1.846510

 A cutoff of  1.0D-11 yielded    300 shell pairs
 There are      1220 function pairs (      1329 Cartesian)
 Smallest overlap matrix eigenvalue = 4.80E-03

 Scale SEOQF with 1.000000e-01/1.000000e-01/1.000000e+00

 Standard Electronic Orientation quadrupole field applied
 Nucleus-field energy     =     0.0000000022 hartrees
 Guess from superposition of atomic densities
 Warning:  Energy on first SCF cycle will be non-variational
 SAD guess density has 16.000000 electrons
 A restricted Hartree-Fock SCF calculation will be
 performed using Pulay DIIS extrapolation
 SCF converges when DIIS error is below 1.0E-08
 using 10 threads for integral computing
 -------------------------------------------------------
 OpenMP Integral computing Module                
 Release: version 1.0, May 2013, Q-Chem Inc. Pittsburgh 
 -------------------------------------------------------
 ---------------------------------------
  Cycle       Energy         DIIS Error
 ---------------------------------------
    1     -78.4318800944      1.01E-01
    2     -78.0176885079      7.20E-03
    3     -78.0382956411      1.84E-03
    4     -78.0397780630      5.73E-04
    5     -78.0398996315      5.89E-05
    6     -78.0399015210      1.14E-05
    7     -78.0399015923      4.68E-06
    8     -78.0399016003      1.00E-06
    9     -78.0399016010      1.66E-07
   10     -78.0399016010      5.35E-08
   11     -78.0399016010      7.89E-09 Convergence criterion met
 ---------------------------------------
 SCF time:  CPU 1.56 s  wall 2.25 s
 SCF   energy in the final basis set = -78.03990160
 Total energy in the final basis set = -78.03990160
Exporting Density Matrix to file 'Densmat_SCF.txt'.
Export successful
================================================================================
|                                                                              |
|                                 A D C  M A N                                 |
|                                                                              |
 ------------------------------------------------------------------------------ 
|                                                                              |
| Components:                                                                  |
|                                                                              |
| - libvmm - 1.3-trunk                                                         |
|   Authors:                                                                   |
|   Evgeny Epifanovsky, Ilya Kaliman                                           |
|                                                                              |
| - libtensor - 2.5-trunk                                                      |
|   Authors:                                                                   |
|   Evgeny Epifanovsky, Michael Wormit, Dmitry Zuev, Sam Manzer,               |
|   Ilya Kaliman                                                               |
|                                                                              |
| - libwfa - 1.1-trunk                                                         |
|   Authors:                                                                   |
|   Felix Plasser, Stefanie Mewes (Baeppler), Benjamin Thomitzni,              |
|   Michael Wormit, Feng Chen, Anna I. Krylov, Pavel Pokhilko                  |
|                                                                              |
| - libadc - 1.1-trunk                                                         |
|   Authors:                                                                   |
|   Michael Wormit, Adrian L. Dempwolff, Philipp H. P. Harbach,                |
|   Caroline Krauter, Dirk Rehn, Matthias Schneider, Jan Wenzel                |
|                                                                              |
| - adcman - 2.6-trunk                                                         |
|   Authors:                                                                   |
|   Michael Wormit, Adrian L. Dempwolff, Philipp H. P. Harbach,                |
|   Caroline Krauter, Daniel Lefrancois, Jan-Michael Mewes, Dirk Rehn,         |
|   Matthias Schneider, Jan Wenzel, Andreas Dreuw                              |
|                                                                              |
| Authors of earlier versions of ADCMAN:                                       |
| Andreas Dreuw, Jan Hendrik Starcke, Dirk Rehn, Michael Wormit                |
|                                                                              |
================================================================================

 Created directory /scratch/fum/qchem4013/plots
  Import QC data ...  CPU 0.00 s  wall 0.00 s

 Alpha MOs, Restricted
 -- Occupied --                  
-11.236 -11.234  -1.032  -0.789  -0.640  -0.582  -0.504  -0.374
  1 A     2 A     3 A     4 A     5 A     6 A     7 A     8 A                  
 -- Virtual --                   
  0.168   0.203   0.233   0.239   0.303   0.462   0.578   0.614
  9 A    10 A    11 A    12 A    13 A    14 A    15 A    16 A                  
  0.689   0.708   0.783   0.808   0.862   0.935   0.972   1.009
 17 A    18 A    19 A    20 A    21 A    22 A    23 A    24 A                  
  1.130   1.235   1.253   1.266   1.293   1.600   1.725   1.749
 25 A    26 A    27 A    28 A    29 A    30 A    31 A    32 A                  
  1.818   1.859   1.864   1.919   1.974   1.978   2.221   2.256
 33 A    34 A    35 A    36 A    37 A    38 A    39 A    40 A                  
  2.373   2.449   2.503   2.630   2.714   2.817   3.134   3.393
 41 A    42 A    43 A    44 A    45 A    46 A    47 A    48 A                  

 Beta MOs, Restricted
 -- Occupied --                  
-11.236 -11.234  -1.032  -0.789  -0.640  -0.582  -0.504  -0.374
  1 A     2 A     3 A     4 A     5 A     6 A     7 A     8 A                  
 -- Virtual --                   
  0.168   0.203   0.233   0.239   0.303   0.462   0.578   0.614
  9 A    10 A    11 A    12 A    13 A    14 A    15 A    16 A                  
  0.689   0.708   0.783   0.808   0.862   0.935   0.972   1.009
 17 A    18 A    19 A    20 A    21 A    22 A    23 A    24 A                  
  1.130   1.235   1.253   1.266   1.293   1.600   1.725   1.749
 25 A    26 A    27 A    28 A    29 A    30 A    31 A    32 A                  
  1.818   1.859   1.864   1.919   1.974   1.978   2.221   2.256
 33 A    34 A    35 A    36 A    37 A    38 A    39 A    40 A                  
  2.373   2.449   2.503   2.630   2.714   2.817   3.134   3.393
 41 A    42 A    43 A    44 A    45 A    46 A    47 A    48 A                  
  Import AO data ...  CPU 0.00 s  wall 0.01 s
  Using point group: C1
  Irreducible representations in point group: A
  Molecular orbitals: 
  Occupied MOs:
  Block   0:   1 (  A) A   2 (  A) A   3 (  A) A   4 (  A) A   5 (  A) A
                  -11.24      -11.23      -1.032     -0.7889     -0.6403
               6 (  A) A   7 (  A) A   8 (  A) A
                 -0.5817     -0.5038     -0.3741
  Block   1:   1 (  A) B   2 (  A) B   3 (  A) B   4 (  A) B   5 (  A) B
                  -11.24      -11.23      -1.032     -0.7889     -0.6403
               6 (  A) B   7 (  A) B   8 (  A) B
                 -0.5817     -0.5038     -0.3741
  Virtual MOs:
  Block   0:   9 (  A) A  10 (  A) A  11 (  A) A  12 (  A) A  13 (  A) A
                  0.1684      0.2034      0.2325       0.239      0.3032
              14 (  A) A  15 (  A) A  16 (  A) A  17 (  A) A  18 (  A) A
                   0.462      0.5777      0.6145       0.689       0.708
              19 (  A) A  20 (  A) A  21 (  A) A  22 (  A) A
                  0.7831      0.8079      0.8616      0.9347
  Block   1:  23 (  A) A  24 (  A) A  25 (  A) A  26 (  A) A  27 (  A) A
                  0.9721       1.009        1.13       1.235       1.253
              28 (  A) A  29 (  A) A  30 (  A) A  31 (  A) A  32 (  A) A
                   1.266       1.293         1.6       1.725       1.749
              33 (  A) A  34 (  A) A  35 (  A) A  36 (  A) A
                   1.818       1.859       1.864       1.919
  Block   2:  37 (  A) A  38 (  A) A  39 (  A) A  40 (  A) A  41 (  A) A
                   1.974       1.978       2.221       2.256       2.373
              42 (  A) A  43 (  A) A  44 (  A) A  45 (  A) A  46 (  A) A
                   2.449       2.503        2.63       2.714       2.817
              47 (  A) A  48 (  A) A
                   3.134       3.393
  Block   3:   9 (  A) B  10 (  A) B  11 (  A) B  12 (  A) B  13 (  A) B
                  0.1684      0.2034      0.2325       0.239      0.3032
              14 (  A) B  15 (  A) B  16 (  A) B  17 (  A) B  18 (  A) B
                   0.462      0.5777      0.6145       0.689       0.708
              19 (  A) B  20 (  A) B  21 (  A) B  22 (  A) B
                  0.7831      0.8079      0.8616      0.9347
  Block   4:  23 (  A) B  24 (  A) B  25 (  A) B  26 (  A) B  27 (  A) B
                  0.9721       1.009        1.13       1.235       1.253
              28 (  A) B  29 (  A) B  30 (  A) B  31 (  A) B  32 (  A) B
                   1.266       1.293         1.6       1.725       1.749
              33 (  A) B  34 (  A) B  35 (  A) B  36 (  A) B
                   1.818       1.859       1.864       1.919
  Block   5:  37 (  A) B  38 (  A) B  39 (  A) B  40 (  A) B  41 (  A) B
                   1.974       1.978       2.221       2.256       2.373
              42 (  A) B  43 (  A) B  44 (  A) B  45 (  A) B  46 (  A) B
                   2.449       2.503        2.63       2.714       2.817
              47 (  A) B  48 (  A) B
                   3.134       3.393
  Import MO data ...  CPU 0.01 s  wall 0.02 s
  Import HF data ...  CPU 0.08 s  wall 0.04 s
  Import 2e integrals ...  CPU 0.68 s  wall 0.13 s

--------------------------------------------------------------------------------
                                   HF Summary                                   
--------------------------------------------------------------------------------
  Energy:                                                  -78.0399016010 a.u.
  Dip. moment [a.u.]:                  [  -0.002397,    0.000339,    0.000232]
  Total dipole [Debye]:                                               0.006182
  <r^2> [a.u.]:                        [ 175.308005,   34.922884,   11.634972]
  Total <r^2> [a.u.]:                                               221.865861
--------------------------------------------------------------------------------
  HF properties ...  CPU 0.01 s  wall 0.01 s
  MP(1) calculation ...  CPU 0.01 s  wall 0.01 s
  N^6 prerequesite intermediates ...  CPU 0.50 s  wall 0.09 s
  Difference density matrix of state mp2_gs printed to ASCII file 'State_mp2_gs_Difference.txt'
Exporting MP density matrix to file 'Densmat_MP.txt'.
Export successful
  Total density matrix of state mp2_gs printed to ASCII file 'State_mp2_gs_Total.txt'
Exporting MP density matrix to file 'Densmat_MP.txt'.
Export successful

--------------------------------------------------------------------------------
                                 MP(2) Summary                                  
--------------------------------------------------------------------------------
  MP energy contribution:                                   -0.2798387919 a.u.
  Total energy:                                            -78.3197403929 a.u.
  Dip. moment [a.u.]:                  [  -0.002229,    0.000369,    0.000238]
  Total dipole [Debye]:                                               0.005775
  <r^2> [a.u.]:                        [ 175.354189,   34.963119,   11.466130]
  Total <r^2> [a.u.]:                                               221.783438

  Density matrix analysis:
  ------------------------
  NOs
    Occupation of frontier NOs:
       0.0453   1.9382
    Number of electrons: 16.000000
    Number of unpaired electrons: n_u =  0.40407, n_u,nl =  0.04519
    NO participation ratio (PR_NO): 13.865766
  
  
  Mulliken Population Analysis
  Atom      Charge (e)              h+              e-           Del q
  --------------------------------------------------------------------
   1 H        0.053479        0.013892       -0.011250        0.002642
   2 C       -0.105422        0.093838       -0.099153       -0.005315
   3 H        0.050814        0.014061       -0.011219        0.002842
   4 C       -0.099898        0.092888       -0.098884       -0.005996
   5 H        0.050281        0.014126       -0.011191        0.002935
   6 H        0.050746        0.014086       -0.011195        0.002892
  --------------------------------------------------------------------
  Sum:       -0.000000        0.242891       -0.242891        0.000000
  
  Multipole moment analysis of the density matrix
    Molecular charge:                      0.000000
    Number of electrons:                   16.000000
      Center of electronic charge [Ang]: [ -1.559877,  -0.065615,   0.001970]
    Total nuclear charge:                  16.000000
      Center of nuclear charge [Ang]:    [ -1.559951,  -0.065602,   0.001978]
    Dipole moment [D]:                     0.005775
      Cartesian components [D]:          [ -0.005666,   0.000937,   0.000604]
    RMS size of the density [Ang]:         1.201698
      Cartesian components [Ang]:        [  0.797366,   0.779494,   0.447966]
  
  Exciton analysis of the difference density matrix
    <r_h> [Ang]:                  [ -1.558289,  -0.066276,   0.001954]
    <r_e> [Ang]:                  [ -1.558655,  -0.066340,   0.001942]
    |<r_e - r_h>| [Ang]:            0.000372
    Hole size [Ang]:                1.394965
      Cartesian components [Ang]: [  0.848689,   0.834104,   0.727959]
    Electron size [Ang]:            1.360056
      Cartesian components [Ang]: [  0.878851,   0.861457,   0.579022]
--------------------------------------------------------------------------------
  MP(2) calculation ...  CPU 0.13 s  wall 0.12 s
  Start ADC(2)-s ...  CPU 0.01 s  wall 0.00 s
  ADC(2) intermediates ...  CPU 0.02 s  wall 0.01 s
  Starting Davidson for singlet states of irrep A ... 
--------------------------------------------------------------------------------
   It NVec Conv  Avg. Norm  Max. Norm  Conv. states           Remark
--------------------------------------------------------------------------------
        10    0  1.330e-01  4.686e-01  0.4118 n n n n n n n n Guess.
    1   20    0  2.308e-02  1.110e-01  0.3263 n n n n n n n n 
    2   30    0  5.828e-03  2.491e-02  0.3215 n n n n n n n n 
    3   40    0  1.857e-03  1.131e-02  0.3211 n n n n n n n n 
    4   50    0  5.865e-04  4.084e-03  0.3211 n n n n n n n n 
    5   20    0  2.844e-04  2.108e-03  0.3211 n n n n n n n n Subspace collapsed.
    6   30    0  1.609e-04  1.378e-03  0.3211 n n n n n n n n 
    7   40    0  8.398e-05  7.575e-04  0.3211 n n n n n n n n 
    8   50    0  9.611e-05  9.031e-04  0.3211 n n n n n n n n 
    9   20    2  6.521e-05  5.781e-04  0.3211 n y n y n n n n Subspace collapsed.
   10   30    4  6.686e-05  6.391e-04  0.3211 n y y y y n n n 
   11   40    5  7.154e-05  7.105e-04  0.3211 n y y y y y n n 
   12   50    6  6.289e-05  6.276e-04  0.3211 y y y y y y n n 
   13   20    6  3.001e-05  2.994e-04  0.3211 y y y y y y n n Subspace collapsed.
   14   30    6  2.168e-05  2.164e-04  0.3211 y y y y y y n n 
   15   40    6  1.104e-05  1.101e-04  0.3211 y y y y y y n n 
   16   50    6  1.227e-05  1.227e-04  0.3211 y y y y y y n n 
   17   20    7  7.824e-06  7.819e-05  0.3211 y y y y y y n y Subspace collapsed.
   18   30    6  1.336e-05  1.336e-04  0.3211 y y y y y y n n 
   19   40    7  1.332e-05  1.332e-04  0.3211 y y y y y y n y 
   20   50    8  1.196e-05  1.196e-04  0.3211 y y y y y y y y 
   21   20    9  5.875e-06  5.874e-05  0.3211 y y y y y y y y Subspace collapsed.
   22   30    9  4.461e-06  4.461e-05  0.3211 y y y y y y y y 
   23   31    9  4.430e-06  4.430e-05  0.3211 y y y y y y y y 
   24   32    9  4.138e-06  4.138e-05  0.3211 y y y y y y y y 
   25   33    9  4.149e-06  4.149e-05  0.3211 y y y y y y y y 
   26   34    9  4.112e-06  4.112e-05  0.3211 y y y y y y y y 
   27   34    9  4.112e-06  4.112e-05  0.3211 y y y y y y y y 
   28   44    9  2.290e-06  2.290e-05  0.3211 y y y y y y y y 
   29   50    9  2.760e-06  2.760e-05  0.3211 y y y y y y y y 
   30   16    9  1.608e-06  1.608e-05  0.3211 y y y y y y y y Subspace collapsed.
   31   22    9  1.903e-06  1.903e-05  0.3211 y y y y y y y y 
   32   27    9  2.396e-06  2.396e-05  0.3211 y y y y y y y y 
   33   27    9  2.396e-06  2.396e-05  0.3211 y y y y y y y y 
   34   37    9  1.919e-06  1.919e-05  0.3211 y y y y y y y y 
   35   41    9  1.534e-06  1.534e-05  0.3211 y y y y y y y y 
   36   45    9  7.299e-07  7.299e-06  0.3211 y y y y y y y y 
   37   49    9  4.434e-07  4.434e-06  0.3211 y y y y y y y y 
   38   50    9  4.040e-07  4.040e-06  0.3211 y y y y y y y y 
   39   14    9  2.047e-07  2.047e-06  0.3211 y y y y y y y y Subspace collapsed.
   40   18    9  1.948e-07  1.948e-06  0.3211 y y y y y y y y 
   41   22    9  1.146e-07  1.146e-06  0.3211 y y y y y y y y 
   42   26   10  7.964e-08  7.964e-07  0.3211 y y y y y y y y Converged.
--------------------------------------------------------------------------------
  Davidson Summary: 
 ------------------------------------------------------------
  State  0: excitation energy =   0.3211 a.u.   (converged)
  State  1: excitation energy =   0.3322 a.u.   (converged)
  State  2: excitation energy =   0.3367 a.u.   (converged)
  State  3: excitation energy =   0.3607 a.u.   (converged)
  State  4: excitation energy =   0.3750 a.u.   (converged)
  State  5: excitation energy =   0.3870 a.u.   (converged)
  State  6: excitation energy =   0.4239 a.u.   (converged)
  State  7: excitation energy =   0.4466 a.u.   (converged)
  State  8: excitation energy =   0.4559 a.u.   (converged)
  State  9: excitation energy =   0.4636 a.u.   (converged)
 ------------------------------------------------------------

  Singlet states of irrep A ...  CPU 95.40 s  wall 33.50 s
  TDMs ...  CPU 0.67 s  wall 0.27 s
  SDMs ...  CPU 1.59 s  wall 0.53 s
  Starting TPA DIIS iterations ... 
------------------------------------ 
   It     Res. Norm  Remark
------------------------------------
                       Guess.
    1     4.401e+00  
    2     5.835e+00  
    3     1.080e+00  
    4     2.593e-01  
    5     6.594e-02  
    6     2.716e-02  
    7     8.295e-03  
    8     1.484e-03  
    9     5.526e-04  
   10     9.208e-05  
   11     2.938e-05  
   12     4.554e-06  
   13     1.481e-06  
   14     4.682e-07  Converged.
   ... Converged in 14 steps (norm: 4.68205e-07)
------------------------------------
  Starting TPA DIIS iterations ... 
------------------------------------ 
   It     Res. Norm  Remark
------------------------------------
                       Guess.
    1     4.184e+00  
    2     5.539e+00  
    3     1.029e+00  
    4     2.548e-01  
    5     6.515e-02  
    6     2.661e-02  
    7     8.125e-03  
    8     1.450e-03  
    9     5.367e-04  
   10     9.023e-05  
   11     2.840e-05  
   12     4.378e-06  
   13     1.456e-06  
   14     4.531e-07  Converged.
   ... Converged in 14 steps (norm: 4.53137e-07)
------------------------------------
  Starting TPA DIIS iterations ... 
------------------------------------ 
   It     Res. Norm  Remark
------------------------------------
                       Guess.
    1     6.880e-01  
    2     4.825e-01  
    3     1.701e-01  
    4     5.963e-02  
    5     1.845e-02  
    6     6.682e-03  
    7     1.051e-03  
    8     4.486e-04  
    9     1.275e-04  
   10     2.590e-05  
   11     7.115e-06  
   12     2.103e-06  
   13     1.441e-06  
   14     6.035e-07  Converged.
   ... Converged in 14 steps (norm: 6.03532e-07)
------------------------------------
  Starting TPA DIIS iterations ... 
------------------------------------ 
   It     Res. Norm  Remark
------------------------------------
                       Guess.
    1     4.673e+00  
    2     6.324e+00  
    3     1.157e+00  
    4     2.867e-01  
    5     7.386e-02  
    6     3.068e-02  
    7     9.353e-03  
    8     1.671e-03  
    9     6.268e-04  
   10     1.050e-04  
   11     3.382e-05  
   12     5.288e-06  
   13     1.732e-06  
   14     5.511e-07  Converged.
   ... Converged in 14 steps (norm: 5.51115e-07)
------------------------------------
  Starting TPA DIIS iterations ... 
------------------------------------ 
   It     Res. Norm  Remark
------------------------------------
                       Guess.
    1     4.442e+00  
    2     6.003e+00  
    3     1.102e+00  
    4     2.815e-01  
    5     7.300e-02  
    6     3.008e-02  
    7     9.163e-03  
    8     1.633e-03  
    9     6.085e-04  
   10     1.029e-04  
   11     3.265e-05  
   12     5.080e-06  
   13     1.702e-06  
   14     5.341e-07  Converged.
   ... Converged in 14 steps (norm: 5.34141e-07)
------------------------------------
  Starting TPA DIIS iterations ... 
------------------------------------ 
   It     Res. Norm  Remark
------------------------------------
                       Guess.
    1     6.994e-01  
    2     4.990e-01  
    3     1.794e-01  
    4     6.703e-02  
    5     1.981e-02  
    6     7.268e-03  
    7     1.179e-03  
    8     5.231e-04  
    9     1.513e-04  
   10     2.880e-05  
   11     8.148e-06  
   12     2.468e-06  
   13     1.783e-06  
   14     7.586e-07  Converged.
   ... Converged in 14 steps (norm: 7.5858e-07)
------------------------------------
  Starting TPA DIIS iterations ... 
------------------------------------ 
   It     Res. Norm  Remark
------------------------------------
                       Guess.
    1     4.793e+00  
    2     6.542e+00  
    3     1.191e+00  
    4     2.991e-01  
    5     7.744e-02  
    6     3.228e-02  
    7     9.831e-03  
    8     1.756e-03  
    9     6.605e-04  
   10     1.108e-04  
   11     3.585e-05  
   12     5.626e-06  
   13     1.849e-06  
   14     5.898e-07  Converged.
   ... Converged in 14 steps (norm: 5.89831e-07)
------------------------------------
  Starting TPA DIIS iterations ... 
------------------------------------ 
   It     Res. Norm  Remark
------------------------------------
                       Guess.
    1     4.556e+00  
    2     6.209e+00  
    3     1.134e+00  
    4     2.935e-01  
    5     7.654e-02  
    6     3.165e-02  
    7     9.632e-03  
    8     1.716e-03  
    9     6.411e-04  
   10     1.086e-04  
   11     3.461e-05  
   12     5.403e-06  
   13     1.816e-06  
   14     5.721e-07  Converged.
   ... Converged in 14 steps (norm: 5.72069e-07)
------------------------------------
  Starting TPA DIIS iterations ... 
------------------------------------ 
   It     Res. Norm  Remark
------------------------------------
                       Guess.
    1     7.042e-01  
    2     5.060e-01  
    3     1.835e-01  
    4     7.043e-02  
    5     2.039e-02  
    6     7.532e-03  
    7     1.238e-03  
    8     5.578e-04  
    9     1.624e-04  
   10     2.986e-05  
   11     8.623e-06  
   12     2.639e-06  
   13     1.947e-06  
   14     8.349e-07  Converged.
   ... Converged in 14 steps (norm: 8.34892e-07)
------------------------------------
  Starting TPA DIIS iterations ... 
------------------------------------ 
   It     Res. Norm  Remark
------------------------------------
                       Guess.
    1     5.517e+00  
    2     7.892e+00  
    3     1.394e+00  
    4     3.784e-01  
    5     1.004e-01  
    6     4.263e-02  
    7     1.290e-02  
    8     2.298e-03  
    9     8.787e-04  
   10     1.489e-04  
   11     4.930e-05  
   12     7.867e-06  
   13     2.638e-06  
   14     8.571e-07  Converged.
   ... Converged in 14 steps (norm: 8.57119e-07)
------------------------------------
  Starting TPA DIIS iterations ... 
------------------------------------ 
   It     Res. Norm  Remark
------------------------------------
                       Guess.
    1     5.242e+00  
    2     7.490e+00  
    3     1.327e+00  
    4     3.706e-01  
    5     9.926e-02  
    6     4.184e-02  
    7     1.264e-02  
    8     2.244e-03  
    9     8.516e-04  
   10     1.458e-04  
   11     4.748e-05  
   12     7.545e-06  
   13     2.588e-06  
   14     8.355e-07  Converged.
   ... Converged in 14 steps (norm: 8.35486e-07)
------------------------------------
  Starting TPA DIIS iterations ... 
------------------------------------ 
   It     Res. Norm  Remark
------------------------------------
                       Guess.
    1     7.307e-01  
    2     5.466e-01  
    3     2.073e-01  
    4     9.290e-02  
    5     2.390e-02  
    6     9.231e-03  
    7     1.630e-03  
    8     7.856e-04  
    9     2.343e-04  
   10     3.399e-05  
   11     1.180e-05  
   12     3.831e-06  
   13     3.138e-06  
   14     1.408e-06  
   15     5.622e-07  Converged.
   ... Converged in 15 steps (norm: 5.62217e-07)
------------------------------------
  Starting TPA DIIS iterations ... 
------------------------------------ 
   It     Res. Norm  Remark
------------------------------------
                       Guess.
    1     6.037e+00  
    2     8.895e+00  
    3     1.540e+00  
    4     4.396e-01  
    5     1.181e-01  
    6     5.071e-02  
    7     1.527e-02  
    8     2.715e-03  
    9     1.049e-03  
   10     1.786e-04  
   11     6.002e-05  
   12     9.662e-06  
   13     3.287e-06  
   14     1.086e-06  
   15     3.625e-07  Converged.
   ... Converged in 15 steps (norm: 3.62496e-07)
------------------------------------
  Starting TPA DIIS iterations ... 
------------------------------------ 
   It     Res. Norm  Remark
------------------------------------
                       Guess.
    1     5.735e+00  
    2     8.441e+00  
    3     1.465e+00  
    4     4.299e-01  
    5     1.168e-01  
    6     4.980e-02  
    7     1.497e-02  
    8     2.650e-03  
    9     1.016e-03  
   10     1.749e-04  
   11     5.772e-05  
   12     9.261e-06  
   13     3.222e-06  
   14     1.063e-06  
   15     3.589e-07  Converged.
   ... Converged in 15 steps (norm: 3.5891e-07)
------------------------------------
  Starting TPA DIIS iterations ... 
------------------------------------ 
   It     Res. Norm  Remark
------------------------------------
                       Guess.
    1     7.474e-01  
    2     5.737e-01  
    3     2.239e-01  
    4     1.109e-01  
    5     2.644e-02  
    6     1.055e-02  
    7     1.949e-03  
    8     9.568e-04  
    9     2.879e-04  
   10     3.572e-05  
   11     1.443e-05  
   12     4.856e-06  
   13     4.200e-06  
   14     1.938e-06  
   15     7.625e-07  Converged.
   ... Converged in 15 steps (norm: 7.62531e-07)
------------------------------------
  Starting TPA DIIS iterations ... 
------------------------------------ 
   It     Res. Norm  Remark
------------------------------------
                       Guess.
    1     6.539e+00  
    2     9.887e+00  
    3     1.679e+00  
    4     5.018e-01  
    5     1.360e-01  
    6     5.899e-02  
    7     1.768e-02  
    8     3.138e-03  
    9     1.223e-03  
   10     2.090e-04  
   11     7.110e-05  
   12     1.153e-05  
   13     3.970e-06  
   14     1.341e-06  
   15     4.521e-07  Converged.
   ... Converged in 15 steps (norm: 4.52063e-07)
------------------------------------
  Starting TPA DIIS iterations ... 
------------------------------------ 
   It     Res. Norm  Remark
------------------------------------
                       Guess.
    1     6.211e+00  
    2     9.382e+00  
    3     1.597e+00  
    4     4.901e-01  
    5     1.346e-01  
    6     5.796e-02  
    7     1.733e-02  
    8     3.061e-03  
    9     1.183e-03  
   10     2.046e-04  
   11     6.830e-05  
   12     1.105e-05  
   13     3.890e-06  
   14     1.317e-06  
   15     4.480e-07  Converged.
   ... Converged in 15 steps (norm: 4.48001e-07)
------------------------------------
  Starting TPA DIIS iterations ... 
------------------------------------ 
   It     Res. Norm  Remark
------------------------------------
                       Guess.
    1     7.621e-01  
    2     5.985e-01  
    3     2.394e-01  
    4     1.295e-01  
    5     2.895e-02  
    6     1.190e-02  
    7     2.286e-03  
    8     1.118e-03  
    9     3.392e-04  
   10     3.775e-05  
   11     1.726e-05  
   12     5.987e-06  
   13     5.390e-06  
   14     2.542e-06  
   15     1.008e-06  
   16     4.406e-07  Converged.
   ... Converged in 16 steps (norm: 4.40611e-07)
------------------------------------
  Starting TPA DIIS iterations ... 
------------------------------------ 
   It     Res. Norm  Remark
------------------------------------
                       Guess.
    1     8.592e+00  
    2     1.418e+01  
    3     2.239e+00  
    4     7.833e-01  
    5     2.173e-01  
    6     9.730e-02  
    7     2.859e-02  
    8     5.047e-03  
    9     2.027e-03  
   10     3.487e-04  
   11     1.218e-04  
   12     2.030e-05  
   13     7.178e-06  
   14     2.785e-06  
   15     9.377e-07  Converged.
   ... Converged in 15 steps (norm: 9.37662e-07)
------------------------------------
  Starting TPA DIIS iterations ... 
------------------------------------ 
   It     Res. Norm  Remark
------------------------------------
                       Guess.
    1     8.158e+00  
    2     1.346e+01  
    3     2.129e+00  
    4     7.615e-01  
    5     2.152e-01  
    6     9.575e-02  
    7     2.803e-02  
    8     4.912e-03  
    9     1.955e-03  
   10     3.411e-04  
   11     1.168e-04  
   12     1.948e-05  
   13     7.052e-06  
   14     2.771e-06  
   15     9.356e-07  Converged.
   ... Converged in 15 steps (norm: 9.35608e-07)
------------------------------------
  Starting TPA DIIS iterations ... 
------------------------------------ 
   It     Res. Norm  Remark
------------------------------------
                       Guess.
    1     8.112e-01  
    2     6.898e-01  
    3     2.993e-01  
    4     2.155e-01  
    5     4.000e-02  
    6     1.796e-02  
    7     3.918e-03  
    8     1.623e-03  
    9     5.356e-04  
   10     5.867e-05  
   11     3.183e-05  
   12     1.216e-05  
   13     1.176e-05  
   14     5.921e-06  
   15     2.654e-06  
   16     1.145e-06  
   17     3.256e-07  Converged.
   ... Converged in 17 steps (norm: 3.25553e-07)
------------------------------------
  Starting TPA DIIS iterations ... 
------------------------------------ 
   It     Res. Norm  Remark
------------------------------------
                       Guess.
    1     1.043e+01  
    2     1.829e+01  
    3     2.727e+00  
    4     1.063e+00  
    5     2.989e-01  
    6     1.366e-01  
    7     3.953e-02  
    8     6.953e-03  
    9     2.849e-03  
   10     4.902e-04  
   11     1.712e-04  
   12     2.958e-05  
   13     1.040e-05  
   14     4.705e-06  
   15     1.587e-06  
   16     1.131e-06  
   17     2.844e-07  Converged.
   ... Converged in 17 steps (norm: 2.84437e-07)
------------------------------------
  Starting TPA DIIS iterations ... 
------------------------------------ 
   It     Res. Norm  Remark
------------------------------------
                       Guess.
    1     9.896e+00  
    2     1.736e+01  
    3     2.592e+00  
    4     1.030e+00  
    5     2.961e-01  
    6     1.346e-01  
    7     3.876e-02  
    8     6.752e-03  
    9     2.741e-03  
   10     4.793e-04  
   11     1.642e-04  
   12     2.844e-05  
   13     1.026e-05  
   14     4.721e-06  
   15     1.595e-06  
   16     1.208e-06  
   17     3.123e-07  Converged.
   ... Converged in 17 steps (norm: 3.12289e-07)
------------------------------------
  Starting TPA DIIS iterations ... 
------------------------------------ 
   It     Res. Norm  Remark
------------------------------------
                       Guess.
    1     8.452e-01  
    2     7.611e-01  
    3     3.488e-01  
    4     2.976e-01  
    5     5.077e-02  
    6     2.372e-02  
    7     5.623e-03  
    8     1.848e-03  
    9     6.949e-04  
   10     8.843e-05  
   11     4.862e-05  
   12     1.999e-05  
   13     1.900e-05  
   14     1.004e-05  
   15     4.932e-06  
   16     2.129e-06  
   17     7.418e-07  Converged.
   ... Converged in 17 steps (norm: 7.41836e-07)
------------------------------------
  Starting TPA DIIS iterations ... 
------------------------------------ 
   It     Res. Norm  Remark
------------------------------------
                       Guess.
    1     1.136e+01  
    2     2.049e+01  
    3     2.971e+00  
    4     1.213e+00  
    5     3.433e-01  
    6     1.583e-01  
    7     4.548e-02  
    8     7.988e-03  
    9     3.301e-03  
   10     5.675e-04  
   11     1.973e-04  
   12     3.489e-05  
   13     1.221e-05  
   14     5.931e-06  
   15     2.038e-06  
   16     1.527e-06  
   17     3.766e-07  Converged.
   ... Converged in 17 steps (norm: 3.76586e-07)
------------------------------------
  Starting TPA DIIS iterations ... 
------------------------------------ 
   It     Res. Norm  Remark
------------------------------------
                       Guess.
    1     1.078e+01  
    2     1.944e+01  
    3     2.824e+00  
    4     1.174e+00  
    5     3.402e-01  
    6     1.560e-01  
    7     4.460e-02  
    8     7.750e-03  
    9     3.173e-03  
   10     5.547e-04  
   11     1.893e-04  
   12     3.357e-05  
   13     1.206e-05  
   14     5.974e-06  
   15     2.053e-06  
   16     1.630e-06  
   17     4.209e-07  Converged.
   ... Converged in 17 steps (norm: 4.20862e-07)
------------------------------------
  Starting TPA DIIS iterations ... 
------------------------------------ 
   It     Res. Norm  Remark
------------------------------------
                       Guess.
    1     8.602e-01  
    2     7.949e-01  
    3     3.728e-01  
    4     3.387e-01  
    5     5.650e-02  
    6     2.663e-02  
    7     6.547e-03  
    8     1.912e-03  
    9     7.727e-04  
   10     1.050e-04  
   11     5.844e-05  
   12     2.491e-05  
   13     2.319e-05  
   14     1.250e-05  
   15     6.363e-06  
   16     2.757e-06  
   17     1.040e-06  
   18     4.533e-07  Converged.
   ... Converged in 18 steps (norm: 4.53285e-07)
------------------------------------
  Starting TPA DIIS iterations ... 
------------------------------------ 
   It     Res. Norm  Remark
------------------------------------
                       Guess.
    1     1.224e+01  
    2     2.259e+01  
    3     3.198e+00  
    4     1.358e+00  
    5     3.863e-01  
    6     1.795e-01  
    7     5.126e-02  
    8     8.992e-03  
    9     3.742e-03  
   10     6.426e-04  
   11     2.222e-04  
   12     4.025e-05  
   13     1.406e-05  
   14     7.231e-06  
   15     2.553e-06  
   16     1.971e-06  
   17     4.871e-07  Converged.
   ... Converged in 17 steps (norm: 4.87127e-07)
------------------------------------
  Starting TPA DIIS iterations ... 
------------------------------------ 
   It     Res. Norm  Remark
------------------------------------
                       Guess.
    1     1.162e+01  
    2     2.144e+01  
    3     3.039e+00  
    4     1.313e+00  
    5     3.829e-01  
    6     1.770e-01  
    7     5.026e-02  
    8     8.716e-03  
    9     3.595e-03  
   10     6.279e-04  
   11     2.133e-04  
   12     3.873e-05  
   13     1.387e-05  
   14     7.310e-06  
   15     2.577e-06  
   16     2.103e-06  
   17     5.486e-07  Converged.
   ... Converged in 17 steps (norm: 5.48575e-07)
------------------------------------
  Starting TPA DIIS iterations ... 
------------------------------------ 
   It     Res. Norm  Remark
------------------------------------
                       Guess.
    1     8.730e-01  
    2     8.253e-01  
    3     3.947e-01  
    4     3.757e-01  
    5     6.197e-02  
    6     2.928e-02  
    7     7.434e-03  
    8     1.958e-03  
    9     8.439e-04  
   10     1.209e-04  
   11     6.834e-05  
   12     3.012e-05  
   13     2.751e-05  
   14     1.503e-05  
   15     7.861e-06  
   16     3.414e-06  
   17     1.362e-06  
   18     5.674e-07  Converged.
   ... Converged in 18 steps (norm: 5.67409e-07)
------------------------------------
  Two-photon absorbption ...  CPU 75.00 s  wall 18.52 s
  Transition density matrix of state singlet_A_1 printed to ASCII file 'State_singlet_A_1_Transition.txt'
  Transition density matrix of state singlet_A_2 printed to ASCII file 'State_singlet_A_2_Transition.txt'
  Transition density matrix of state singlet_A_3 printed to ASCII file 'State_singlet_A_3_Transition.txt'
  Transition density matrix of state singlet_A_4 printed to ASCII file 'State_singlet_A_4_Transition.txt'
  Transition density matrix of state singlet_A_5 printed to ASCII file 'State_singlet_A_5_Transition.txt'
  Transition density matrix of state singlet_A_6 printed to ASCII file 'State_singlet_A_6_Transition.txt'
  Transition density matrix of state singlet_A_7 printed to ASCII file 'State_singlet_A_7_Transition.txt'
  Transition density matrix of state singlet_A_8 printed to ASCII file 'State_singlet_A_8_Transition.txt'
  Transition density matrix of state singlet_A_9 printed to ASCII file 'State_singlet_A_9_Transition.txt'
  Transition density matrix of state singlet_A_10 printed to ASCII file 'State_singlet_A_10_Transition.txt'
  Transition properties ...  CPU 0.16 s  wall 0.32 s
  Difference density matrix of state singlet_A_1 printed to ASCII file 'State_singlet_A_1_Difference.txt'
  Total density matrix of state singlet_A_1 printed to ASCII file 'State_singlet_A_1_Total.txt'
  Difference density matrix of state singlet_A_2 printed to ASCII file 'State_singlet_A_2_Difference.txt'
  Total density matrix of state singlet_A_2 printed to ASCII file 'State_singlet_A_2_Total.txt'
  Difference density matrix of state singlet_A_3 printed to ASCII file 'State_singlet_A_3_Difference.txt'
  Total density matrix of state singlet_A_3 printed to ASCII file 'State_singlet_A_3_Total.txt'
  Difference density matrix of state singlet_A_4 printed to ASCII file 'State_singlet_A_4_Difference.txt'
  Total density matrix of state singlet_A_4 printed to ASCII file 'State_singlet_A_4_Total.txt'
  Difference density matrix of state singlet_A_5 printed to ASCII file 'State_singlet_A_5_Difference.txt'
  Total density matrix of state singlet_A_5 printed to ASCII file 'State_singlet_A_5_Total.txt'
  Difference density matrix of state singlet_A_6 printed to ASCII file 'State_singlet_A_6_Difference.txt'
  Total density matrix of state singlet_A_6 printed to ASCII file 'State_singlet_A_6_Total.txt'
  Difference density matrix of state singlet_A_7 printed to ASCII file 'State_singlet_A_7_Difference.txt'
  Total density matrix of state singlet_A_7 printed to ASCII file 'State_singlet_A_7_Total.txt'
  Difference density matrix of state singlet_A_8 printed to ASCII file 'State_singlet_A_8_Difference.txt'
  Total density matrix of state singlet_A_8 printed to ASCII file 'State_singlet_A_8_Total.txt'
  Difference density matrix of state singlet_A_9 printed to ASCII file 'State_singlet_A_9_Difference.txt'
  Total density matrix of state singlet_A_9 printed to ASCII file 'State_singlet_A_9_Total.txt'
  Difference density matrix of state singlet_A_10 printed to ASCII file 'State_singlet_A_10_Difference.txt'
  Total density matrix of state singlet_A_10 printed to ASCII file 'State_singlet_A_10_Total.txt'
  Properties ...  CPU 0.30 s  wall 0.52 s
  ISR TDMS ...  CPU 9.01 s  wall 3.17 s
  ISR transition properties ...  CPU 0.17 s  wall 0.08 s
  Sum-over-states TPA ...  CPU 0.00 s  wall 0.00 s

--------------------------------------------------------------------------------
                   State-averaged natural transition orbitals
--------------------------------------------------------------------------------
--------------------------------------------------------------------------------
  SA-NTO decomposition ...  CPU 0.01 s  wall 0.02 s

--------------------------------------------------------------------------------
                             Excited State Summary
--------------------------------------------------------------------------------
--------------------------------------------------------------------------------

  Excited state 1 (singlet, A)                                     [converged]
  ----------------------------------------------------------------------------
  Term symbol:  2 (1) A                                     R^2 =  6.89046e-14

  Total energy:                                            -77.9986395882 a.u.
  Excitation energy:                                               8.737597 eV

  Osc. strength:                                                      0.445846
  Trans. dip. moment [a.u.]:           [  -1.046777,    0.993435,    0.009134]
  <i|r^2|0> [a.u.]:                    [  -6.164672,    0.245791,    0.000775]
  Two-photon absorption cross-section (SoS) [a.u.]:                   0.002894
  Two-photon absorption matrix (SoS) [a.u.]:
                                       |    0.001733    0.014422    0.002058 |
                                       |    0.014422    0.001466    0.001534 |
                                       |    0.002058    0.001534   -0.014868 |
  Two-photon absorption cross-section [a.u.]:                         0.002141
  Two-photon absorption matrix [a.u.]:
                                       |    0.001668    0.010278   -0.000617 |
                                       |    0.010278    0.003389   -0.001417 |
                                       |   -0.000617   -0.001417   -0.015744 |

  Dip. moment [a.u.]:                  [  -0.002048,    0.000243,    0.000328]
  Total dipole [Debye]:                                               0.005308
  <r^2> [a.u.]:                        [ 176.107576,   35.653184,   11.876304]
  Total <r^2> [a.u.]:                                               223.637064

  V1^2 = 0.9714, V2^2 = 0.0286

  Important amplitudes:
      occ i     occ j     vir a      vir b          v   
    -----------------------------------------------------
     8 (A) A              9 (A) A                 0.6810
     6 (A) A             14 (A) A                -0.0622
     4 (A) A             10 (A) A                 0.0609
     7 (A) A             16 (A) A                -0.0570
     5 (A) A             13 (A) A                 0.0515
     6 (A) A             23 (A) A                -0.0486
     8 (A) A             20 (A) A                -0.0350
     6 (A) A             19 (A) A                -0.0307
     3 (A) A             12 (A) A                -0.0281
     5 (A) A             22 (A) A                 0.0215
     7 (A) A             11 (A) A                 0.0206
     4 (A) A             24 (A) A                 0.0188
     3 (A) A             26 (A) A                -0.0186
     8 (A) A   8 (A) B   17 (A) A   20 (A) B      0.0184
     8 (A) A   8 (A) B    9 (A) A   28 (A) B     -0.0168
     6 (A) A             26 (A) A                 0.0163
     7 (A) A             21 (A) A                -0.0149
     3 (A) A             14 (A) A                 0.0140
     6 (A) A             12 (A) A                -0.0133
     3 (A) A   4 (A) B    9 (A) A    9 (A) B     -0.0129
     3 (A) A             19 (A) A                 0.0119
     8 (A) A   8 (A) B   18 (A) A   19 (A) B     -0.0112
     7 (A) A             32 (A) A                -0.0095
     7 (A) A             36 (A) A                 0.0085
     3 (A) A             23 (A) A                 0.0081
     8 (A) A   8 (A) B   25 (A) A   29 (A) B     -0.0076
     6 (A) A             35 (A) A                -0.0072
     6 (A) A             40 (A) A                 0.0068
     3 (A) A   6 (A) B    9 (A) A   28 (A) B      0.0065
     6 (A) A   8 (A) A   19 (A) A   28 (A) A     -0.0061
     5 (A) A   7 (A) B    9 (A) A    9 (A) B      0.0060
     7 (A) A   8 (A) B   13 (A) A   20 (A) B     -0.0059
     5 (A) A   8 (A) B   11 (A) A   20 (A) B     -0.0059
     5 (A) A   8 (A) B   16 (A) A    9 (A) B     -0.0059
     5 (A) A   8 (A) B   11 (A) A    9 (A) B     -0.0059
     3 (A) A   5 (A) B    9 (A) A   25 (A) B     -0.0058
     7 (A) A   8 (A) B   22 (A) A   20 (A) B     -0.0057
     3 (A) A             40 (A) A                -0.0057
     6 (A) A   8 (A) A    9 (A) A   18 (A) A      0.0056
     8 (A) A   8 (A) B   19 (A) A   30 (A) B     -0.0056
    -----------------------------------------------------

  Density matrix analysis:
  ------------------------
  NOs
    Occupation of frontier NOs:
       0.9494   1.0217
    Number of electrons: 16.000000
    Number of unpaired electrons: n_u =  2.31398, n_u,nl =  2.03275
    NO participation ratio (PR_NO):  2.865787
  
  
  Mulliken Population Analysis
  Atom      Charge (e)              h+              e-           Del q
  --------------------------------------------------------------------
   1 H        0.061373        0.020387       -0.012493        0.007894
   2 C       -0.120847        0.490887       -0.506313       -0.015426
   3 H        0.058352        0.020130       -0.012592        0.007538
   4 C       -0.115410        0.490702       -0.506215       -0.015513
   5 H        0.057938        0.020201       -0.012544        0.007657
   6 H        0.058595        0.020378       -0.012529        0.007849
  --------------------------------------------------------------------
  Sum:       -0.000000        1.062685       -1.062685       -0.000000
  
  Multipole moment analysis of the density matrix
    Molecular charge:                      -0.000000
    Number of electrons:                   16.000000
      Center of electronic charge [Ang]: [ -1.559883,  -0.065610,   0.001967]
    Total nuclear charge:                  16.000000
      Center of nuclear charge [Ang]:    [ -1.559951,  -0.065602,   0.001978]
    Dipole moment [D]:                     0.005308
      Cartesian components [D]:          [ -0.005205,   0.000618,   0.000835]
    RMS size of the density [Ang]:         1.215114
      Cartesian components [Ang]:        [  0.805581,   0.787204,   0.455909]
  
  Exciton analysis of the difference density matrix
    <r_h> [Ang]:                  [ -1.559988,  -0.065808,   0.001797]
    <r_e> [Ang]:                  [ -1.560079,  -0.065745,   0.001752]
    |<r_e - r_h>| [Ang]:            0.000119
    Hole size [Ang]:                1.285717
      Cartesian components [Ang]: [  0.729079,   0.712602,   0.783396]
    Electron size [Ang]:            1.463299
      Cartesian components [Ang]: [  0.854283,   0.830451,   0.849585]

  Transition density matrix analysis:
  -----------------------------------
  
  CT numbers (Mulliken)
    omega =     0.9535
    <Phe> =    -0.1605
  
  Exciton analysis of the transition density matrix
    Trans. dipole moment [D]:             1.834086
      Cartesian components [D]:         [ -1.330320,   1.262530,   0.011608]
    <r_h> [Ang]:                        [ -1.560113,  -0.065857,   0.001822]
    <r_e> [Ang]:                        [ -1.560039,  -0.065733,   0.001729]
    |<r_e - r_h>| [Ang]:                  0.000172
    Hole size [Ang]:                      1.214157
      Cartesian components [Ang]:       [  0.649729,   0.636393,   0.804383]
    Electron size [Ang]:                  1.486161
      Cartesian components [Ang]:       [  0.864718,   0.839358,   0.869721]
    RMS electron-hole separation [Ang]:   1.936686
      Cartesian components [Ang]:       [  1.106788,   1.075111,   1.170432]
    Covariance(r_h, r_e) [Ang^2]:        -0.033952
    Correlation coefficient:             -0.018816
    Center-of-mass size [Ang]:            0.950651
      Cartesian components [Ang]:       [  0.527919,   0.515551,   0.599371]

  Decomposition into state-averaged NTOs
    H- 0 -> L+ 0:  0.6699 ( 89.7%)
    H- 2 -> L+ 5:  0.0835 (  1.4%)
                   omega =  95.3%
  ----------------------------------------------------------------------------


  Excited state 2 (singlet, A)                                     [converged]
  ----------------------------------------------------------------------------
  Term symbol:  3 (1) A                                     R^2 =  2.48777e-13

  Total energy:                                            -77.9875363284 a.u.
  Excitation energy:                                               9.039732 eV

  Osc. strength:                                                      0.000032
  Trans. dip. moment [a.u.]:           [  -0.005607,    0.004640,    0.009551]
  <i|r^2|0> [a.u.]:                    [   0.032193,    0.086094,   -0.150202]
  Two-photon absorption cross-section (SoS) [a.u.]:                   4.948586
  Two-photon absorption matrix (SoS) [a.u.]:
                                       |    0.055037    0.059268   -0.564678 |
                                       |    0.059268    0.063129   -0.534580 |
                                       |   -0.564678   -0.534580   -0.117614 |
  Two-photon absorption cross-section [a.u.]:                         0.089387
  Two-photon absorption matrix [a.u.]:
                                       |   -0.003513   -0.007702    0.078545 |
                                       |   -0.007702   -0.012146    0.068872 |
                                       |    0.078545    0.068872    0.015594 |

  Dip. moment [a.u.]:                  [  -0.007100,   -0.013045,   -0.000388]
  Total dipole [Debye]:                                               0.037763
  <r^2> [a.u.]:                        [ 174.479793,   33.991620,   13.177712]
  Total <r^2> [a.u.]:                                               221.649125

  V1^2 = 0.9542, V2^2 = 0.0458

  Important amplitudes:
      occ i     occ j     vir a      vir b          v   
    -----------------------------------------------------
     7 (A) A              9 (A) A                 0.6687
     8 (A) A             11 (A) A                 0.1490
     7 (A) A             20 (A) A                -0.0758
     5 (A) A   8 (A) B    9 (A) A    9 (A) B      0.0316
     8 (A) A             16 (A) A                 0.0275
     8 (A) A             21 (A) A                -0.0177
     8 (A) A             10 (A) A                -0.0172
     5 (A) A             28 (A) A                 0.0150
     4 (A) A   7 (A) B    9 (A) A   19 (A) B     -0.0135
     5 (A) A   7 (A) B    9 (A) A   16 (A) B      0.0134
     8 (A) A             12 (A) A                -0.0109
     7 (A) A   8 (A) B   20 (A) A   17 (A) B      0.0105
     7 (A) A   8 (A) A    9 (A) A   28 (A) A      0.0098
     5 (A) A   8 (A) B    9 (A) A   20 (A) B     -0.0095
     4 (A) A   6 (A) B    9 (A) A   16 (A) B     -0.0091
     5 (A) A   6 (A) A    9 (A) A   23 (A) A      0.0091
     5 (A) A   6 (A) A    9 (A) A   14 (A) A      0.0089
     5 (A) A   6 (A) B    9 (A) A   19 (A) B      0.0086
     8 (A) A   7 (A) B    9 (A) A   28 (A) B     -0.0085
     4 (A) A   5 (A) A    9 (A) A   10 (A) A      0.0085
     6 (A) A   7 (A) B    9 (A) A   18 (A) B      0.0084
     5 (A) A   6 (A) B    9 (A) A   23 (A) B      0.0080
     3 (A) A   7 (A) B    9 (A) A   18 (A) B      0.0079
     5 (A) A   7 (A) A    9 (A) A   16 (A) A      0.0079
     4 (A) A   8 (A) B    9 (A) A   25 (A) B      0.0077
     7 (A) A   8 (A) B   17 (A) A   20 (A) B      0.0074
     4 (A) A   7 (A) B   19 (A) A    9 (A) B     -0.0074
     5 (A) A   5 (A) B    9 (A) A   13 (A) B     -0.0072
     7 (A) A   8 (A) B   19 (A) A   18 (A) B     -0.0071
     5 (A) A   8 (A) A    9 (A) A   20 (A) A     -0.0069
     4 (A) A   5 (A) B    9 (A) A   18 (A) B     -0.0068
     7 (A) A   7 (A) B   20 (A) A   22 (A) B     -0.0065
     7 (A) A   8 (A) B   17 (A) A    9 (A) B     -0.0065
     5 (A) A   6 (A) B    9 (A) A   14 (A) B      0.0063
     4 (A) A   7 (A) A    9 (A) A   19 (A) A     -0.0061
     4 (A) A   5 (A) B   10 (A) A    9 (A) B     -0.0061
     5 (A) A   7 (A) B   11 (A) A   20 (A) B     -0.0060
     4 (A) A   7 (A) B    9 (A) A   14 (A) B      0.0060
     4 (A) A   8 (A) A    9 (A) A   25 (A) A      0.0057
     6 (A) A   7 (A) A   19 (A) A   28 (A) A     -0.0057
    -----------------------------------------------------

  Density matrix analysis:
  ------------------------
  NOs
    Occupation of frontier NOs:
       0.9567   1.0549
    Number of electrons: 16.000000
    Number of unpaired electrons: n_u =  2.35586, n_u,nl =  2.06378
    NO participation ratio (PR_NO):  3.035958
  
  
  Mulliken Population Analysis
  Atom      Charge (e)              h+              e-           Del q
  --------------------------------------------------------------------
   1 H        0.150620        0.125341       -0.028200        0.097141
   2 C       -0.305282        0.272945       -0.472805       -0.199860
   3 H        0.155058        0.125748       -0.021504        0.104244
   4 C       -0.300756        0.271101       -0.471959       -0.200858
   5 H        0.149660        0.126514       -0.027135        0.099379
   6 H        0.150700        0.122006       -0.022052        0.099954
  --------------------------------------------------------------------
  Sum:       -0.000000        1.043656       -1.043656       -0.000000
  
  Multipole moment analysis of the density matrix
    Molecular charge:                      -0.000000
    Number of electrons:                   16.000000
      Center of electronic charge [Ang]: [ -1.559716,  -0.065171,   0.001991]
    Total nuclear charge:                  16.000000
      Center of nuclear charge [Ang]:    [ -1.559951,  -0.065602,   0.001978]
    Dipole moment [D]:                     0.037763
      Cartesian components [D]:          [ -0.018048,  -0.033157,  -0.000985]
    RMS size of the density [Ang]:         1.200953
      Cartesian components [Ang]:        [  0.788031,   0.768548,   0.480239]
  
  Exciton analysis of the difference density matrix
    <r_h> [Ang]:                  [ -1.553838,  -0.065156,   0.002327]
    <r_e> [Ang]:                  [ -1.551368,  -0.058354,   0.002644]
    |<r_e - r_h>| [Ang]:            0.007243
    Hole size [Ang]:                1.487841
      Cartesian components [Ang]: [  1.004933,   0.998288,   0.455196]
    Electron size [Ang]:            1.478561
      Cartesian components [Ang]: [  0.884842,   0.858342,   0.816361]

  Transition density matrix analysis:
  -----------------------------------
  
  CT numbers (Mulliken)
    omega =     0.9217
    <Phe> =    -0.0120
  
  Exciton analysis of the transition density matrix
    Trans. dipole moment [D]:             0.015260
      Cartesian components [D]:         [ -0.007125,   0.005897,   0.012138]
    <r_h> [Ang]:                        [ -1.553528,  -0.065530,   0.002359]
    <r_e> [Ang]:                        [ -1.551166,  -0.057570,   0.002652]
    |<r_e - r_h>| [Ang]:                  0.008309
    Hole size [Ang]:                      1.516596
      Cartesian components [Ang]:       [  1.027954,   1.022366,   0.445131]
    Electron size [Ang]:                  1.475417
      Cartesian components [Ang]:       [  0.875324,   0.847538,   0.832071]
    RMS electron-hole separation [Ang]:   2.096098
      Cartesian components [Ang]:       [  1.334275,   1.313115,   0.942904]
    Covariance(r_h, r_e) [Ang^2]:         0.041680
    Correlation coefficient:              0.018627
    Center-of-mass size [Ang]:            1.067741
      Cartesian components [Ang]:       [  0.682913,   0.671361,   0.472202]

  Decomposition into state-averaged NTOs
    H- 1 -> L+ 0:  0.6611 ( 87.4%)
    H- 0 -> L+ 2:  0.1496 (  4.5%)
                   omega =  92.2%
  ----------------------------------------------------------------------------


  Excited state 3 (singlet, A)                                     [converged]
  ----------------------------------------------------------------------------
  Term symbol:  4 (1) A                                     R^2 =  8.92800e-14

  Total energy:                                            -77.9829971959 a.u.
  Excitation energy:                                               9.163248 eV

  Osc. strength:                                                      0.024799
  Trans. dip. moment [a.u.]:           [  -0.014796,   -0.020493,    0.331403]
  <i|r^2|0> [a.u.]:                    [  -0.090923,   -0.004536,    0.001015]
  Two-photon absorption cross-section (SoS) [a.u.]:                   0.003197
  Two-photon absorption matrix (SoS) [a.u.]:
                                       |   -0.018166   -0.001458    0.000707 |
                                       |   -0.001458    0.016201    0.009781 |
                                       |    0.000707    0.009781   -0.001783 |
  Two-photon absorption cross-section [a.u.]:                         0.001632
  Two-photon absorption matrix [a.u.]:
                                       |   -0.014016    0.000140   -0.002243 |
                                       |    0.000140    0.012098   -0.004365 |
                                       |   -0.002243   -0.004365   -0.002591 |

  Dip. moment [a.u.]:                  [  -0.052680,    0.012122,   -0.002191]
  Total dipole [Debye]:                                               0.137512
  <r^2> [a.u.]:                        [ 180.567667,   40.585901,   11.032366]
  Total <r^2> [a.u.]:                                               232.185934

  V1^2 = 0.9586, V2^2 = 0.0414

  Important amplitudes:
      occ i     occ j     vir a      vir b          v   
    -----------------------------------------------------
     8 (A) A             10 (A) A                -0.6888
     8 (A) A             24 (A) A                -0.0507
     8 (A) A             18 (A) A                 0.0316
     4 (A) A              9 (A) A                -0.0240
     8 (A) A   8 (A) B    9 (A) A   12 (A) B      0.0219
     7 (A) A              9 (A) A                -0.0178
     8 (A) A   8 (A) B   10 (A) A   17 (A) B     -0.0173
     8 (A) A             15 (A) A                -0.0167
     5 (A) A   8 (A) B   11 (A) A   10 (A) B      0.0165
     7 (A) A   8 (A) B   13 (A) A   10 (A) B      0.0141
     4 (A) A   8 (A) B   12 (A) A   10 (A) B      0.0111
     6 (A) A   8 (A) A   10 (A) A   15 (A) A     -0.0110
     7 (A) A   8 (A) B   22 (A) A   10 (A) B      0.0108
     6 (A) A   8 (A) B   15 (A) A   10 (A) B      0.0108
     4 (A) A   8 (A) A   10 (A) A   12 (A) A     -0.0106
     7 (A) A   8 (A) A   10 (A) A   22 (A) A     -0.0099
     7 (A) A   8 (A) A   10 (A) A   13 (A) A     -0.0098
     5 (A) A   8 (A) A   10 (A) A   11 (A) A     -0.0094
     5 (A) A   8 (A) B   21 (A) A   10 (A) B     -0.0094
     6 (A) A   8 (A) A   10 (A) A   18 (A) A     -0.0088
     6 (A) A   8 (A) B   10 (A) A   10 (A) B     -0.0087
     7 (A) A   8 (A) A   12 (A) A   16 (A) A     -0.0082
     3 (A) A   4 (A) B   10 (A) A    9 (A) B      0.0079
     5 (A) A   8 (A) A   10 (A) A   21 (A) A      0.0079
     4 (A) A   8 (A) B   19 (A) A   10 (A) B     -0.0075
     8 (A) A   8 (A) B    9 (A) A   23 (A) B      0.0075
     8 (A) A   8 (A) B   10 (A) A   28 (A) B      0.0073
     3 (A) A   8 (A) B   10 (A) A   10 (A) B     -0.0072
     5 (A) A   8 (A) B   10 (A) A   11 (A) B      0.0071
     3 (A) A   8 (A) A   10 (A) A   24 (A) A      0.0071
     7 (A) A   8 (A) B   16 (A) A   12 (A) B      0.0070
     3 (A) A   8 (A) B   10 (A) A   18 (A) B      0.0069
     8 (A) A   8 (A) B    9 (A) A   19 (A) B     -0.0068
     6 (A) A   8 (A) B   18 (A) A   10 (A) B      0.0067
     3 (A) A   6 (A) B   10 (A) A   28 (A) B     -0.0062
     6 (A) A             28 (A) A                 0.0057
     7 (A) A   8 (A) B   12 (A) A   11 (A) B      0.0057
     3 (A) A   5 (A) B   10 (A) A   25 (A) B      0.0056
     5 (A) A   8 (A) A   10 (A) A   16 (A) A     -0.0056
     3 (A) A   8 (A) A   10 (A) A   18 (A) A      0.0055
    -----------------------------------------------------

  Density matrix analysis:
  ------------------------
  NOs
    Occupation of frontier NOs:
       0.9820   0.9843
    Number of electrons: 16.000000
    Number of unpaired electrons: n_u =  2.28716, n_u,nl =  2.02480
    NO participation ratio (PR_NO):  2.696519
  
  
  Mulliken Population Analysis
  Atom      Charge (e)              h+              e-           Del q
  --------------------------------------------------------------------
   1 H       -0.166933        0.053787       -0.274199       -0.220412
   2 C        0.322467        0.540466       -0.112577        0.427888
   3 H       -0.164549        0.053994       -0.269358       -0.215363
   4 C        0.324063        0.534537       -0.110576        0.423960
   5 H       -0.160900        0.053737       -0.264917       -0.211181
   6 H       -0.154147        0.054418       -0.259311       -0.204893
  --------------------------------------------------------------------
  Sum:       -0.000000        1.290939       -1.290939        0.000000
  
  Multipole moment analysis of the density matrix
    Molecular charge:                      -0.000000
    Number of electrons:                   16.000000
      Center of electronic charge [Ang]: [ -1.558209,  -0.066003,   0.002051]
    Total nuclear charge:                  16.000000
      Center of nuclear charge [Ang]:    [ -1.559951,  -0.065602,   0.001978]
    Dipole moment [D]:                     0.137512
      Cartesian components [D]:          [ -0.133900,   0.030810,  -0.005570]
    RMS size of the density [Ang]:         1.277220
      Cartesian components [Ang]:        [  0.855711,   0.840220,   0.439411]
  
  Exciton analysis of the difference density matrix
    <r_h> [Ang]:                  [ -1.557912,  -0.067841,   0.001843]
    <r_e> [Ang]:                  [ -1.537231,  -0.072659,   0.002838]
    |<r_e - r_h>| [Ang]:            0.021258
    Hole size [Ang]:                1.410691
      Cartesian components [Ang]: [  0.835079,   0.819695,   0.787904]
    Electron size [Ang]:            2.076023
      Cartesian components [Ang]: [  1.375596,   1.375103,   0.725739]

  Transition density matrix analysis:
  -----------------------------------
  
  CT numbers (Mulliken)
    omega =     0.9258
    <Phe> =    -0.0109
  
  Exciton analysis of the transition density matrix
    Trans. dipole moment [D]:             0.422395
      Cartesian components [D]:         [ -0.018803,  -0.026043,   0.421172]
    <r_h> [Ang]:                        [ -1.560677,  -0.067065,   0.001671]
    <r_e> [Ang]:                        [ -1.529758,  -0.075137,   0.003124]
    |<r_e - r_h>| [Ang]:                  0.031989
    Hole size [Ang]:                      1.213082
      Cartesian components [Ang]:       [  0.636639,   0.623947,   0.822769]
    Electron size [Ang]:                  2.295869
      Cartesian components [Ang]:       [  1.520273,   1.521890,   0.802269]
    RMS electron-hole separation [Ang]:   2.586902
      Cartesian components [Ang]:       [  1.640948,   1.637844,   1.147528]
    Covariance(r_h, r_e) [Ang^2]:         0.025771
    Correlation coefficient:              0.009253
    Center-of-mass size [Ang]:            1.303277
      Cartesian components [Ang]:       [  0.827847,   0.825901,   0.575402]

  Decomposition into state-averaged NTOs
    H- 0 -> L+ 1:  0.6789 ( 92.2%)
                   omega =  92.6%
  ----------------------------------------------------------------------------


  Excited state 4 (singlet, A)                                     [converged]
  ----------------------------------------------------------------------------
  Term symbol:  5 (1) A                                     R^2 =  1.48612e-13

  Total energy:                                            -77.9589997638 a.u.
  Excitation energy:                                               9.816252 eV

  Osc. strength:                                                      0.000017
  Trans. dip. moment [a.u.]:           [  -0.002332,    0.001385,    0.008083]
  <i|r^2|0> [a.u.]:                    [  -0.032458,   -0.015834,    0.034843]
  Two-photon absorption cross-section (SoS) [a.u.]:                 146.447891
  Two-photon absorption matrix (SoS) [a.u.]:
                                       |   -0.297250   -0.321557    3.070741 |
                                       |   -0.321557   -0.342566    2.909620 |
                                       |    3.070741    2.909620    0.639359 |
  Two-photon absorption cross-section [a.u.]:                        89.726937
  Two-photon absorption matrix [a.u.]:
                                       |   -0.236722   -0.252077    2.412479 |
                                       |   -0.252077   -0.264081    2.268102 |
                                       |    2.412479    2.268102    0.500192 |

  Dip. moment [a.u.]:                  [   0.024291,    0.052116,    0.003826]
  Total dipole [Debye]:                                               0.146472
  <r^2> [a.u.]:                        [ 181.841698,   40.112939,   10.770272]
  Total <r^2> [a.u.]:                                               232.724909

  V1^2 = 0.9634, V2^2 = 0.0366

  Important amplitudes:
      occ i     occ j     vir a      vir b          v   
    -----------------------------------------------------
     8 (A) A             11 (A) A                -0.6688
     7 (A) A              9 (A) A                 0.1512
     8 (A) A             21 (A) A                 0.0779
     8 (A) A             16 (A) A                -0.0649
     8 (A) A             12 (A) A                 0.0291
     8 (A) A   8 (A) B    9 (A) A   13 (A) B      0.0166
     5 (A) A   8 (A) B   11 (A) A   11 (A) B      0.0156
     8 (A) A   8 (A) B   11 (A) A   17 (A) B     -0.0139
     6 (A) A              9 (A) A                 0.0139
     7 (A) A             20 (A) A                -0.0138
     7 (A) A   8 (A) B   13 (A) A   11 (A) B      0.0127
     5 (A) A   8 (A) A   11 (A) A   21 (A) A      0.0110
     4 (A) A   8 (A) B   12 (A) A   11 (A) B      0.0109
     8 (A) A   8 (A) B    9 (A) A   22 (A) B      0.0108
     7 (A) A   8 (A) A   11 (A) A   22 (A) A     -0.0096
     6 (A) A   8 (A) B   10 (A) A   11 (A) B     -0.0090
     6 (A) A   8 (A) B   15 (A) A   11 (A) B      0.0090
     7 (A) A   8 (A) B   22 (A) A   11 (A) B      0.0089
     3 (A) A   4 (A) B   11 (A) A    9 (A) B      0.0083
     3 (A) A   8 (A) B   11 (A) A   18 (A) B      0.0080
     6 (A) A   8 (A) A   11 (A) A   15 (A) A     -0.0080
     7 (A) A   8 (A) A   13 (A) A   16 (A) A     -0.0078
     7 (A) A   8 (A) A   11 (A) A   13 (A) A     -0.0076
     5 (A) A   8 (A) B   21 (A) A   11 (A) B     -0.0071
     4 (A) A   8 (A) B   19 (A) A   11 (A) B     -0.0070
     5 (A) A   8 (A) B    9 (A) A    9 (A) B      0.0068
     4 (A) A   8 (A) A   11 (A) A   12 (A) A     -0.0062
     6 (A) A   8 (A) A   11 (A) A   18 (A) A     -0.0062
     3 (A) A   6 (A) B   11 (A) A   28 (A) B     -0.0060
     6 (A) A   8 (A) B   18 (A) A   11 (A) B      0.0060
     7 (A) A   8 (A) B   16 (A) A   13 (A) B      0.0057
     5 (A) A   8 (A) B   10 (A) A   10 (A) B      0.0056
     3 (A) A   8 (A) A   11 (A) A   18 (A) A      0.0056
     3 (A) A   8 (A) B   11 (A) A   30 (A) B      0.0055
     3 (A) A   5 (A) B   11 (A) A   25 (A) B      0.0054
     6 (A) A   8 (A) B   11 (A) A   10 (A) B     -0.0054
     7 (A) A   8 (A) B   12 (A) A   10 (A) B      0.0054
     8 (A) A   8 (A) B   20 (A) A   22 (A) B     -0.0053
     3 (A) A   8 (A) A   11 (A) A   24 (A) A      0.0053
     8 (A) A             10 (A) A                -0.0051
    -----------------------------------------------------

  Density matrix analysis:
  ------------------------
  NOs
    Occupation of frontier NOs:
       0.9398   1.0286
    Number of electrons: 16.000000
    Number of unpaired electrons: n_u =  2.31975, n_u,nl =  2.04983
    NO participation ratio (PR_NO):  2.920772
  
  
  Mulliken Population Analysis
  Atom      Charge (e)              h+              e-           Del q
  --------------------------------------------------------------------
   1 H       -0.149256        0.045329       -0.248064       -0.202735
   2 C        0.267429        0.497488       -0.124637        0.372850
   3 H       -0.122205        0.047445       -0.220464       -0.173019
   4 C        0.272347        0.495520       -0.123276        0.372244
   5 H       -0.104083        0.047423       -0.201787       -0.154364
   6 H       -0.164231        0.045496       -0.260473       -0.214976
  --------------------------------------------------------------------
  Sum:       -0.000000        1.178700       -1.178700       -0.000000
  
  Multipole moment analysis of the density matrix
    Molecular charge:                      -0.000000
    Number of electrons:                   16.000000
      Center of electronic charge [Ang]: [ -1.560755,  -0.067326,   0.001852]
    Total nuclear charge:                  16.000000
      Center of nuclear charge [Ang]:    [ -1.559951,  -0.065602,   0.001978]
    Dipole moment [D]:                     0.146471
      Cartesian components [D]:          [  0.061743,   0.132466,   0.009724]
    RMS size of the density [Ang]:         1.277736
      Cartesian components [Ang]:        [  0.864059,   0.835174,   0.434161]
  
  Exciton analysis of the difference density matrix
    <r_h> [Ang]:                  [ -1.560367,  -0.067451,   0.001735]
    <r_e> [Ang]:                  [ -1.572273,  -0.090683,   0.000124]
    |<r_e - r_h>| [Ang]:            0.026155
    Hole size [Ang]:                1.395083
      Cartesian components [Ang]: [  0.819338,   0.806412,   0.790344]
    Electron size [Ang]:            2.122427
      Cartesian components [Ang]: [  1.474883,   1.367512,   0.677738]

  Transition density matrix analysis:
  -----------------------------------
  
  CT numbers (Mulliken)
    omega =     0.9297
    <Phe> =    -0.0137
  
  Exciton analysis of the transition density matrix
    Trans. dipole moment [D]:             0.010835
      Cartesian components [D]:         [ -0.002964,   0.001760,   0.010272]
    <r_h> [Ang]:                        [ -1.560019,  -0.065785,   0.001794]
    <r_e> [Ang]:                        [ -1.574298,  -0.095596,  -0.000221]
    |<r_e - r_h>| [Ang]:                  0.033116
    Hole size [Ang]:                      1.228212
      Cartesian components [Ang]:       [  0.656830,   0.652218,   0.807274]
    Electron size [Ang]:                  2.259600
      Cartesian components [Ang]:       [  1.572630,   1.454191,   0.719690]
    RMS electron-hole separation [Ang]:   2.561278
      Cartesian components [Ang]:       [  1.695531,   1.586413,   1.081025]
    Covariance(r_h, r_e) [Ang^2]:         0.027623
    Correlation coefficient:              0.009953
    Center-of-mass size [Ang]:            1.291273
      Cartesian components [Ang]:       [  0.856528,   0.800672,   0.540989]

  Decomposition into state-averaged NTOs
    H- 0 -> L+ 2: -0.6634 ( 88.0%)
    H- 1 -> L+ 0:  0.1492 (  4.4%)
                   omega =  93.0%
  ----------------------------------------------------------------------------


  Excited state 5 (singlet, A)                                     [converged]
  ----------------------------------------------------------------------------
  Term symbol:  6 (1) A                                     R^2 =  1.78157e-13

  Total energy:                                            -77.9447384299 a.u.
  Excitation energy:                                              10.204322 eV

  Osc. strength:                                                      0.000003
  Trans. dip. moment [a.u.]:           [   0.000340,    0.000559,   -0.003276]
  <i|r^2|0> [a.u.]:                    [   0.087614,   -0.103862,    0.018701]
  Two-photon absorption cross-section (SoS) [a.u.]:                 183.475419
  Two-photon absorption matrix (SoS) [a.u.]:
                                       |    0.313467    0.027690   -3.274056 |
                                       |    0.027690   -0.409080    3.475052 |
                                       |   -3.274056    3.475052    0.104027 |
[...]
    16   -1.447791139928e-03
    17   -1.761322959595e-03
    18    8.361745266545e-05
    19   -3.369794862720e-03
    20    1.121973257014e-02
    21    9.337128569127e-01
    22   -3.239113719737e-04
    23    1.395773613363e-02
    24    8.130744816054e-04
    25    6.949813204509e-02
    26   -5.131358273093e-02
    27   -1.388931116365e+00
    28    9.679114402688e-02
    29   -9.346469219792e-02
    30   -1.193389454609e-03
    31    3.794139075140e-01
    32   -3.632982460169e-01
    33   -4.508782372300e-03
    34    1.549107397346e-02
    35   -1.457448095367e-03
    36   -1.760458835473e-03
    37   -3.021803871206e-04
    38   -2.996915814639e-03
    39    1.056931031899e-02
    40    9.319948258410e-01
    41    2.596280655020e-04
    42   -1.388765804024e-02
    43   -8.295069675929e-04
    44    9.123451951107e-03
    45    9.238610054550e-01
    46    1.397467213037e-02
    47    2.419202972644e-04
    48    6.681345118076e-04
Sym=X
Ene= 0.232539
Spin=Alpha
Occup=0
     1   -2.865208763294e-02
     2   -1.272675267176e+00
     3    1.463049298157e-02
     4    4.214108285869e-03
     5    9.288170006847e-04
     6   -7.625391295362e-03
     7    8.282156277204e-03
     8    1.148592941560e-01
     9    1.586401081288e-01
    10    1.561578508766e-01
    11    1.660328296023e-02
    12    5.648920828421e-01
    13    5.450142705707e-01
    14    5.838587458090e-02
    15   -1.270650259228e-03
    16    1.376048357073e-04
    17    1.587005477759e-04
    18    9.278180098670e-05
    19    7.765481129211e-04
    20    2.353640490575e-02
    21    1.101195435413e+00
    22    2.138911863857e-03
    23    1.276502398480e-02
    24    8.530839702376e-04
    25    8.507369010105e-03
    26   -8.707599696636e-03
    27   -1.431813531841e-01
    28    1.568357223704e-01
    29    1.540830670007e-01
    30    1.671125017277e-02
    31    5.611680334637e-01
    32    5.336688472640e-01
    33    5.883319469217e-02
    34    1.935378429770e-03
    35   -2.093794211468e-04
    36   -2.349845495308e-04
    37    1.172215243168e-04
    38   -1.121396726302e-03
    39   -2.472358220456e-02
    40   -1.078987698237e+00
    41    1.975360173558e-03
    42    1.235259288546e-02
    43    8.392007423254e-04
    44    2.800410706476e-02
    45    1.285338876754e+00
    46    1.511434442873e-02
    47    4.309347053069e-03
    48    9.742017536619e-04
Sym=X
Ene= 0.239029
Spin=Alpha
Occup=0
     1   -1.565066651292e-02
     2   -9.628414562962e-01
     3    1.513010515659e-02
     4    8.833728332532e-03
     5    1.240358412343e-03
     6   -8.583285777489e-02
     7    7.939693635895e-02
     8    1.567245965638e+00
     9    4.468622037069e-02
    10   -6.874890271541e-02
    11   -1.901063915399e-03
    12    1.775181324958e-01
    13   -2.657207133303e-01
    14   -7.018088430229e-03
    15   -2.202038771449e-02
    16    2.544287437568e-03
    17    2.906488262743e-03
    18   -6.910393150657e-04
    19    1.270591563452e-02
    20   -1.894296342901e-02
    21   -1.182776091209e+00
    22   -8.562817275699e-03
    23   -1.833738660900e-02
    24   -1.487294788068e-03
    25    8.668330220373e-02
    26   -7.976136468473e-02
    27   -1.598010868646e+00
    28    4.415820188798e-02
    29   -7.125797216576e-02
    30   -2.366280163250e-03
    31    1.794234586701e-01
    32   -2.793536589428e-01
    33   -8.971895398247e-03
    34    2.261268871323e-02
    35   -2.568533336423e-03
    36   -3.034759795949e-03
    37    1.063578589777e-03
    38   -1.279535450565e-02
    39    1.768439169605e-02
    40    1.206552038850e+00
    41   -8.723097717420e-03
    42   -1.881962258842e-02
    43   -1.549238391676e-03
    44    1.484260535747e-02
    45    9.773047765597e-01
    46    1.551860436569e-02
    47    9.059753165352e-03
    48    1.259173150458e-03
Sym=X
Ene= 0.303197
Spin=Alpha
Occup=0
     1   -1.958981455157e-02
     2    1.666762922382e+00
     3   -2.282167013806e-02
     4    3.178924100004e-04
     5   -1.060590431503e-03
     6   -4.941159034290e-04
     7    1.758769229958e-04
     8    2.555542291290e-02
     9   -1.343021910095e-01
    10   -1.394305195113e-01
    11   -1.452801625516e-02
    12   -1.140465324169e+00
    13   -1.187471446505e+00
    14   -1.240774308374e-01
    15   -6.490741657566e-04
    16   -1.561144374494e-03
    17    1.931087500889e-03
    18   -3.258096680451e-02
    19   -1.193602574255e-03
    20    2.038839994307e-02
    21   -1.686741898132e+00
    22    1.264545360352e-03
    23   -2.304051763468e-02
    24   -1.293148312651e-03
    25    1.949552304203e-04
    26    5.904163615440e-04
    27   -1.603384581803e-02
    28    1.354293787116e-01
    29    1.405340789170e-01
    30    1.484055356101e-02
    31    1.139084991947e+00
    32    1.200132338811e+00
    33    1.254132608429e-01
    34    1.153616371924e-04
    35   -1.636360171254e-03
    36    1.902682638877e-03
    37   -3.290688024230e-02
    38   -1.742419259804e-03
    39    2.030047543073e-02
    40   -1.691750544284e+00
    41   -1.667862141162e-03
    42    2.286789948228e-02
    43    1.291574645098e-03
    44   -2.075449411350e-02
    45    1.703105123103e+00
    46    2.324557296110e-02
    47   -3.354436634445e-04
    48    1.079999902878e-03
Sym=X
Ene= 0.461999
Spin=Alpha
Occup=0
     1   -1.163101836006e-01
     2   -6.973553527495e-01
     3   -1.554711534296e-02
     4   -1.048493646743e-02
     5   -1.345289155845e-03
     6    6.110492897583e-02
     7    1.730604626317e-02
     8   -3.604671669705e+00
     9    1.033248377229e-01
    10   -9.970231467691e-02
    11   -1.100409945334e-03
    12    2.417046271130e+00
    13   -2.307946716183e+00
    14   -2.192220830623e-02
    15    5.373842543656e-02
    16   -3.335004193666e-03
    17   -4.590925182502e-03
    18   -1.167774134993e-03
    19    1.846859644089e-02
    20   -1.207036133089e-01
    21   -7.076937142900e-01
    22    8.705283254871e-03
    23    1.621231939015e-02
    24    1.363805519321e-03
    25   -6.097968068048e-02
    26   -1.670213678971e-02
    27    3.592906348851e+00
    28    1.044483220842e-01
    29   -9.986521260362e-02
    30   -1.215633983768e-03
    31    2.426928906950e+00
    32   -2.297500212875e+00
    33   -2.156118901126e-02
    34   -5.276527798623e-02
    35    3.267672774579e-03
    36    4.552614841458e-03
    37    5.172596917293e-04
    38   -1.899833530518e-02
    39    1.155094591827e-01
    40    7.056625118162e-01
    41    8.646700617739e-03
    42    1.630459471913e-02
    43    1.382065682607e-03
    44    1.112106173892e-01
    45    7.194731119777e-01
    46   -1.538852633572e-02
    47   -1.000472706209e-02
    48   -1.337394314909e-03
Sym=X
Ene= 0.577682
Spin=Alpha
Occup=0
     1    2.402757554740e-01
     2    3.822548531183e-02
     3   -2.007687180674e-02
     4    2.692245509290e-02
     5    6.473343921915e-04
     6   -4.868783215488e-03
     7   -1.587960806846e-01
     8   -4.484522628030e-01
     9    2.978480626306e-01
    10   -2.891488693491e-01
    11   -3.039778024174e-03
    12   -7.165110503783e-01
    13    7.110570777089e-01
    14    8.459463163542e-03
    15   -5.745909677117e-03
    16    3.821170333158e-03
    17    3.759694190346e-03
    18   -5.157195273683e-03
    19    6.019256576603e-02
    20    2.591072550513e-01
    21    3.268202898530e-02
    22   -2.616149733009e-02
    23    1.629792238836e-02
    24   -2.678459167685e-04
    25   -5.491845133745e-03
    26   -1.586910664098e-01
    27   -4.195337890222e-01
    28   -2.984308434827e-01
    29    2.858817475944e-01
    30    2.794332127345e-03
    31    7.559500170073e-01
    32   -7.270616339542e-01
    33   -7.708680512342e-03
    34   -5.451274592082e-03
    35    3.917160358700e-03
    36    3.588152332636e-03
    37   -2.668211648661e-03
    38    6.020978153083e-02
    39    2.457937525005e-01
    40    5.107022011703e-02
    41    2.750721467261e-02
    42   -1.767324388762e-02
    43    2.382505575854e-04
    44    2.524177086724e-01
    45    5.166519353819e-02
    46    1.807424307954e-02
    47   -2.540549570003e-02
    48   -6.703920162320e-04
Sym=X
Ene= 0.614458
Spin=Alpha
Occup=0
     1   -5.345852751872e-01
     2    2.288690581596e-01
     3   -6.180883173391e-02
     4    3.704011707466e-02
     5   -7.405283816339e-04
     6   -9.604757424514e-04
     7    3.297416940773e-03
     8   -2.124253321972e-02
     9   -3.950355205680e-02
    10   -3.519859086288e-02
    11   -4.008613118695e-03
    12    2.942883182410e-01
    13    2.657857004509e-01
    14    2.928282683567e-02
    15    4.118233061982e-03
    16   -7.827979365489e-03
    17    8.043347867272e-03
    18   -1.489476817463e-01
    19   -7.527190711618e-03
    20    4.998942881289e-01
    21   -2.087473746713e-01
    22    4.235773866815e-02
    23   -5.808692844791e-02
    24   -1.450958495743e-03
    25    4.725553875034e-04
    26   -1.783118572794e-03
    27    2.975138964186e-02
    28   -3.923791211896e-02
    29   -4.177523976617e-02
    30   -4.286331440235e-03
    31    2.972430429599e-01
    32    3.007430461330e-01
    33    3.232498984282e-02
    34   -1.062452497452e-03
    35    7.321831121973e-03
    36   -8.590983009615e-03
    37    1.486231047133e-01
    38    5.219174559748e-03
    39   -5.173393905239e-01
    40    2.019158541059e-01
    41    4.031850583524e-02
    42   -5.824124094183e-02
    43   -1.574249562233e-03
    44    5.171033579576e-01
    45   -2.048622771883e-01
    46   -6.122899674215e-02
    47    3.788427616143e-02
    48   -5.998231715810e-04
Sym=X
Ene= 0.689047
Spin=Alpha
Occup=0
     1    3.620895016233e-04
     2    2.950187333659e-04
     3    9.445142751700e-04
     4    1.165112611399e-03
     5   -1.933565103630e-02
     6    2.722494609013e-05
     7    1.774498955874e-04
     8    1.344674588309e-04
     9    3.142344924411e-02
    10    3.973312403556e-02
    11   -6.706680476145e-01
    12   -2.926150882636e-02
    13   -3.566017860852e-02
    14    6.132677167776e-01
    15   -1.383685783213e-03
    16    8.243919559123e-02
    17   -7.835487761611e-02
    18   -8.615231065885e-03
    19   -1.088177613960e-03
    20    4.401674831556e-04
    21   -9.513188148843e-06
    22    9.220581877136e-04
    23    1.180199355996e-03
    24   -2.103070159738e-02
    25    4.461188942179e-06
    26    3.915791880936e-04
    27   -5.015631442567e-04
    28    3.186704515281e-02
    29    3.992804860788e-02
    30   -6.699423817560e-01
    31   -2.985046230279e-02
    32   -3.605649999259e-02
    33    6.133086159598e-01
    34    1.178893414019e-03
    35   -8.277484193630e-02
    36    7.858787659151e-02
    37    8.521018999445e-03
    38    1.166281065800e-03
    39    6.272628466956e-05
    40   -6.413617656109e-04
    41    1.016680223153e-03
    42    1.364456382712e-03
    43   -2.105474760297e-02
    44    1.040596722506e-07
    45   -3.203050110591e-04
    46    9.130317539882e-04
    47    1.280849149316e-03
    48   -2.101299313276e-02
Sym=X
Ene= 0.707951
Spin=Alpha
Occup=0
     1   -4.836092740242e-01
     2    1.896841484535e-01
     3   -8.163766389302e-02
     4   -4.455989770148e-02
     5   -6.515754667669e-03
     6   -4.852665345831e-02
     7   -3.125223160100e-01
     8    5.045729405457e-01
     9    2.063402095920e-01
    10   -1.870064490995e-01
    11   -1.706759397635e-03
    12   -1.195416529583e-01
    13    7.085002363934e-02
    14   -1.471779194713e-03
    15    1.958912238735e-01
    16   -2.053560931353e-02
    17   -2.407981146677e-02
    18    3.388708287413e-03
    19   -7.759534780650e-02
    20   -4.887502191806e-01
    21    1.483866248506e-01
    22    4.066846164587e-02
    23    8.254094776225e-02
    24    6.760542529359e-03
    25   -4.553712175171e-02
    26   -3.219425738554e-01
    27    4.545332108211e-01
    28   -2.048362192512e-01
    29    1.920169604023e-01
    30    1.361591086583e-03
    31    5.735042330029e-02
    32   -4.545628591328e-02
    33    8.636481502693e-04
    34    1.906439518738e-01
    35   -2.022979477759e-02
    36   -2.341389368877e-02
    37    8.025676983557e-04
    38   -7.544041604101e-02
    39   -4.599743183151e-01
    40    1.239308235808e-01
    41   -4.108716302977e-02
    42   -7.866725176102e-02
    43   -6.627836183282e-03
    44   -4.741642773711e-01
    45    1.424973929561e-01
    46    7.994090342777e-02
    47    4.307721864683e-02
    48    6.368862777952e-03
Sym=X
Ene= 0.783116
Spin=Alpha
Occup=0
     1    5.236055974278e-01
     2   -5.021399890364e-01
     3    1.102137614384e-01
     4    2.624024917428e-02
     5    6.739749606924e-03
     6    8.973320514376e-02
     7   -2.280733965005e-01
     8   -6.186234957647e-01
     9    1.014982311772e-01
    10   -1.164502434329e-01
    11   -1.497972281620e-03
    12    3.462289328735e-01
    13   -2.706728557710e-01
    14   -7.103472165129e-04
    15   -2.020340681858e-01
    16    1.710008001376e-02
    17    2.108651782092e-02
    18    1.139210939447e-03
    19    8.536402502246e-03
    20    5.300844200556e-01
    21   -4.495264520685e-01
    22   -1.925313700102e-02
    23   -1.087117492481e-01
    24   -7.312176152739e-03
    25   -9.188128066507e-02
    26    2.049381092631e-01
    27    6.669017484790e-01
    28    1.070019392983e-01
    29   -1.024456206125e-01
    30   -1.422655117222e-03
    31    3.143191908876e-01
    32   -2.890037017652e-01
    33   -1.244672928718e-03
    34    2.102830253043e-01
    35   -1.783432315788e-02
    36   -2.261336801233e-02
    37    2.005619151471e-03
    38   -1.033444874624e-02
    39   -5.524938629059e-01
    40    4.680796076949e-01
    41   -2.012648011491e-02
    42   -1.141271544912e-01
    43   -7.778765147632e-03
    44   -5.322672645560e-01
    45    4.674718964301e-01
    46    1.104253158057e-01
    47    2.840250866761e-02
    48    6.934060735925e-03
Sym=X
Ene= 0.807898
Spin=Alpha
Occup=0
     1    3.234151337537e-04
     2   -8.279650631508e-04
     3    1.625736121432e-03
     4    1.923025052194e-03
     5   -3.188266612882e-02
     6    6.762010514352e-05
     7   -3.164655223116e-04
     8    2.584195101323e-05
     9    3.598654052842e-02
    10    4.477318848506e-02
    11   -7.632917255983e-01
    12   -5.268749968531e-02
    13   -6.632385127554e-02
    14    1.126407402989e+00
    15    8.339135403818e-04
    16   -6.527299861050e-02
    17    6.195497338833e-02
    18    6.890510843793e-03
    19    8.785150375360e-04
    20    3.091865579960e-04
    21    1.453524157344e-04
    22    1.677115207183e-03
    23    2.034482813088e-03
    24   -3.465951949709e-02
    25   -5.246125732825e-05
    26   -5.794005791931e-05
    27    1.948220987582e-04
    28   -3.620103967768e-02
    29   -4.580916434414e-02
    30    7.633734379599e-01
    31    5.390899141843e-02
    32    6.729167248546e-02
    33   -1.126925592699e+00
    34    1.216985185405e-03
    35   -6.521261206682e-02
    36    6.199439493619e-02
    37    6.641380781180e-03
    38    9.415175957500e-04
    39   -3.146615452233e-04
    40   -2.463591824084e-05
    41   -1.552037261288e-03
    42   -2.150053630271e-03
    43    3.428433542703e-02
    44   -3.204264901567e-04
    45    8.908712739487e-04
    46   -1.392192672775e-03
    47   -2.000268545423e-03
    48    3.377440642269e-02
Sym=X
Ene= 0.861586
Spin=Alpha
Occup=0
     1    1.154944576520e-02
     2   -1.095767403005e+00
     3    1.481605214924e-01
     4    5.652783568932e-02
     5    1.029524815914e-02
     6   -1.320131632829e-03
     7   -6.219716691279e-03
     8    4.022314776565e-03
     9   -4.183164349637e-01
    10   -4.311999565801e-01
    11   -4.486124369763e-02
    12    9.614266006394e-01
    13    1.001603659513e+00
    14    1.037713118478e-01
    15    4.250337043716e-03
    16    1.127230975369e-02
    17   -1.398160135308e-02
    18    2.348787039714e-01
    19    9.618944334107e-03
    20   -2.253284460910e-02
    21    1.110096224115e+00
    22    5.023795879988e-02
    23    1.540982141062e-01
    24    1.151115473114e-02
    25    8.510483613021e-04
    26   -5.131036189080e-03
    27    6.673795704769e-03
    28   -4.044683923687e-01
    29   -4.215464640663e-01
    30   -4.465562169789e-02
    31    9.363046040031e-01
    32    9.899643274864e-01
    33    1.041639930827e-01
    34   -1.778533496869e-03
    35   -1.154055487591e-02
    36    1.362958137677e-02
    37   -2.342993246677e-01
    38   -1.151200516712e-02
    39    1.239737920301e-02
    40   -1.095526638310e+00
    41    4.908429001209e-02
    42    1.506748913020e-01
    43    1.137077477871e-02
    44   -3.995117728530e-03
    45    1.078010959962e+00
    46    1.452350533000e-01
    47    5.605588445356e-02
    48    1.015980532455e-02
Sym=X
Ene= 0.934653
Spin=Alpha
Occup=0
     1    1.133841990389e-01
     2   -1.272252598798e+00
     3    1.802989089273e-01
     4   -3.905457827675e-03
     5    8.301864460254e-03
     6   -1.826217552419e-03
     7   -1.697839290214e-02
     8    1.337661714050e-02
     9   -4.816175297512e-01
    10   -4.835689075685e-01
    11   -5.131046414104e-02
    12    1.472856648309e+00
    13    1.484186562066e+00
    14    1.572738975069e-01
    15    7.118121966435e-03
    16    5.349202797115e-03
    17   -7.138357903685e-03
    18    1.163330965637e-01
    19    7.116048172401e-03
    20   -1.242070668998e-01
    21    1.243351370090e+00
    22   -1.369979413762e-02
    23    1.795523541530e-01
    24    9.899792931663e-03
    25    9.457477641505e-04
    26   -1.300123988819e-02
    27    3.787710814143e-02
    28    4.699395717129e-01
    29    5.093441464907e-01
    30    5.261728484083e-02
    31   -1.449656613682e+00
    32   -1.549298288694e+00
    33   -1.609695432138e-01
    34   -1.488982467289e-03
    35    6.101565245980e-03
    36   -7.414580838201e-03
    37    1.255594505948e-01
    38    5.023114644120e-04
    39   -1.192756487243e-01
    40    1.290706617871e+00
    41    1.210941449718e-02
    42   -1.831274150843e-01
    43   -1.036480999704e-02
    44    1.218693264213e-01
    45   -1.291629313193e+00
    46   -1.850190868455e-01
    47    6.157807657983e-03
    48   -8.416349659554e-03
Sym=X
Ene= 0.972085
Spin=Alpha
Occup=0
     1   -6.357577853979e-02
     2    8.950285572837e-01
     3   -8.742501589829e-02
     4   -9.806871555516e-02
     5   -9.924026268763e-03
     6    2.595515434064e-02
     7    2.701870052547e-01
     8    4.891660420952e-01
     9    4.743045070248e-01
    10   -4.682016123602e-01
    11   -5.229824639938e-03
    12   -1.460055949362e+00
    13    1.449052067821e+00
    14    1.652372231607e-02
    15   -5.580834165590e-02
    16   -1.250183067884e-02
    17   -9.773407405804e-03
    18    1.806474453474e-02
    19   -3.023507184296e-01
    20   -6.298463618915e-02
    21    9.514524863856e-01
    22    9.590609690538e-02
    23    9.869546426023e-02
    24    1.039262122455e-02
    25   -2.533523775215e-02
    26   -2.217978149765e-01
    27   -5.691100591520e-01
    28    4.830727461641e-01
    29   -4.455568459523e-01
    30   -3.864650253548e-03
    31   -1.500593411054e+00
    32    1.379067514504e+00
    33    1.153843890775e-02
    34    5.323901112963e-02
    35    1.260456159362e-02
    36    9.528402311586e-03
    37   -1.331426712290e-02
    38    2.972498712236e-01
    39    5.959940015326e-02
    40   -8.749627046802e-01
    41    9.358378733308e-02
    42    8.797796305693e-02
    43    9.750808523198e-03
    44    6.452378712307e-02
    45   -9.175789831639e-01
    46   -8.928003368339e-02
    47   -9.672883005659e-02
    48   -9.883150924856e-03
[5D]

======= END OF MOLDEN-FORMATTED INPUT FILE =======


        *************************************************************
        *                                                           *
        *  Thank you very much for using Q-Chem.  Have a nice day.  *
        *                                                           *
        *************************************************************


