                  Welcome to Q-Chem
     A Quantum Leap Into The Future Of Chemistry


 Q-Chem 5.4 (devel), Q-Chem, Inc., Pleasanton, CA (2021)

 E. Epifanovsky,  A. T. B. Gilbert,  Xintian Feng,  Joonho Lee,  Yuezhi Mao,  
 N. Mardirossian,  P. Pokhilko,  A. White,  M. Wormit,  M. P. Coons,  
 A. L. Dempwolff,  Zhengting Gan,  D. Hait,  P. R. Horn,  L. D. Jacobson,  
 I. Kaliman,  J. Kussmann,  A. W. Lange,  Ka Un Lao,  D. S. Levine,  Jie Liu,  
 S. C. McKenzie,  A. F. Morrison,  K. Nanda,  F. Plasser,  D. R. Rehn,  
 M. L. Vidal,  Zhi-Qiang You,  Ying Zhu,  B. Alam,  B. Albrecht,  
 A. Aldossary,  E. Alguire,  J. H. Andersen,  D. Barton,  K. Begam,  A. Behn,  
 Y. A. Bernard,  E. J. Berquist,  H. Burton,  A. Carreras,  K. Carter-Fenk,  
 R. Chakraborty,  A. D. Chien,  K. D. Closser,  V. Cofer-Shabica,  
 S. Dasgupta,  Jia Deng,  M. de Wergifosse,  M. Diedenhofen,  Hainam Do,  
 S. Ehlert,  Po-Tung Fang,  S. Fatehi,  Qingguo Feng,  T. Friedhoff,  
 J. Gayvert,  Qinghui Ge,  G. Gidofalvi,  M. Goldey,  J. Gomes,  
 C. Gonzalez-Espinoza,  S. Gulania,  A. Gunina,  M. W. D. Hanson-Heine,  
 P. H. P. Harbach,  A. W. Hauser,  M. F. Herbst,  M. Hernandez Vera,  
 M. Hodecker,  Z. C. Holden,  S. Houck,  Xunkun Huang,  Kerwin Hui,  
 B. C. Huynh,  M. Ivanov,  Hyunjun Ji,  Hanjie Jiang,  B. Kaduk,  S. Kaehler,  
 K. Khistyaev,  Jaehoon Kim,  P. Klunzinger,  Z. Koczor-Benda,  
 Joong Hoon Koh,  D. Kosenkov,  L. Koulias,  T. Kowalczyk,  C. M. Krauter,  
 K. Kue,  A. Kunitsa,  T. Kus,  A. Landau,  K. V. Lawler,  D. Lefrancois,  
 S. Lehtola,  Rain Li,  Yi-Pei Li,  Jiashu Liang,  M. Liebenthal,  
 Hung-Hsuan Lin,  You-Sheng Lin,  Fenglai Liu,  Kuan-Yu Liu,  
 M. Loipersberger,  A. Luenser,  A. Manjanath,  P. Manohar,  E. Mansoor,  
 S. F. Manzer,  Shan-Ping Mao,  A. V. Marenich,  T. Markovich,  S. Mason,  
 S. A. Maurer,  P. F. McLaughlin,  M. F. S. J. Menger,  J.-M. Mewes,  
 S. A. Mewes,  P. Morgante,  J. W. Mullinax,  K. J. Oosterbaan,  G. Paran,  
 Alexander C. Paul,  Suranjan K. Paul,  F. Pavosevic,  Zheng Pei,  S. Prager,  
 E. I. Proynov,  E. Ramos,  B. Rana,  A. E. Rask,  A. Rettig,  R. M. Richard,  
 F. Rob,  E. Rossomme,  T. Scheele,  M. Scheurer,  M. Schneider,  
 N. Sergueev,  S. M. Sharada,  W. Skomorowski,  D. W. Small,  C. J. Stein,  
 Yu-Chuan Su,  E. J. Sundstrom,  Zhen Tao,  J. Thirman,  T. Tsuchimochi,  
 N. M. Tubman,  S. P. Veccham,  O. Vydrov,  J. Wenzel,  J. Witte,  A. Yamada,  
 Kun Yao,  S. Yeganeh,  S. R. Yost,  A. Zech,  Igor Ying Zhang,  Xing Zhang,  
 Yu Zhang,  D. Zuev,  A. Aspuru-Guzik,  A. T. Bell,  N. A. Besley,  
 K. B. Bravaya,  B. R. Brooks,  D. Casanova,  Jeng-Da Chai,  S. Coriani,  
 C. J. Cramer,  A. E. DePrince, III,  R. A. DiStasio Jr.,  A. Dreuw,  
 B. D. Dunietz,  T. R. Furlani,  W. A. Goddard III,  S. Grimme,  
 S. Hammes-Schiffer,  T. Head-Gordon,  W. J. Hehre,  Chao-Ping Hsu,  
 T.-C. Jagau,  Yousung Jung,  A. Klamt,  Jing Kong,  D. S. Lambrecht,  
 WanZhen Liang,  N. J. Mayhall,  C. W. McCurdy,  J. B. Neaton,  
 C. Ochsenfeld,  J. A. Parkhill,  R. Peverati,  V. A. Rassolov,  Yihan Shao,  
 L. V. Slipchenko,  T. Stauch,  R. P. Steele,  J. E. Subotnik,  
 A. J. W. Thom,  A. Tkatchenko,  D. G. Truhlar,  T. Van Voorhis,  
 T. A. Wesolowski,  K. B. Whaley,  H. L. Woodcock III,  P. M. Zimmerman,  
 S. Faraji,  P. M. W. Gill,  M. Head-Gordon,  J. M. Herbert,  A. I. Krylov

 Additional authors for Version 5.4.1: 
 S. Kotaru,  Shaozhi Li,  Xiangyuan Li,  F. Matz,  A. Molle,  Haisheng Ren,  
 Yingli Su,  Hung-Yi Tsai,  C. Utku,  Fang Wang

 Contributors to earlier versions of Q-Chem not listed above: 
 R. D. Adamson,  B. Austin,  R. Baer,  J. Baker,  G. J. O. Beran,  
 K. Brandhorst,  S. T. Brown,  E. F. C. Byrd,  A. K. Chakraborty,  
 G. K. L. Chan,  Chun-Min Chang,  Yunqing Chen,  C.-L. Cheng,  
 Siu Hung Chien,  D. M. Chipman,  D. L. Crittenden,  H. Dachsel,  
 R. J. Doerksen,  A. D. Dutoi,  R. G. Edgar,  J. Fosso-Tande,  
 L. Fusti-Molnar,  D. Ghosh,  A. Ghysels,  A. Golubeva-Zadorozhnaya,  
 J. Gonthier,  M. S. Gordon,  S. R. Gwaltney,  G. Hawkins,  J. E. Herr,  
 A. Heyden,  S. Hirata,  E. G. Hohenstein,  G. Kedziora,  F. J. Keil,  
 C. Kelley,  Jihan Kim,  R. A. King,  R. Z. Khaliullin,  P. P. Korambath,  
 W. Kurlancheek,  A. Laurent,  A. M. Lee,  M. S. Lee,  S. V. Levchenko,  
 Ching Yeh Lin,  D. Liotard,  E. Livshits,  R. C. Lochan,  I. Lotan,  
 L. A. Martinez-Martinez,  P. E. Maslen,  N. Nair,  D. P. O'Neill,  
 D. Neuhauser,  E. Neuscamman,  C. M. Oana,  R. Olivares-Amaya,  R. Olson,  
 T. M. Perrine,  B. Peters,  P. A. Pieniazek,  A. Prociuk,  Y. M. Rhee,  
 J. Ritchie,  M. A. Rohrdanz,  E. Rosta,  N. J. Russ,  H. F. Schaefer III,  
 M. W. Schmidt,  N. E. Schultz,  S. Sharma,  N. Shenvi,  C. D. Sherrill,  
 A. C. Simmonett,  A. Sodt,  T. Stein,  D. Stuck,  K. S. Thanthiriwatte,  
 V. Vanovschi,  L. Vogt,  Tao Wang,  A. Warshel,  M. A. Watson,  
 C. F. Williams,  Q. Wu,  X. Xu,  Jun Yang,  W. Zhang,  Yan Zhao

 Please cite Q-Chem as follows:
 Y. Shao et al., Mol. Phys. 113, 184-215 (2015)
 DOI: 10.1080/00268976.2014.952696

 Q-Chem 5.4.1 for Intel X86 EM64T Linux

 Parts of Q-Chem use Armadillo 9.800.1 (Horizon Scraper).
 http://arma.sourceforge.net/

 Q-Chem begins on Tue Mar 21 11:33:02 2023  

 Host: cpu186.baobab
0

     Scratch files written to /scratch/fum/qchem58916//
 Processing $rem in /home/share/wesolowski/qc5.aug2021.FDE/config/preferences:
 Processing $rem in /home/fum/.qchemrc:

 Checking the input file for inconsistencies... 	...done.

--------------------------------------------------------------
User input:
--------------------------------------------------------------
$comment
generated from CCJob.Templates
$end

$rem
sym_ignore = true
method = adc(2)
ee_states = 10
basis = cc-pVDZ
mem_static = 1024
mem_total = 40000
adc_davidson_maxiter = 900
adc_davidson_conv = 6
adc_print = 3
adc_prop_es = true
adc_prop_es2es = true
adc_prop_tpa = true
molden_format = True
state_analysis = true
print_orbitals = 15
gen_scfman = false
fde_export_density = true
fde_details = 3
$end

$molecule
0 1
H -0.0197125716957914 -0.24651490592411335 0.06524270929395265
C -1.0785368747673325 -0.5250752072657229 -0.0024325483963692136
H -1.3008353527191623 -1.5911923602965823 -0.07756667450675024
C -2.044133420832706 0.3945000663656813 0.006679527896367125
H -1.8218752638808176 1.460626117396698 0.08179329600675671
H -3.102971015004097 0.1159496274241409 -0.06091724799395182                     
$end
--------------------------------------------------------------
 ----------------------------------------------------------------
             Standard Nuclear Orientation (Angstroms)
    I     Atom           X                Y                Z
 ----------------------------------------------------------------
    1      H      -0.0197125717    -0.2465149059     0.0652427093
    2      C      -1.0785368748    -0.5250752073    -0.0024325484
    3      H      -1.3008353527    -1.5911923603    -0.0775666745
    4      C      -2.0441334208     0.3945000664     0.0066795279
    5      H      -1.8218752639     1.4606261174     0.0817932960
    6      H      -3.1029710150     0.1159496274    -0.0609172480
 ----------------------------------------------------------------
 Nuclear Repulsion Energy =          33.20999215 hartrees
 There are        8 alpha and        8 beta electrons
 Requested basis set is cc-pVDZ
 There are 24 shells and 48 basis functions
 Total memory of 40000 MB is distributed as follows: 
   MEM_STATIC is set to 1024 MB
   QALLOC/CCMAN JOB total memory use is  38976 MB
 Warning: actual memory use might exceed 40000 MB

 Total QAlloc Memory Limit  40000 MB
 Mega-Array Size      1001 MB
 MEM_STATIC part      1024 MB

                       Distance Matrix (Angstroms)
             H (  1)   C (  2)   H (  3)   C (  4)   H (  5)
   C (  2)  1.096943
   H (  3)  1.862747  1.091635
   C (  4)  2.124290  1.333446  2.121925
   H (  5)  2.482417  2.121946  3.100076  1.091634
   H (  6)  3.107053  2.124304  2.482399  1.096949  1.862720

 A cutoff of  1.0D-11 yielded    300 shell pairs
 There are      1220 function pairs (      1329 Cartesian)
 Smallest overlap matrix eigenvalue = 4.81E-03

 Scale SEOQF with 1.000000e-01/1.000000e-01/1.000000e+00

 Standard Electronic Orientation quadrupole field applied
 Nucleus-field energy     =     0.0000000022 hartrees
 Guess from superposition of atomic densities
 Warning:  Energy on first SCF cycle will be non-variational
 SAD guess density has 16.000000 electrons
 A restricted Hartree-Fock SCF calculation will be
 performed using Pulay DIIS extrapolation
 SCF converges when DIIS error is below 1.0E-08
 using 10 threads for integral computing
 -------------------------------------------------------
 OpenMP Integral computing Module                
 Release: version 1.0, May 2013, Q-Chem Inc. Pittsburgh 
 -------------------------------------------------------
 ---------------------------------------
  Cycle       Energy         DIIS Error
 ---------------------------------------
    1     -78.3977762551      9.93E-02
    2     -78.0175709558      7.13E-03
    3     -78.0380374771      1.83E-03
    4     -78.0395136660      5.64E-04
    5     -78.0396312889      5.81E-05
    6     -78.0396331526      9.29E-06
    7     -78.0396332140      1.95E-06
    8     -78.0396332167      1.67E-07
    9     -78.0396332167      1.73E-08
   10     -78.0396332167      3.83E-09 Convergence criterion met
 ---------------------------------------
 SCF time:  CPU 1.91 s  wall 2.29 s
 SCF   energy in the final basis set = -78.03963322
 Total energy in the final basis set = -78.03963322
Exporting Density Matrix to file 'Densmat_SCF.txt'.
Export successful
================================================================================
|                                                                              |
|                                 A D C  M A N                                 |
|                                                                              |
 ------------------------------------------------------------------------------ 
|                                                                              |
| Components:                                                                  |
|                                                                              |
| - libvmm - 1.3-trunk                                                         |
|   Authors:                                                                   |
|   Evgeny Epifanovsky, Ilya Kaliman                                           |
|                                                                              |
| - libtensor - 2.5-trunk                                                      |
|   Authors:                                                                   |
|   Evgeny Epifanovsky, Michael Wormit, Dmitry Zuev, Sam Manzer,               |
|   Ilya Kaliman                                                               |
|                                                                              |
| - libwfa - 1.1-trunk                                                         |
|   Authors:                                                                   |
|   Felix Plasser, Stefanie Mewes (Baeppler), Benjamin Thomitzni,              |
|   Michael Wormit, Feng Chen, Anna I. Krylov, Pavel Pokhilko                  |
|                                                                              |
| - libadc - 1.1-trunk                                                         |
|   Authors:                                                                   |
|   Michael Wormit, Adrian L. Dempwolff, Philipp H. P. Harbach,                |
|   Caroline Krauter, Dirk Rehn, Matthias Schneider, Jan Wenzel                |
|                                                                              |
| - adcman - 2.6-trunk                                                         |
|   Authors:                                                                   |
|   Michael Wormit, Adrian L. Dempwolff, Philipp H. P. Harbach,                |
|   Caroline Krauter, Daniel Lefrancois, Jan-Michael Mewes, Dirk Rehn,         |
|   Matthias Schneider, Jan Wenzel, Andreas Dreuw                              |
|                                                                              |
| Authors of earlier versions of ADCMAN:                                       |
| Andreas Dreuw, Jan Hendrik Starcke, Dirk Rehn, Michael Wormit                |
|                                                                              |
================================================================================

 Created directory /scratch/fum/qchem58916/plots
  Import QC data ...  CPU 0.00 s  wall 0.00 s

 Alpha MOs, Restricted
 -- Occupied --                  
-11.239 -11.237  -1.030  -0.786  -0.635  -0.582  -0.500  -0.374
  1 A     2 A     3 A     4 A     5 A     6 A     7 A     8 A                  
 -- Virtual --                   
  0.168   0.203   0.231   0.236   0.303   0.463   0.580   0.609
  9 A    10 A    11 A    12 A    13 A    14 A    15 A    16 A                  
  0.689   0.705   0.776   0.807   0.858   0.928   0.971   1.006
 17 A    18 A    19 A    20 A    21 A    22 A    23 A    24 A                  
  1.130   1.237   1.241   1.263   1.291   1.593   1.728   1.744
 25 A    26 A    27 A    28 A    29 A    30 A    31 A    32 A                  
  1.811   1.852   1.854   1.901   1.963   1.972   2.224   2.248
 33 A    34 A    35 A    36 A    37 A    38 A    39 A    40 A                  
  2.356   2.423   2.493   2.623   2.679   2.795   3.099   3.369
 41 A    42 A    43 A    44 A    45 A    46 A    47 A    48 A                  

 Beta MOs, Restricted
 -- Occupied --                  
-11.239 -11.237  -1.030  -0.786  -0.635  -0.582  -0.500  -0.374
  1 A     2 A     3 A     4 A     5 A     6 A     7 A     8 A                  
 -- Virtual --                   
  0.168   0.203   0.231   0.236   0.303   0.463   0.580   0.609
  9 A    10 A    11 A    12 A    13 A    14 A    15 A    16 A                  
  0.689   0.705   0.776   0.807   0.858   0.928   0.971   1.006
 17 A    18 A    19 A    20 A    21 A    22 A    23 A    24 A                  
  1.130   1.237   1.241   1.263   1.291   1.593   1.728   1.744
 25 A    26 A    27 A    28 A    29 A    30 A    31 A    32 A                  
  1.811   1.852   1.854   1.901   1.963   1.972   2.224   2.248
 33 A    34 A    35 A    36 A    37 A    38 A    39 A    40 A                  
  2.356   2.423   2.493   2.623   2.679   2.795   3.099   3.369
 41 A    42 A    43 A    44 A    45 A    46 A    47 A    48 A                  
  Import AO data ...  CPU 0.00 s  wall 0.00 s
  Using point group: C1
  Irreducible representations in point group: A
  Molecular orbitals: 
  Occupied MOs:
  Block   0:   1 (  A) A   2 (  A) A   3 (  A) A   4 (  A) A   5 (  A) A
                  -11.24      -11.24       -1.03     -0.7859      -0.635
               6 (  A) A   7 (  A) A   8 (  A) A
                 -0.5824     -0.4995     -0.3744
  Block   1:   1 (  A) B   2 (  A) B   3 (  A) B   4 (  A) B   5 (  A) B
                  -11.24      -11.24       -1.03     -0.7859      -0.635
               6 (  A) B   7 (  A) B   8 (  A) B
                 -0.5824     -0.4995     -0.3744
  Virtual MOs:
  Block   0:   9 (  A) A  10 (  A) A  11 (  A) A  12 (  A) A  13 (  A) A
                  0.1679      0.2026       0.231      0.2365       0.303
              14 (  A) A  15 (  A) A  16 (  A) A  17 (  A) A  18 (  A) A
                  0.4628      0.5798      0.6089      0.6887      0.7048
              19 (  A) A  20 (  A) A  21 (  A) A  22 (  A) A
                  0.7757      0.8074      0.8584       0.928
  Block   1:  23 (  A) A  24 (  A) A  25 (  A) A  26 (  A) A  27 (  A) A
                  0.9706       1.006        1.13       1.237       1.241
              28 (  A) A  29 (  A) A  30 (  A) A  31 (  A) A  32 (  A) A
                   1.263       1.291       1.593       1.728       1.744
              33 (  A) A  34 (  A) A  35 (  A) A  36 (  A) A
                   1.811       1.852       1.854       1.901
  Block   2:  37 (  A) A  38 (  A) A  39 (  A) A  40 (  A) A  41 (  A) A
                   1.963       1.972       2.224       2.248       2.356
              42 (  A) A  43 (  A) A  44 (  A) A  45 (  A) A  46 (  A) A
                   2.423       2.493       2.623       2.679       2.795
              47 (  A) A  48 (  A) A
                   3.099       3.369
  Block   3:   9 (  A) B  10 (  A) B  11 (  A) B  12 (  A) B  13 (  A) B
                  0.1679      0.2026       0.231      0.2365       0.303
              14 (  A) B  15 (  A) B  16 (  A) B  17 (  A) B  18 (  A) B
                  0.4628      0.5798      0.6089      0.6887      0.7048
              19 (  A) B  20 (  A) B  21 (  A) B  22 (  A) B
                  0.7757      0.8074      0.8584       0.928
  Block   4:  23 (  A) B  24 (  A) B  25 (  A) B  26 (  A) B  27 (  A) B
                  0.9706       1.006        1.13       1.237       1.241
              28 (  A) B  29 (  A) B  30 (  A) B  31 (  A) B  32 (  A) B
                   1.263       1.291       1.593       1.728       1.744
              33 (  A) B  34 (  A) B  35 (  A) B  36 (  A) B
                   1.811       1.852       1.854       1.901
  Block   5:  37 (  A) B  38 (  A) B  39 (  A) B  40 (  A) B  41 (  A) B
                   1.963       1.972       2.224       2.248       2.356
              42 (  A) B  43 (  A) B  44 (  A) B  45 (  A) B  46 (  A) B
                   2.423       2.493       2.623       2.679       2.795
              47 (  A) B  48 (  A) B
                   3.099       3.369
  Import MO data ...  CPU 0.06 s  wall 0.02 s
  Import HF data ...  CPU 0.48 s  wall 0.17 s
  Import 2e integrals ...  CPU 1.06 s  wall 0.20 s

--------------------------------------------------------------------------------
                                   HF Summary                                   
--------------------------------------------------------------------------------
  Energy:                                                  -78.0396332167 a.u.
  Dip. moment [a.u.]:                  [  -0.000004,    0.000003,    0.000016]
  Total dipole [Debye]:                                               0.000043
  <r^2> [a.u.]:                        [ 175.845545,   35.275456,   11.680379]
  Total <r^2> [a.u.]:                                               222.801380
--------------------------------------------------------------------------------
  HF properties ...  CPU 0.08 s  wall 0.04 s
  MP(1) calculation ...  CPU 0.01 s  wall 0.01 s
  N^6 prerequesite intermediates ...  CPU 0.69 s  wall 0.12 s
  Difference density matrix of state mp2_gs printed to ASCII file 'State_mp2_gs_Difference.txt'
Exporting MP density matrix to file 'Densmat_MP.txt'.
Export successful
  Total density matrix of state mp2_gs printed to ASCII file 'State_mp2_gs_Total.txt'
Exporting MP density matrix to file 'Densmat_MP.txt'.
Export successful

--------------------------------------------------------------------------------
                                 MP(2) Summary                                  
--------------------------------------------------------------------------------
  MP energy contribution:                                   -0.2804885687 a.u.
  Total energy:                                            -78.3201217854 a.u.
  Dip. moment [a.u.]:                  [  -0.000004,    0.000002,    0.000016]
  Total dipole [Debye]:                                               0.000042
  <r^2> [a.u.]:                        [ 175.884638,   35.312387,   11.507957]
  Total <r^2> [a.u.]:                                               222.704982

  Density matrix analysis:
  ------------------------
  NOs
    Occupation of frontier NOs:
       0.0455   1.9380
    Number of electrons: 16.000000
    Number of unpaired electrons: n_u =  0.40725, n_u,nl =  0.04580
    NO participation ratio (PR_NO): 13.896551
  
  
  Mulliken Population Analysis
  Atom      Charge (e)              h+              e-           Del q
  --------------------------------------------------------------------
   1 H        0.055408        0.013888       -0.011310        0.002578
   2 C       -0.109928        0.094594       -0.099790       -0.005196
   3 H        0.054526        0.013926       -0.011308        0.002619
   4 C       -0.109937        0.094594       -0.099791       -0.005198
   5 H        0.054524        0.013926       -0.011308        0.002619
   6 H        0.055407        0.013889       -0.011310        0.002578
  --------------------------------------------------------------------
  Sum:        0.000000        0.244817       -0.244817       -0.000000
  
  Multipole moment analysis of the density matrix
    Molecular charge:                      0.000000
    Number of electrons:                   16.000000
      Center of electronic charge [Ang]: [ -1.561338,  -0.065286,   0.002127]
    Total nuclear charge:                  16.000000
      Center of nuclear charge [Ang]:    [ -1.561338,  -0.065286,   0.002127]
    Dipole moment [D]:                     0.000042
      Cartesian components [D]:          [ -0.000010,   0.000006,   0.000041]
    RMS size of the density [Ang]:         1.206520
      Cartesian components [Ang]:        [  0.800323,   0.783433,   0.448782]
  
  Exciton analysis of the difference density matrix
    <r_h> [Ang]:                  [ -1.561339,  -0.065287,   0.002124]
    <r_e> [Ang]:                  [ -1.561339,  -0.065286,   0.002124]
    |<r_e - r_h>| [Ang]:            0.000002
    Hole size [Ang]:                1.401663
      Cartesian components [Ang]: [  0.853978,   0.839267,   0.728705]
    Electron size [Ang]:            1.361762
      Cartesian components [Ang]: [  0.879769,   0.864068,   0.577745]
--------------------------------------------------------------------------------
  MP(2) calculation ...  CPU 0.30 s  wall 0.21 s
  Start ADC(2)-s ...  CPU 0.02 s  wall 0.01 s
  ADC(2) intermediates ...  CPU 0.04 s  wall 0.01 s
  Starting Davidson for singlet states of irrep A ... 
--------------------------------------------------------------------------------
   It NVec Conv  Avg. Norm  Max. Norm  Conv. states           Remark
--------------------------------------------------------------------------------
        10    0  1.329e-01  4.687e-01  0.4117 n n n n n n n n Guess.
    1   20    0  2.315e-02  1.124e-01  0.3261 n n n n n n n n 
    2   30    0  5.880e-03  2.540e-02  0.3213 n n n n n n n n 
    3   40    0  1.972e-03  1.296e-02  0.3209 n n n n n n n n 
    4   50    0  6.352e-04  4.759e-03  0.3209 n n n n n n n n 
    5   20    0  2.823e-04  2.072e-03  0.3209 n n n n n n n n Subspace collapsed.
    6   30    0  1.668e-04  1.448e-03  0.3209 n n n n n n n n 
    7   40    0  8.397e-05  5.947e-04  0.3209 n n n n n n n n 
    8   50    0  4.720e-05  3.400e-04  0.3209 n n n n n n n n 
    9   20    1  3.189e-05  2.346e-04  0.3209 n y n n n n n n Subspace collapsed.
   10   30    5  3.582e-05  3.000e-04  0.3209 n y y y y y n n 
   11   40    5  3.338e-05  3.229e-04  0.3209 n y y y y y n n 
   12   50    6  1.925e-05  1.895e-04  0.3209 y y y y y y n n 
   13   20    6  8.104e-06  7.864e-05  0.3209 y y y y y y n n Subspace collapsed.
   14   30    6  6.242e-06  6.103e-05  0.3209 y y y y y y n n 
   15   40    8  2.928e-06  2.785e-05  0.3209 y y y y y y n y 
   16   50    8  2.275e-06  2.237e-05  0.3209 y y y y y y n y 
   17   20    8  1.385e-06  1.377e-05  0.3209 y y y y y y n y Subspace collapsed.
   18   30    8  2.297e-06  2.294e-05  0.3209 y y y y y y n y 
   19   40    9  2.606e-06  2.605e-05  0.3209 y y y y y y y y 
   20   50    9  2.115e-06  2.115e-05  0.3209 y y y y y y y y 
   21   20    9  9.710e-07  9.708e-06  0.3209 y y y y y y y y Subspace collapsed.
   22   30    9  7.351e-07  7.349e-06  0.3209 y y y y y y y y 
   23   31    9  7.040e-07  7.038e-06  0.3209 y y y y y y y y 
   24   32    9  7.033e-07  7.031e-06  0.3209 y y y y y y y y 
   25   33    9  7.032e-07  7.031e-06  0.3209 y y y y y y y y 
   26   33    9  7.032e-07  7.031e-06  0.3209 y y y y y y y y 
   27   43    9  2.998e-07  2.997e-06  0.3209 y y y y y y y y 
   28   49    9  4.022e-07  4.021e-06  0.3209 y y y y y y y y 
   29   50    9  3.993e-07  3.992e-06  0.3209 y y y y y y y y 
   30   15    9  1.704e-07  1.704e-06  0.3209 y y y y y y y y Subspace collapsed.
   31   20    9  2.943e-07  2.942e-06  0.3209 y y y y y y y y 
   32   24    9  3.014e-07  3.014e-06  0.3209 y y y y y y y y 
   33   28    9  3.517e-07  3.517e-06  0.3209 y y y y y y y y 
   34   32    9  2.133e-07  2.133e-06  0.3209 y y y y y y y y 
   35   36    9  1.016e-07  1.016e-06  0.3209 y y y y y y y y 
   36   40   10  4.883e-08  4.883e-07  0.3209 y y y y y y y y Converged.
--------------------------------------------------------------------------------
  Davidson Summary: 
 ------------------------------------------------------------
  State  0: excitation energy =   0.3209 a.u.   (converged)
  State  1: excitation energy =   0.3290 a.u.   (converged)
  State  2: excitation energy =   0.3359 a.u.   (converged)
  State  3: excitation energy =   0.3579 a.u.   (converged)
  State  4: excitation energy =   0.3733 a.u.   (converged)
  State  5: excitation energy =   0.3866 a.u.   (converged)
  State  6: excitation energy =   0.4202 a.u.   (converged)
  State  7: excitation energy =   0.4435 a.u.   (converged)
  State  8: excitation energy =   0.4537 a.u.   (converged)
  State  9: excitation energy =   0.4585 a.u.   (converged)
 ------------------------------------------------------------

  Singlet states of irrep A ...  CPU 209.29 s  wall 67.75 s
  TDMs ...  CPU 2.50 s  wall 0.89 s
  SDMs ...  CPU 4.76 s  wall 1.45 s
  Starting TPA DIIS iterations ... 
------------------------------------ 
   It     Res. Norm  Remark
------------------------------------
                       Guess.
    1     4.388e+00  
    2     5.824e+00  
    3     1.088e+00  
    4     2.656e-01  
    5     6.590e-02  
    6     2.807e-02  
    7     8.502e-03  
    8     1.580e-03  
    9     5.931e-04  
   10     9.873e-05  
   11     3.221e-05  
   12     4.953e-06  
   13     1.671e-06  
   14     4.847e-07  Converged.
   ... Converged in 14 steps (norm: 4.84687e-07)
------------------------------------
  Starting TPA DIIS iterations ... 
------------------------------------ 
   It     Res. Norm  Remark
------------------------------------
                       Guess.
    1     4.197e+00  
    2     5.556e+00  
    3     1.035e+00  
    4     2.593e-01  
    5     6.526e-02  
    6     2.748e-02  
    7     8.310e-03  
    8     1.543e-03  
    9     5.819e-04  
   10     9.633e-05  
   11     3.120e-05  
   12     4.782e-06  
   13     1.646e-06  
   14     4.705e-07  Converged.
   ... Converged in 14 steps (norm: 4.70466e-07)
------------------------------------
  Starting TPA DIIS iterations ... 
------------------------------------ 
   It     Res. Norm  Remark
------------------------------------
                       Guess.
    1     6.856e-01  
    2     4.796e-01  
    3     1.687e-01  
    4     6.449e-02  
    5     1.871e-02  
    6     6.671e-03  
    7     1.073e-03  
    8     4.583e-04  
    9     1.263e-04  
   10     3.099e-05  
   11     5.057e-06  
   12     1.794e-06  
   13     8.707e-07  Converged.
   ... Converged in 13 steps (norm: 8.70678e-07)
------------------------------------
  Starting TPA DIIS iterations ... 
------------------------------------ 
   It     Res. Norm  Remark
------------------------------------
                       Guess.
    1     4.583e+00  
    2     6.174e+00  
    3     1.143e+00  
    4     2.857e-01  
    5     7.158e-02  
    6     3.070e-02  
    7     9.286e-03  
    8     1.725e-03  
    9     6.507e-04  
   10     1.087e-04  
   11     3.571e-05  
   12     5.524e-06  
   13     1.873e-06  
   14     5.418e-07  Converged.
   ... Converged in 14 steps (norm: 5.41761e-07)
------------------------------------
  Starting TPA DIIS iterations ... 
------------------------------------ 
   It     Res. Norm  Remark
------------------------------------
                       Guess.
    1     4.383e+00  
    2     5.890e+00  
    3     1.088e+00  
    4     2.787e-01  
    5     7.090e-02  
    6     3.006e-02  
    7     9.076e-03  
    8     1.685e-03  
    9     6.383e-04  
   10     1.061e-04  
   11     3.458e-05  
   12     5.332e-06  
   13     1.845e-06  
   14     5.259e-07  Converged.
   ... Converged in 14 steps (norm: 5.25949e-07)
------------------------------------
  Starting TPA DIIS iterations ... 
------------------------------------ 
   It     Res. Norm  Remark
------------------------------------
                       Guess.
    1     6.939e-01  
    2     4.914e-01  
    3     1.754e-01  
    4     7.028e-02  
    5     1.968e-02  
    6     7.090e-03  
    7     1.165e-03  
    8     5.136e-04  
    9     1.439e-04  
   10     3.437e-05  
   11     5.506e-06  
   12     2.008e-06  
   13     1.011e-06  
   14     3.688e-07  Converged.
   ... Converged in 14 steps (norm: 3.68756e-07)
------------------------------------
  Starting TPA DIIS iterations ... 
------------------------------------ 
   It     Res. Norm  Remark
------------------------------------
                       Guess.
    1     4.763e+00  
    2     6.500e+00  
    3     1.195e+00  
    4     3.048e-01  
    5     7.696e-02  
    6     3.320e-02  
    7     1.003e-02  
    8     1.862e-03  
    9     7.054e-04  
   10     1.183e-04  
   11     3.908e-05  
   12     6.073e-06  
   13     2.069e-06  
   14     5.968e-07  Converged.
   ... Converged in 14 steps (norm: 5.96765e-07)
------------------------------------
  Starting TPA DIIS iterations ... 
------------------------------------ 
   It     Res. Norm  Remark
------------------------------------
                       Guess.
    1     4.554e+00  
    2     6.201e+00  
    3     1.137e+00  
    4     2.971e-01  
    5     7.624e-02  
    6     3.251e-02  
    7     9.802e-03  
    8     1.819e-03  
    9     6.920e-04  
   10     1.154e-04  
   11     3.782e-05  
   12     5.861e-06  
   13     2.039e-06  
   14     5.794e-07  Converged.
   ... Converged in 14 steps (norm: 5.7945e-07)
------------------------------------
  Starting TPA DIIS iterations ... 
------------------------------------ 
   It     Res. Norm  Remark
------------------------------------
                       Guess.
    1     7.012e-01  
    2     5.019e-01  
    3     1.814e-01  
    4     7.582e-02  
    5     2.056e-02  
    6     7.487e-03  
    7     1.254e-03  
    8     5.679e-04  
    9     1.613e-04  
   10     3.715e-05  
   11     5.925e-06  
   12     2.218e-06  
   13     1.154e-06  
   14     4.127e-07  Converged.
   ... Converged in 14 steps (norm: 4.12712e-07)
------------------------------------
  Starting TPA DIIS iterations ... 
------------------------------------ 
   It     Res. Norm  Remark
------------------------------------
                       Guess.
    1     5.411e+00  
    2     7.707e+00  
    3     1.379e+00  
    4     3.776e-01  
    5     9.751e-02  
    6     4.287e-02  
    7     1.287e-02  
    8     2.386e-03  
    9     9.168e-04  
   10     1.552e-04  
   11     5.232e-05  
   12     8.239e-06  
   13     2.858e-06  
   14     8.150e-07  Converged.
   ... Converged in 14 steps (norm: 8.15018e-07)
------------------------------------
  Starting TPA DIIS iterations ... 
------------------------------------ 
   It     Res. Norm  Remark
------------------------------------
                       Guess.
    1     5.172e+00  
    2     7.351e+00  
    3     1.311e+00  
    4     3.673e-01  
    5     9.663e-02  
    6     4.200e-02  
    7     1.258e-02  
    8     2.330e-03  
    9     8.993e-04  
   10     1.514e-04  
   11     5.057e-05  
   12     7.947e-06  
   13     2.820e-06  
   14     7.920e-07  Converged.
   ... Converged in 14 steps (norm: 7.91987e-07)
------------------------------------
  Starting TPA DIIS iterations ... 
------------------------------------ 
   It     Res. Norm  Remark
------------------------------------
                       Guess.
    1     7.253e-01  
    2     5.382e-01  
    3     2.027e-01  
    4     9.755e-02  
    5     2.373e-02  
    6     9.002e-03  
    7     1.605e-03  
    8     7.855e-04  
    9     2.297e-04  
   10     4.410e-05  
   11     7.488e-06  
   12     3.063e-06  
   13     1.776e-06  
   14     5.886e-07  Converged.
   ... Converged in 14 steps (norm: 5.88645e-07)
------------------------------------
  Starting TPA DIIS iterations ... 
------------------------------------ 
   It     Res. Norm  Remark
------------------------------------
                       Guess.
    1     5.961e+00  
    2     8.765e+00  
    3     1.534e+00  
    4     4.441e-01  
    5     1.162e-01  
    6     5.180e-02  
    7     1.547e-02  
    8     2.862e-03  
    9     1.112e-03  
   10     1.892e-04  
   11     6.476e-05  
   12     1.028e-05  
   13     3.616e-06  
   14     1.025e-06  
   15     3.303e-07  Converged.
   ... Converged in 15 steps (norm: 3.30282e-07)
------------------------------------
  Starting TPA DIIS iterations ... 
------------------------------------ 
   It     Res. Norm  Remark
------------------------------------
                       Guess.
    1     5.696e+00  
    2     8.359e+00  
    3     1.458e+00  
    4     4.312e-01  
    5     1.152e-01  
    6     5.077e-02  
    7     1.512e-02  
    8     2.796e-03  
    9     1.090e-03  
   10     1.846e-04  
   11     6.256e-05  
   12     9.911e-06  
   13     3.574e-06  
   14     9.966e-07  Converged.
   ... Converged in 14 steps (norm: 9.96579e-07)
------------------------------------
  Starting TPA DIIS iterations ... 
------------------------------------ 
   It     Res. Norm  Remark
------------------------------------
                       Guess.
    1     7.433e-01  
    2     5.669e-01  
    3     2.201e-01  
    4     1.179e-01  
    5     2.646e-02  
    6     1.039e-02  
    7     1.942e-03  
    8     9.852e-04  
    9     2.907e-04  
   10     4.687e-05  
   11     8.904e-06  
   12     3.872e-06  
   13     2.429e-06  
   14     7.555e-07  Converged.
   ... Converged in 14 steps (norm: 7.55499e-07)
------------------------------------
  Starting TPA DIIS iterations ... 
------------------------------------ 
   It     Res. Norm  Remark
------------------------------------
                       Guess.
    1     6.511e+00  
    2     9.853e+00  
    3     1.687e+00  
    4     5.145e-01  
    5     1.361e-01  
    6     6.136e-02  
    7     1.822e-02  
    8     3.366e-03  
    9     1.320e-03  
   10     2.257e-04  
   11     7.816e-05  
   12     1.247e-05  
   13     4.442e-06  
   14     1.258e-06  
   15     4.081e-07  Converged.
   ... Converged in 15 steps (norm: 4.08125e-07)
------------------------------------
  Starting TPA DIIS iterations ... 
------------------------------------ 
   It     Res. Norm  Remark
------------------------------------
                       Guess.
    1     6.221e+00  
    2     9.396e+00  
    3     1.604e+00  
    4     4.987e-01  
    5     1.349e-01  
    6     6.016e-02  
    7     1.780e-02  
    8     3.288e-03  
    9     1.295e-03  
   10     2.202e-04  
   11     7.547e-05  
   12     1.203e-05  
   13     4.398e-06  
   14     1.224e-06  
   15     4.074e-07  Converged.
   ... Converged in 15 steps (norm: 4.0739e-07)
------------------------------------
  Starting TPA DIIS iterations ... 
------------------------------------ 
   It     Res. Norm  Remark
------------------------------------
                       Guess.
    1     7.596e-01  
    2     5.941e-01  
    3     2.370e-01  
    4     1.397e-01  
    5     2.927e-02  
    6     1.186e-02  
    7     2.316e-03  
    8     1.185e-03  
    9     3.512e-04  
   10     4.823e-05  
   11     1.043e-05  
   12     4.748e-06  
   13     3.182e-06  
   14     9.352e-07  Converged.
   ... Converged in 14 steps (norm: 9.35174e-07)
------------------------------------
  Starting TPA DIIS iterations ... 
------------------------------------ 
   It     Res. Norm  Remark
------------------------------------
                       Guess.
    1     8.327e+00  
    2     1.364e+01  
    3     2.188e+00  
    4     7.705e-01  
    5     2.082e-01  
    6     9.687e-02  
    7     2.825e-02  
    8     5.197e-03  
    9     2.091e-03  
   10     3.602e-04  
   11     1.271e-04  
   12     2.063e-05  
   13     7.452e-06  
   14     2.211e-06  
   15     7.021e-07  Converged.
   ... Converged in 15 steps (norm: 7.02064e-07)
------------------------------------
  Starting TPA DIIS iterations ... 
------------------------------------ 
   It     Res. Norm  Remark
------------------------------------
                       Guess.
    1     7.952e+00  
    2     1.300e+01  
    3     2.079e+00  
    4     7.434e-01  
    5     2.065e-01  
    6     9.505e-02  
    7     2.760e-02  
    8     5.075e-03  
    9     2.049e-03  
   10     3.515e-04  
   11     1.229e-04  
   12     1.991e-05  
   13     7.458e-06  
   14     2.152e-06  
   15     7.027e-07  Converged.
   ... Converged in 15 steps (norm: 7.0271e-07)
------------------------------------
  Starting TPA DIIS iterations ... 
------------------------------------ 
   It     Res. Norm  Remark
------------------------------------
                       Guess.
    1     8.041e-01  
    2     6.754e-01  
    3     2.899e-01  
    4     2.183e-01  
    5     3.916e-02  
    6     1.721e-02  
    7     3.776e-03  
    8     1.729e-03  
    9     5.367e-04  
   10     5.531e-05  
   11     1.628e-05  
   12     7.906e-06  
   13     6.207e-06  
   14     1.591e-06  
   15     5.967e-07  Converged.
   ... Converged in 15 steps (norm: 5.96726e-07)
------------------------------------
  Starting TPA DIIS iterations ... 
------------------------------------ 
   It     Res. Norm  Remark
------------------------------------
                       Guess.
    1     1.012e+01  
    2     1.764e+01  
    3     2.670e+00  
    4     1.051e+00  
    5     2.881e-01  
    6     1.371e-01  
    7     3.936e-02  
    8     7.218e-03  
    9     2.960e-03  
   10     5.108e-04  
   11     1.791e-04  
   12     3.000e-05  
   13     1.063e-05  
   14     3.419e-06  
   15     1.097e-06  
   16     2.438e-07  Converged.
   ... Converged in 16 steps (norm: 2.43836e-07)
------------------------------------
  Starting TPA DIIS iterations ... 
------------------------------------ 
   It     Res. Norm  Remark
------------------------------------
                       Guess.
    1     9.663e+00  
    2     1.681e+01  
    3     2.537e+00  
    4     1.011e+00  
    5     2.858e-01  
    6     1.346e-01  
    7     3.845e-02  
    8     7.045e-03  
    9     2.899e-03  
   10     4.984e-04  
   11     1.739e-04  
   12     2.888e-05  
   13     1.075e-05  
   14     3.327e-06  
   15     1.080e-06  
   16     2.471e-07  Converged.
   ... Converged in 16 steps (norm: 2.47114e-07)
------------------------------------
  Starting TPA DIIS iterations ... 
------------------------------------ 
   It     Res. Norm  Remark
------------------------------------
                       Guess.
    1     8.387e-01  
    2     7.466e-01  
    3     3.385e-01  
    4     2.984e-01  
    5     4.970e-02  
    6     2.290e-02  
    7     5.482e-03  
    8     2.029e-03  
    9     7.001e-04  
   10     7.179e-05  
   11     2.313e-05  
   12     1.116e-05  
   13     9.671e-06  
   14     2.290e-06  
   15     7.899e-07  Converged.
   ... Converged in 15 steps (norm: 7.89878e-07)
------------------------------------
  Starting TPA DIIS iterations ... 
------------------------------------ 
   It     Res. Norm  Remark
------------------------------------
                       Guess.
    1     1.111e+01  
    2     1.994e+01  
    3     2.931e+00  
    4     1.215e+00  
    5     3.352e-01  
    6     1.612e-01  
    7     4.592e-02  
    8     8.408e-03  
    9     3.478e-03  
   10     6.000e-04  
   11     2.086e-04  
   12     3.579e-05  
   13     1.253e-05  
   14     4.182e-06  
   15     1.410e-06  
   16     3.077e-07  Converged.
   ... Converged in 16 steps (norm: 3.0772e-07)
------------------------------------
  Starting TPA DIIS iterations ... 
------------------------------------ 
   It     Res. Norm  Remark
------------------------------------
                       Guess.
    1     1.061e+01  
    2     1.901e+01  
    3     2.784e+00  
    4     1.167e+00  
    5     3.325e-01  
    6     1.583e-01  
    7     4.485e-02  
    8     8.204e-03  
    9     3.406e-03  
   10     5.853e-04  
   11     2.031e-04  
   12     3.435e-05  
   13     1.268e-05  
   14     4.070e-06  
   15     1.367e-06  
   16     3.106e-07  Converged.
   ... Converged in 16 steps (norm: 3.10605e-07)
------------------------------------
  Starting TPA DIIS iterations ... 
------------------------------------ 
   It     Res. Norm  Remark
------------------------------------
                       Guess.
    1     8.551e-01  
    2     7.830e-01  
    3     3.640e-01  
    4     3.404e-01  
    5     5.575e-02  
    6     2.607e-02  
    7     6.496e-03  
    8     2.117e-03  
    9     7.846e-04  
   10     8.330e-05  
   11     2.726e-05  
   12     1.297e-05  
   13     1.171e-05  
   14     2.675e-06  
   15     8.725e-07  Converged.
   ... Converged in 15 steps (norm: 8.72533e-07)
------------------------------------
  Starting TPA DIIS iterations ... 
------------------------------------ 
   It     Res. Norm  Remark
------------------------------------
                       Guess.
    1     1.162e+01  
    2     2.115e+01  
    3     3.065e+00  
    4     1.302e+00  
    5     3.602e-01  
    6     1.742e-01  
    7     4.941e-02  
    8     9.041e-03  
    9     3.755e-03  
   10     6.475e-04  
   11     2.241e-04  
   12     3.897e-05  
   13     1.358e-05  
   14     4.601e-06  
   15     1.605e-06  
   16     3.433e-07  Converged.
   ... Converged in 16 steps (norm: 3.4335e-07)
------------------------------------
  Starting TPA DIIS iterations ... 
------------------------------------ 
   It     Res. Norm  Remark
------------------------------------
                       Guess.
    1     1.109e+01  
    2     2.017e+01  
    3     2.911e+00  
    4     1.249e+00  
    5     3.574e-01  
    6     1.711e-01  
    7     4.826e-02  
    8     8.820e-03  
    9     3.677e-03  
   10     6.316e-04  
   11     2.184e-04  
   12     3.732e-05  
   13     1.373e-05  
   14     4.478e-06  
   15     1.545e-06  
   16     3.455e-07  Converged.
   ... Converged in 16 steps (norm: 3.45493e-07)
------------------------------------
  Starting TPA DIIS iterations ... 
------------------------------------ 
   It     Res. Norm  Remark
------------------------------------
                       Guess.
    1     8.630e-01  
    2     8.012e-01  
    3     3.768e-01  
    4     3.611e-01  
    5     5.892e-02  
    6     2.768e-02  
    7     7.033e-03  
    8     2.150e-03  
    9     8.271e-04  
   10     8.956e-05  
   11     2.948e-05  
   12     1.393e-05  
   13     1.282e-05  
   14     2.869e-06  
   15     9.103e-07  Converged.
   ... Converged in 15 steps (norm: 9.10338e-07)
------------------------------------
  Two-photon absorbption ...  CPU 163.63 s  wall 44.44 s
  Transition density matrix of state singlet_A_1 printed to ASCII file 'State_singlet_A_1_Transition.txt'
  Transition density matrix of state singlet_A_2 printed to ASCII file 'State_singlet_A_2_Transition.txt'
  Transition density matrix of state singlet_A_3 printed to ASCII file 'State_singlet_A_3_Transition.txt'
  Transition density matrix of state singlet_A_4 printed to ASCII file 'State_singlet_A_4_Transition.txt'
  Transition density matrix of state singlet_A_5 printed to ASCII file 'State_singlet_A_5_Transition.txt'
  Transition density matrix of state singlet_A_6 printed to ASCII file 'State_singlet_A_6_Transition.txt'
  Transition density matrix of state singlet_A_7 printed to ASCII file 'State_singlet_A_7_Transition.txt'
  Transition density matrix of state singlet_A_8 printed to ASCII file 'State_singlet_A_8_Transition.txt'
  Transition density matrix of state singlet_A_9 printed to ASCII file 'State_singlet_A_9_Transition.txt'
  Transition density matrix of state singlet_A_10 printed to ASCII file 'State_singlet_A_10_Transition.txt'
  Transition properties ...  CPU 0.39 s  wall 0.63 s
  Difference density matrix of state singlet_A_1 printed to ASCII file 'State_singlet_A_1_Difference.txt'
  Total density matrix of state singlet_A_1 printed to ASCII file 'State_singlet_A_1_Total.txt'
  Difference density matrix of state singlet_A_2 printed to ASCII file 'State_singlet_A_2_Difference.txt'
  Total density matrix of state singlet_A_2 printed to ASCII file 'State_singlet_A_2_Total.txt'
  Difference density matrix of state singlet_A_3 printed to ASCII file 'State_singlet_A_3_Difference.txt'
  Total density matrix of state singlet_A_3 printed to ASCII file 'State_singlet_A_3_Total.txt'
  Difference density matrix of state singlet_A_4 printed to ASCII file 'State_singlet_A_4_Difference.txt'
  Total density matrix of state singlet_A_4 printed to ASCII file 'State_singlet_A_4_Total.txt'
  Difference density matrix of state singlet_A_5 printed to ASCII file 'State_singlet_A_5_Difference.txt'
  Total density matrix of state singlet_A_5 printed to ASCII file 'State_singlet_A_5_Total.txt'
  Difference density matrix of state singlet_A_6 printed to ASCII file 'State_singlet_A_6_Difference.txt'
  Total density matrix of state singlet_A_6 printed to ASCII file 'State_singlet_A_6_Total.txt'
  Difference density matrix of state singlet_A_7 printed to ASCII file 'State_singlet_A_7_Difference.txt'
  Total density matrix of state singlet_A_7 printed to ASCII file 'State_singlet_A_7_Total.txt'
  Difference density matrix of state singlet_A_8 printed to ASCII file 'State_singlet_A_8_Difference.txt'
  Total density matrix of state singlet_A_8 printed to ASCII file 'State_singlet_A_8_Total.txt'
  Difference density matrix of state singlet_A_9 printed to ASCII file 'State_singlet_A_9_Difference.txt'
  Total density matrix of state singlet_A_9 printed to ASCII file 'State_singlet_A_9_Total.txt'
  Difference density matrix of state singlet_A_10 printed to ASCII file 'State_singlet_A_10_Difference.txt'
  Total density matrix of state singlet_A_10 printed to ASCII file 'State_singlet_A_10_Total.txt'
  Properties ...  CPU 1.04 s  wall 1.11 s
  ISR TDMS ...  CPU 30.06 s  wall 9.47 s
  ISR transition properties ...  CPU 0.51 s  wall 0.25 s
  Sum-over-states TPA ...  CPU 0.00 s  wall 0.00 s

--------------------------------------------------------------------------------
                   State-averaged natural transition orbitals
--------------------------------------------------------------------------------
--------------------------------------------------------------------------------
  SA-NTO decomposition ...  CPU 0.01 s  wall 0.04 s

--------------------------------------------------------------------------------
                             Excited State Summary
--------------------------------------------------------------------------------
--------------------------------------------------------------------------------

  Excited state 1 (singlet, A)                                     [converged]
  ----------------------------------------------------------------------------
  Term symbol:  2 (1) A                                     R^2 =  1.80948e-13

  Total energy:                                            -77.9992331049 a.u.
  Excitation energy:                                               8.731825 eV

  Osc. strength:                                                      0.446210
  Trans. dip. moment [a.u.]:           [   1.047651,   -0.994059,   -0.009656]
  <i|r^2|0> [a.u.]:                    [   6.182153,   -0.245330,    0.000155]
  Two-photon absorption cross-section (SoS) [a.u.]:                   0.000000
  Two-photon absorption matrix (SoS) [a.u.]:
                                       |    0.000037   -0.000005    0.000039 |
                                       |   -0.000005    0.000009    0.000059 |
                                       |    0.000039    0.000059    0.000027 |
  Two-photon absorption cross-section [a.u.]:                         0.000001
  Two-photon absorption matrix [a.u.]:
                                       |    0.000026    0.000017   -0.000265 |
                                       |    0.000017   -0.000014   -0.000198 |
                                       |   -0.000265   -0.000198   -0.000040 |

  Dip. moment [a.u.]:                  [  -0.000003,    0.000001,    0.000018]
  Total dipole [Debye]:                                               0.000047
  <r^2> [a.u.]:                        [ 176.628521,   36.001450,   11.918934]
  Total <r^2> [a.u.]:                                               224.548905

  V1^2 = 0.9713, V2^2 = 0.0287

  Important amplitudes:
      occ i     occ j     vir a      vir b          v   
    -----------------------------------------------------
     8 (A) A              9 (A) A                 0.6809
     6 (A) A             14 (A) A                -0.0617
     4 (A) A             10 (A) A                 0.0614
     7 (A) A             16 (A) A                -0.0575
     5 (A) A             13 (A) A                 0.0527
     6 (A) A             23 (A) A                -0.0485
     8 (A) A             20 (A) A                 0.0348
     6 (A) A             19 (A) A                -0.0302
     3 (A) A             12 (A) A                 0.0285
     5 (A) A             22 (A) A                 0.0218
     4 (A) A             24 (A) A                 0.0188
     3 (A) A             26 (A) A                 0.0187
     7 (A) A             11 (A) A                -0.0185
     8 (A) A   8 (A) B   17 (A) A   20 (A) B     -0.0184
     8 (A) A   8 (A) B    9 (A) A   28 (A) B     -0.0168
     6 (A) A             26 (A) A                 0.0163
     7 (A) A             21 (A) A                -0.0152
     3 (A) A             14 (A) A                -0.0143
     6 (A) A             12 (A) A                -0.0136
     3 (A) A   4 (A) B    9 (A) A    9 (A) B     -0.0129
     3 (A) A             19 (A) A                -0.0121
     8 (A) A   8 (A) B   18 (A) A   19 (A) B      0.0111
     7 (A) A             32 (A) A                -0.0097
     7 (A) A             36 (A) A                -0.0086
     3 (A) A             23 (A) A                -0.0082
     8 (A) A   8 (A) B   25 (A) A   29 (A) B     -0.0076
     6 (A) A             35 (A) A                -0.0072
     6 (A) A             40 (A) A                -0.0067
     3 (A) A   6 (A) B    9 (A) A   28 (A) B     -0.0065
     5 (A) A   8 (A) B   11 (A) A    9 (A) B      0.0062
     7 (A) A   8 (A) B   13 (A) A   20 (A) B      0.0060
     5 (A) A   8 (A) B   11 (A) A   20 (A) B     -0.0060
     5 (A) A   7 (A) B    9 (A) A    9 (A) B      0.0060
     6 (A) A   8 (A) A   19 (A) A   28 (A) A     -0.0060
     5 (A) A             27 (A) A                -0.0060
     5 (A) A   8 (A) B   16 (A) A    9 (A) B     -0.0059
     3 (A) A   5 (A) B    9 (A) A   25 (A) B     -0.0058
     7 (A) A   8 (A) B   22 (A) A   20 (A) B      0.0057
     3 (A) A             40 (A) A                -0.0056
     8 (A) A   8 (A) B   19 (A) A   30 (A) B      0.0056
    -----------------------------------------------------

  Density matrix analysis:
  ------------------------
  NOs
    Occupation of frontier NOs:
       0.9491   1.0219
    Number of electrons: 16.000000
    Number of unpaired electrons: n_u =  2.31679, n_u,nl =  2.03329
    NO participation ratio (PR_NO):  2.874076
  
  
  Mulliken Population Analysis
  Atom      Charge (e)              h+              e-           Del q
  --------------------------------------------------------------------
   1 H        0.063442        0.020464       -0.012430        0.008034
   2 C       -0.125966        0.490665       -0.506703       -0.016038
   3 H        0.062531        0.020413       -0.012408        0.008005
   4 C       -0.125977        0.490664       -0.506704       -0.016040
   5 H        0.062529        0.020413       -0.012408        0.008005
   6 H        0.063441        0.020464       -0.012430        0.008034
  --------------------------------------------------------------------
  Sum:        0.000000        1.063082       -1.063082        0.000000
  
  Multipole moment analysis of the density matrix
    Molecular charge:                      -0.000000
    Number of electrons:                   16.000000
      Center of electronic charge [Ang]: [ -1.561338,  -0.065286,   0.002127]
    Total nuclear charge:                  16.000000
      Center of nuclear charge [Ang]:    [ -1.561338,  -0.065286,   0.002127]
    Dipole moment [D]:                     0.000047
      Cartesian components [D]:          [ -0.000009,   0.000003,   0.000046]
    RMS size of the density [Ang]:         1.219820
      Cartesian components [Ang]:        [  0.808416,   0.791092,   0.456725]
  
  Exciton analysis of the difference density matrix
    <r_h> [Ang]:                  [ -1.561336,  -0.065287,   0.002118]
    <r_e> [Ang]:                  [ -1.561336,  -0.065286,   0.002117]
    |<r_e - r_h>| [Ang]:            0.000001
    Hole size [Ang]:                1.287297
      Cartesian components [Ang]: [  0.730146,   0.714830,   0.782967]
    Electron size [Ang]:            1.463846
      Cartesian components [Ang]: [  0.853850,   0.832160,   0.849290]

  Transition density matrix analysis:
  -----------------------------------
  
  CT numbers (Mulliken)
    omega =     0.9532
    <Phe> =    -0.1603
  
  Exciton analysis of the transition density matrix
    Trans. dipole moment [D]:             1.835441
      Cartesian components [D]:         [  1.331431,  -1.263323,  -0.012272]
    <r_h> [Ang]:                        [ -1.561335,  -0.065288,   0.002120]
    <r_e> [Ang]:                        [ -1.561336,  -0.065286,   0.002116]
    |<r_e - r_h>| [Ang]:                  0.000005
    Hole size [Ang]:                      1.214402
      Cartesian components [Ang]:       [  0.649706,   0.637279,   0.804071]
    Electron size [Ang]:                  1.486740
      Cartesian components [Ang]:       [  0.864285,   0.841064,   0.869493]
    RMS electron-hole separation [Ang]:   1.937162
      Cartesian components [Ang]:       [  1.105967,   1.077101,   1.170165]
    Covariance(r_h, r_e) [Ang^2]:        -0.033715
    Correlation coefficient:             -0.018673
    Center-of-mass size [Ang]:            0.951017
      Cartesian components [Ang]:       [  0.527979,   0.516449,   0.599126]

  Decomposition into state-averaged NTOs
    H- 0 -> L+ 0:  0.6697 ( 89.7%)
    H- 2 -> L+ 5: -0.0830 (  1.4%)
                   omega =  95.3%
  ----------------------------------------------------------------------------


  Excited state 2 (singlet, A)                                     [converged]
  ----------------------------------------------------------------------------
  Term symbol:  3 (1) A                                     R^2 =  4.23310e-13

  Total energy:                                            -77.9911351720 a.u.
  Excitation energy:                                               8.952181 eV

  Osc. strength:                                                      0.000000
  Trans. dip. moment [a.u.]:           [   0.000548,   -0.000502,   -0.000016]
  <i|r^2|0> [a.u.]:                    [   0.070633,    0.084958,   -0.152477]
  Two-photon absorption cross-section (SoS) [a.u.]:                   4.614556
  Two-photon absorption matrix (SoS) [a.u.]:
                                       |    0.052384    0.058003   -0.539418 |
                                       |    0.058003    0.063286   -0.521949 |
                                       |   -0.539418   -0.521949   -0.115559 |
  Two-photon absorption cross-section [a.u.]:                         0.178490
  Two-photon absorption matrix [a.u.]:
                                       |   -0.010766   -0.011411    0.119474 |
                                       |   -0.011411   -0.011312    0.086838 |
                                       |    0.119474    0.086838    0.022101 |

  Dip. moment [a.u.]:                  [  -0.000044,    0.000058,    0.000039]
  Total dipole [Debye]:                                               0.000209
  <r^2> [a.u.]:                        [ 174.917896,   34.394513,   13.214831]
  Total <r^2> [a.u.]:                                               222.527240

  V1^2 = 0.9541, V2^2 = 0.0459

  Important amplitudes:
      occ i     occ j     vir a      vir b          v   
    -----------------------------------------------------
     7 (A) A              9 (A) A                 0.6685
     8 (A) A             11 (A) A                -0.1513
     7 (A) A             20 (A) A                 0.0756
     5 (A) A   8 (A) B    9 (A) A    9 (A) B      0.0315
     8 (A) A             16 (A) A                 0.0281
     8 (A) A             21 (A) A                -0.0178
     5 (A) A             28 (A) A                 0.0150
     4 (A) A   7 (A) B    9 (A) A   19 (A) B      0.0136
     5 (A) A   7 (A) B    9 (A) A   16 (A) B      0.0134
     7 (A) A   8 (A) B   20 (A) A   17 (A) B     -0.0106
     7 (A) A   8 (A) A    9 (A) A   28 (A) A      0.0098
     5 (A) A   8 (A) B    9 (A) A   20 (A) B      0.0094
     4 (A) A   6 (A) B    9 (A) A   16 (A) B      0.0091
     5 (A) A   6 (A) A    9 (A) A   23 (A) A      0.0090
     5 (A) A   6 (A) A    9 (A) A   14 (A) A      0.0089
     5 (A) A   6 (A) B    9 (A) A   19 (A) B      0.0086
     8 (A) A   7 (A) B    9 (A) A   28 (A) B     -0.0085
     6 (A) A   7 (A) B    9 (A) A   18 (A) B     -0.0085
     4 (A) A   5 (A) A    9 (A) A   10 (A) A      0.0085
     5 (A) A   6 (A) B    9 (A) A   23 (A) B      0.0080
     3 (A) A   7 (A) B    9 (A) A   18 (A) B      0.0080
     5 (A) A   7 (A) A    9 (A) A   16 (A) A      0.0078
     4 (A) A   8 (A) B    9 (A) A   25 (A) B      0.0076
     4 (A) A   7 (A) B   19 (A) A    9 (A) B      0.0075
     7 (A) A   8 (A) B   17 (A) A   20 (A) B     -0.0074
     5 (A) A   5 (A) B    9 (A) A   13 (A) B     -0.0073
     7 (A) A   8 (A) B   19 (A) A   18 (A) B      0.0071
     4 (A) A   5 (A) B    9 (A) A   18 (A) B     -0.0069
     5 (A) A   8 (A) A    9 (A) A   20 (A) A      0.0068
     7 (A) A   7 (A) B   20 (A) A   22 (A) B      0.0066
     7 (A) A   8 (A) B   17 (A) A    9 (A) B     -0.0065
     5 (A) A   6 (A) B    9 (A) A   14 (A) B      0.0063
     5 (A) A   7 (A) B   11 (A) A   20 (A) B     -0.0062
     4 (A) A   5 (A) B   10 (A) A    9 (A) B     -0.0061
     4 (A) A   7 (A) A    9 (A) A   19 (A) A      0.0061
     5 (A) A             38 (A) A                 0.0060
     4 (A) A   6 (A) B   16 (A) A    9 (A) B      0.0058
     4 (A) A   8 (A) A    9 (A) A   25 (A) A      0.0057
     6 (A) A   7 (A) A   19 (A) A   28 (A) A     -0.0056
     5 (A) A   7 (A) A   11 (A) A   20 (A) A     -0.0054
    -----------------------------------------------------

  Density matrix analysis:
  ------------------------
  NOs
    Occupation of frontier NOs:
       0.9560   1.0553
    Number of electrons: 16.000000
    Number of unpaired electrons: n_u =  2.35841, n_u,nl =  2.06491
    NO participation ratio (PR_NO):  3.045476
  
  
  Mulliken Population Analysis
  Atom      Charge (e)              h+              e-           Del q
  --------------------------------------------------------------------
   1 H        0.157465        0.127400       -0.025343        0.102056
   2 C       -0.310107        0.272592       -0.472771       -0.200179
   3 H        0.152636        0.122371       -0.024260        0.098110
   4 C       -0.310114        0.272610       -0.472787       -0.200177
   5 H        0.152651        0.122378       -0.024251        0.098127
   6 H        0.157470        0.127414       -0.025351        0.102063
  --------------------------------------------------------------------
  Sum:        0.000000        1.044764       -1.044764       -0.000000
  
  Multipole moment analysis of the density matrix
    Molecular charge:                      -0.000000
    Number of electrons:                   16.000000
      Center of electronic charge [Ang]: [ -1.561337,  -0.065288,   0.002126]
    Total nuclear charge:                  16.000000
      Center of nuclear charge [Ang]:    [ -1.561338,  -0.065286,   0.002127]
    Dipole moment [D]:                     0.000209
      Cartesian components [D]:          [ -0.000111,   0.000146,   0.000099]
    RMS size of the density [Ang]:         1.205231
      Cartesian components [Ang]:        [  0.789684,   0.773112,   0.480914]
  
  Exciton analysis of the difference density matrix
    <r_h> [Ang]:                  [ -1.561373,  -0.065264,   0.002130]
    <r_e> [Ang]:                  [ -1.561353,  -0.065292,   0.002118]
    |<r_e - r_h>| [Ang]:            0.000036
    Hole size [Ang]:                1.496164
      Cartesian components [Ang]: [  1.022044,   0.992966,   0.456019]
    Electron size [Ang]:            1.480178
      Cartesian components [Ang]: [  0.886296,   0.860209,   0.815749]

  Transition density matrix analysis:
  -----------------------------------
  
  CT numbers (Mulliken)
    omega =     0.9214
    <Phe> =    -0.0114
  
  Exciton analysis of the transition density matrix
    Trans. dipole moment [D]:             0.000945
      Cartesian components [D]:         [  0.000697,  -0.000639,  -0.000020]
    <r_h> [Ang]:                        [ -1.561379,  -0.065260,   0.002132]
    <r_e> [Ang]:                        [ -1.561349,  -0.065296,   0.002115]
    |<r_e - r_h>| [Ang]:                  0.000049
    Hole size [Ang]:                      1.527095
      Cartesian components [Ang]:       [  1.047690,   1.016862,   0.447611]
    Electron size [Ang]:                  1.475589
      Cartesian components [Ang]:       [  0.875102,   0.848522,   0.831607]
    RMS electron-hole separation [Ang]:   2.103559
      Cartesian components [Ang]:       [  1.349027,   1.309435,   0.943645]
    Covariance(r_h, r_e) [Ang^2]:         0.042211
    Correlation coefficient:              0.018732
    Center-of-mass size [Ang]:            1.071658
      Cartesian components [Ang]:       [  0.690479,   0.669585,   0.472595]

  Decomposition into state-averaged NTOs
    H- 1 -> L+ 0:  0.6608 ( 87.3%)
    H- 0 -> L+ 2:  0.1512 (  4.6%)
                   omega =  92.1%
  ----------------------------------------------------------------------------


  Excited state 3 (singlet, A)                                     [converged]
  ----------------------------------------------------------------------------
  Term symbol:  4 (1) A                                     R^2 =  1.86152e-13

  Total energy:                                            -77.9841728711 a.u.
  Excitation energy:                                               9.141635 eV

  Osc. strength:                                                      0.023579
  Trans. dip. moment [a.u.]:           [   0.015402,    0.019672,   -0.323508]
  <i|r^2|0> [a.u.]:                    [   0.090662,    0.005048,    0.002611]
  Two-photon absorption cross-section (SoS) [a.u.]:                   0.000016
  Two-photon absorption matrix (SoS) [a.u.]:
                                       |   -0.001372   -0.000077   -0.000167 |
                                       |   -0.000077    0.001410    0.000015 |
                                       |   -0.000167    0.000015    0.000127 |
  Two-photon absorption cross-section [a.u.]:                         0.000008
  Two-photon absorption matrix [a.u.]:
                                       |   -0.000929   -0.000073   -0.000150 |
                                       |   -0.000073    0.001082    0.000024 |
                                       |   -0.000150    0.000024    0.000074 |

  Dip. moment [a.u.]:                  [   0.000065,    0.000082,   -0.000014]
  Total dipole [Debye]:                                               0.000269
  <r^2> [a.u.]:                        [ 181.431923,   40.965613,   11.057234]
  Total <r^2> [a.u.]:                                               233.454770

  V1^2 = 0.9580, V2^2 = 0.0420

  Important amplitudes:
      occ i     occ j     vir a      vir b          v   
    -----------------------------------------------------
     8 (A) A             10 (A) A                 0.6887
     8 (A) A             24 (A) A                 0.0508
     8 (A) A             18 (A) A                -0.0332
     4 (A) A              9 (A) A                 0.0247
     8 (A) A   8 (A) B    9 (A) A   12 (A) B      0.0223
     8 (A) A   8 (A) B   10 (A) A   17 (A) B      0.0172
     5 (A) A   8 (A) B   11 (A) A   10 (A) B      0.0169
     8 (A) A             15 (A) A                 0.0149
     7 (A) A   8 (A) B   13 (A) A   10 (A) B     -0.0143
     4 (A) A   8 (A) B   12 (A) A   10 (A) B      0.0112
     6 (A) A   8 (A) A   10 (A) A   15 (A) A     -0.0112
     7 (A) A   8 (A) B   22 (A) A   10 (A) B     -0.0109
     6 (A) A   8 (A) B   15 (A) A   10 (A) B      0.0109
     4 (A) A   8 (A) A   10 (A) A   12 (A) A     -0.0108
     7 (A) A   8 (A) A   10 (A) A   22 (A) A      0.0099
     7 (A) A   8 (A) A   10 (A) A   13 (A) A      0.0098
     5 (A) A   8 (A) A   10 (A) A   11 (A) A     -0.0097
     5 (A) A   8 (A) B   21 (A) A   10 (A) B      0.0094
     6 (A) A   8 (A) B   10 (A) A   10 (A) B     -0.0089
     6 (A) A   8 (A) A   10 (A) A   18 (A) A     -0.0086
     7 (A) A   8 (A) A   12 (A) A   16 (A) A     -0.0083
     3 (A) A   4 (A) B   10 (A) A    9 (A) B     -0.0080
     5 (A) A   8 (A) A   10 (A) A   21 (A) A     -0.0079
     4 (A) A   8 (A) B   19 (A) A   10 (A) B     -0.0075
     8 (A) A   8 (A) B    9 (A) A   23 (A) B      0.0075
     8 (A) A   8 (A) B   10 (A) A   28 (A) B     -0.0074
     5 (A) A   8 (A) B   10 (A) A   11 (A) B      0.0072
     7 (A) A   8 (A) B   16 (A) A   12 (A) B      0.0072
     3 (A) A   8 (A) A   10 (A) A   24 (A) A     -0.0072
     3 (A) A   8 (A) B   10 (A) A   10 (A) B      0.0071
     8 (A) A   8 (A) B    9 (A) A   19 (A) B     -0.0070
     3 (A) A   8 (A) B   10 (A) A   18 (A) B     -0.0068
     6 (A) A   8 (A) B   18 (A) A   10 (A) B      0.0065
     3 (A) A   6 (A) B   10 (A) A   28 (A) B     -0.0062
     7 (A) A   8 (A) B   12 (A) A   11 (A) B     -0.0059
     6 (A) A             28 (A) A                 0.0058
     5 (A) A   8 (A) A   10 (A) A   16 (A) A      0.0057
     3 (A) A   5 (A) B   10 (A) A   25 (A) B     -0.0056
     4 (A) A   8 (A) A   10 (A) A   23 (A) A     -0.0055
     6 (A) A   8 (A) A   11 (A) A   16 (A) A     -0.0055
    -----------------------------------------------------

  Density matrix analysis:
  ------------------------
  NOs
    Occupation of frontier NOs:
       0.9812   0.9847
    Number of electrons: 16.000000
    Number of unpaired electrons: n_u =  2.28863, n_u,nl =  2.02504
    NO participation ratio (PR_NO):  2.701206
  
  
  Mulliken Population Analysis
  Atom      Charge (e)              h+              e-           Del q
  --------------------------------------------------------------------
   1 H       -0.154933        0.054481       -0.264822       -0.210341
   2 C        0.310175        0.538089       -0.117986        0.420103
   3 H       -0.155240        0.054223       -0.263989       -0.209766
   4 C        0.310166        0.538085       -0.117982        0.420104
   5 H       -0.155214        0.054225       -0.263963       -0.209738
   6 H       -0.154953        0.054481       -0.264841       -0.210360
  --------------------------------------------------------------------
  Sum:        0.000000        1.293583       -1.293583       -0.000000
  
  Multipole moment analysis of the density matrix
    Molecular charge:                      0.000000
    Number of electrons:                   16.000000
      Center of electronic charge [Ang]: [ -1.561341,  -0.065289,   0.002128]
    Total nuclear charge:                  16.000000
      Center of nuclear charge [Ang]:    [ -1.561338,  -0.065286,   0.002127]
    Dipole moment [D]:                     0.000269
      Cartesian components [D]:          [  0.000166,   0.000209,  -0.000035]
    RMS size of the density [Ang]:         1.282117
      Cartesian components [Ang]:        [  0.858835,   0.844221,   0.439905]
  
  Exciton analysis of the difference density matrix
    <r_h> [Ang]:                  [ -1.561337,  -0.065288,   0.002122]
    <r_e> [Ang]:                  [ -1.561366,  -0.065321,   0.002134]
    |<r_e - r_h>| [Ang]:            0.000045
    Hole size [Ang]:                1.412897
      Cartesian components [Ang]: [  0.836888,   0.822337,   0.787183]
    Electron size [Ang]:            2.079242
      Cartesian components [Ang]: [  1.378819,   1.378411,   0.722556]

  Transition density matrix analysis:
  -----------------------------------
  
  CT numbers (Mulliken)
    omega =     0.9250
    <Phe> =    -0.0109
  
  Exciton analysis of the transition density matrix
    Trans. dipole moment [D]:             0.412361
      Cartesian components [D]:         [  0.019574,   0.025001,  -0.411137]
    <r_h> [Ang]:                        [ -1.561333,  -0.065287,   0.002118]
    <r_e> [Ang]:                        [ -1.561375,  -0.065333,   0.002137]
    |<r_e - r_h>| [Ang]:                  0.000065
    Hole size [Ang]:                      1.212749
      Cartesian components [Ang]:       [  0.635917,   0.624118,   0.822706]
    Electron size [Ang]:                  2.301772
      Cartesian components [Ang]:       [  1.525800,   1.527023,   0.798931]
    RMS electron-hole separation [Ang]:   2.591615
      Cartesian components [Ang]:       [  1.645384,   1.642485,   1.145174]
    Covariance(r_h, r_e) [Ang^2]:         0.026224
    Correlation coefficient:              0.009394
    Center-of-mass size [Ang]:            1.305887
      Cartesian components [Ang]:       [  0.830305,   0.828386,   0.574205]

  Decomposition into state-averaged NTOs
    H- 0 -> L+ 1: -0.6794 ( 92.3%)
                   omega =  92.5%
  ----------------------------------------------------------------------------


  Excited state 4 (singlet, A)                                     [converged]
  ----------------------------------------------------------------------------
  Term symbol:  5 (1) A                                     R^2 =  2.13853e-13

  Total energy:                                            -77.9622638023 a.u.
  Excitation energy:                                               9.737811 eV

  Osc. strength:                                                      0.000000
  Trans. dip. moment [a.u.]:           [   0.000168,   -0.000153,   -0.000013]
  <i|r^2|0> [a.u.]:                    [  -0.013678,   -0.017109,    0.031739]
  Two-photon absorption cross-section (SoS) [a.u.]:                 134.385567
  Two-photon absorption matrix (SoS) [a.u.]:
                                       |   -0.277108   -0.312352    2.860654 |
                                       |   -0.312352   -0.347937    2.867590 |
                                       |    2.860654    2.867590    0.624967 |
  Two-photon absorption cross-section [a.u.]:                        79.994604
  Two-photon absorption matrix [a.u.]:
                                       |   -0.216129   -0.241264    2.224872 |
                                       |   -0.241264   -0.265685    2.194624 |
                                       |    2.224872    2.194624    0.481737 |

  Dip. moment [a.u.]:                  [  -0.000097,   -0.000084,   -0.000034]
  Total dipole [Debye]:                                               0.000337
  <r^2> [a.u.]:                        [ 181.875335,   40.631177,   10.786541]
  Total <r^2> [a.u.]:                                               233.293053

  V1^2 = 0.9633, V2^2 = 0.0367

  Important amplitudes:
      occ i     occ j     vir a      vir b          v   
    -----------------------------------------------------
     8 (A) A             11 (A) A                 0.6685
     7 (A) A              9 (A) A                 0.1535
     8 (A) A             21 (A) A                 0.0778
     8 (A) A             16 (A) A                -0.0674
     8 (A) A             12 (A) A                 0.0192
     8 (A) A   8 (A) B    9 (A) A   13 (A) B      0.0167
     5 (A) A   8 (A) B   11 (A) A   11 (A) B      0.0157
     7 (A) A             20 (A) A                 0.0140
     8 (A) A   8 (A) B   11 (A) A   17 (A) B      0.0137
     7 (A) A   8 (A) B   13 (A) A   11 (A) B     -0.0127
     4 (A) A   8 (A) B   12 (A) A   11 (A) B      0.0110
     8 (A) A   8 (A) B    9 (A) A   22 (A) B      0.0110
     5 (A) A   8 (A) A   11 (A) A   21 (A) A     -0.0109
     7 (A) A   8 (A) A   11 (A) A   22 (A) A      0.0095
     6 (A) A   8 (A) B   10 (A) A   11 (A) B     -0.0091
     6 (A) A   8 (A) B   15 (A) A   11 (A) B      0.0089
     7 (A) A   8 (A) B   22 (A) A   11 (A) B     -0.0089
     3 (A) A   4 (A) B   11 (A) A    9 (A) B     -0.0083
     3 (A) A   8 (A) B   11 (A) A   18 (A) B     -0.0080
     6 (A) A   8 (A) A   11 (A) A   15 (A) A     -0.0079
     7 (A) A   8 (A) A   13 (A) A   16 (A) A     -0.0079
     7 (A) A   8 (A) A   11 (A) A   13 (A) A      0.0075
     4 (A) A   8 (A) B   19 (A) A   11 (A) B     -0.0070
     5 (A) A   8 (A) B   21 (A) A   11 (A) B      0.0069
     5 (A) A   8 (A) B    9 (A) A    9 (A) B      0.0069
     4 (A) A   8 (A) A   11 (A) A   12 (A) A     -0.0062
     3 (A) A   6 (A) B   11 (A) A   28 (A) B     -0.0060
     6 (A) A   8 (A) A   11 (A) A   18 (A) A     -0.0059
     6 (A) A   8 (A) B   18 (A) A   11 (A) B      0.0058
     7 (A) A   8 (A) B   16 (A) A   13 (A) B      0.0057
     3 (A) A   8 (A) B   11 (A) A   30 (A) B     -0.0056
     5 (A) A   8 (A) B   10 (A) A   10 (A) B      0.0055
     8 (A) A   8 (A) B   20 (A) A   22 (A) B      0.0055
     7 (A) A   8 (A) B   12 (A) A   10 (A) B     -0.0055
     6 (A) A   8 (A) B   11 (A) A   10 (A) B     -0.0054
     3 (A) A   5 (A) B   11 (A) A   25 (A) B     -0.0054
     3 (A) A   8 (A) A   11 (A) A   18 (A) A     -0.0054
     3 (A) A   8 (A) A   11 (A) A   24 (A) A     -0.0053
     5 (A) A   8 (A) A   11 (A) A   16 (A) A      0.0049
     6 (A) A   8 (A) A   10 (A) A   16 (A) A     -0.0047
    -----------------------------------------------------

  Density matrix analysis:
  ------------------------
  NOs
    Occupation of frontier NOs:
       0.9386   1.0295
    Number of electrons: 16.000000
    Number of unpaired electrons: n_u =  2.32236, n_u,nl =  2.05110
    NO participation ratio (PR_NO):  2.933024
  
  
  Mulliken Population Analysis
  Atom      Charge (e)              h+              e-           Del q
  --------------------------------------------------------------------
   1 H       -0.137697        0.045887       -0.238992       -0.193105
   2 C        0.251001        0.495240       -0.134312        0.360929
   3 H       -0.113302        0.046154       -0.213981       -0.167828
   4 C        0.250986        0.495240       -0.134317        0.360923
   5 H       -0.113330        0.046155       -0.214009       -0.167854
   6 H       -0.137658        0.045887       -0.238952       -0.193065
  --------------------------------------------------------------------
  Sum:        0.000000        1.174563       -1.174563        0.000000
  
  Multipole moment analysis of the density matrix
    Molecular charge:                      0.000000
    Number of electrons:                   16.000000
      Center of electronic charge [Ang]: [ -1.561335,  -0.065284,   0.002128]
    Total nuclear charge:                  16.000000
      Center of nuclear charge [Ang]:    [ -1.561338,  -0.065286,   0.002127]
    Dipole moment [D]:                     0.000337
      Cartesian components [D]:          [ -0.000246,  -0.000213,  -0.000087]
    RMS size of the density [Ang]:         1.281019
      Cartesian components [Ang]:        [  0.863351,   0.840747,   0.434487]
  
  Exciton analysis of the difference density matrix
    <r_h> [Ang]:                  [ -1.561335,  -0.065283,   0.002122]
    <r_e> [Ang]:                  [ -1.561293,  -0.065245,   0.002144]
    |<r_e - r_h>| [Ang]:            0.000061
    Hole size [Ang]:                1.394962
      Cartesian components [Ang]: [  0.820675,   0.805275,   0.789901]
    Electron size [Ang]:            2.114324
      Cartesian components [Ang]: [  1.449788,   1.384388,   0.672272]

  Transition density matrix analysis:
  -----------------------------------
  
  CT numbers (Mulliken)
    omega =     0.9293
    <Phe> =    -0.0146
  
  Exciton analysis of the transition density matrix
    Trans. dipole moment [D]:             0.000289
      Cartesian components [D]:         [  0.000214,  -0.000194,  -0.000017]
    <r_h> [Ang]:                        [ -1.561337,  -0.065286,   0.002118]
    <r_e> [Ang]:                        [ -1.561286,  -0.065236,   0.002148]
    |<r_e - r_h>| [Ang]:                  0.000078
    Hole size [Ang]:                      1.229201
      Cartesian components [Ang]:       [  0.661375,   0.650240,   0.806663]
    Electron size [Ang]:                  2.247885
      Cartesian components [Ang]:       [  1.542813,   1.471319,   0.712696]
    RMS electron-hole separation [Ang]:   2.550875
      Cartesian components [Ang]:       [  1.669562,   1.600603,   1.075917]
    Covariance(r_h, r_e) [Ang^2]:         0.028479
    Correlation coefficient:              0.010307
    Center-of-mass size [Ang]:            1.286553
      Cartesian components [Ang]:       [  0.843792,   0.808278,   0.538443]

  Decomposition into state-averaged NTOs
    H- 0 -> L+ 2: -0.6636 ( 88.1%)
    H- 1 -> L+ 0:  0.1514 (  4.6%)
                   omega =  92.9%
  ----------------------------------------------------------------------------


  Excited state 5 (singlet, A)                                     [converged]
  ----------------------------------------------------------------------------
  Term symbol:  6 (1) A                                     R^2 =  2.35185e-13

  Total energy:                                            -77.9467914443 a.u.
  Excitation energy:                                              10.158835 eV

  Osc. strength:                                                      0.000000
  Trans. dip. moment [a.u.]:           [   0.000033,    0.000022,   -0.000001]
  <i|r^2|0> [a.u.]:                    [  -0.079823,    0.098660,   -0.018706]
  Two-photon absorption cross-section (SoS) [a.u.]:                 223.693888
  Two-photon absorption matrix (SoS) [a.u.]:
                                       |   -0.357344   -0.043768    3.713731 |
                                       |   -0.043768    0.451598   -3.741339 |
                                       |    3.713731   -3.741339   -0.095765 |
  Two-photon absorption cross-section [a.u.]:                       115.543841
  Two-photon absorption matrix [a.u.]:
                                       |   -0.257524   -0.032024    2.670872 |
                                       |   -0.032024    0.323707   -2.687101 |
                                       |    2.670872   -2.687101   -0.068304 |

  Dip. moment [a.u.]:                  [   0.000042,   -0.000053,    0.000001]
  Total dipole [Debye]:                                               0.000171
  <r^2> [a.u.]:                        [ 180.102083,   40.020665,   11.600541]
  Total <r^2> [a.u.]:                                               231.723289

  V1^2 = 0.9554, V2^2 = 0.0446

  Important amplitudes:
      occ i     occ j     vir a      vir b          v   
    -----------------------------------------------------
[...]
    16   -1.424628474319e-03
    17   -1.742978149265e-03
    18    2.246769014140e-04
    19   -2.900781858580e-03
    20    1.170020445039e-02
    21    9.300431323334e-01
    22   -5.246379937453e-04
    23    1.380203696900e-02
    24    8.102259550903e-04
    25    7.035087605953e-02
    26   -5.224057081680e-02
    27   -1.383698253254e+00
    28    1.004815762073e-01
    29   -9.415806202094e-02
    30   -8.936465036060e-04
    31    3.853465878202e-01
    32   -3.652680947121e-01
    33   -3.680263728058e-03
    34    1.506717477190e-02
    35   -1.422307548469e-03
    36   -1.741797034851e-03
    37    2.251770936295e-04
    38   -2.900081528096e-03
    39    1.169481334435e-02
    40    9.300295132407e-01
    41    5.244411975406e-04
    42   -1.380177143024e-02
    43   -8.097635510750e-04
    44    1.131899881351e-02
    45    9.255810252499e-01
    46    1.366800344741e-02
    47    2.069273623445e-04
    48    6.669817984488e-04
Sym=X
Ene= 0.231028
Spin=Alpha
Occup=0
     1    3.149559928361e-02
     2    1.223426197505e+00
     3   -1.370795031473e-02
     4   -3.931148311676e-03
     5   -8.960918025202e-04
     6    4.943210346002e-03
     7   -4.733128023493e-03
     8   -8.232901173677e-02
     9   -1.580540904807e-01
    10   -1.588453600564e-01
    11   -1.720053445534e-02
    12   -5.418850980464e-01
    13   -5.449108451871e-01
    14   -5.899844589466e-02
    15    1.092760417310e-03
    16   -5.367156502935e-05
    17   -2.241757520272e-04
    18    1.429098757931e-03
    19   -5.313697939400e-04
    20   -2.822702519007e-02
    21   -1.109236382110e+00
    22   -2.465954623527e-03
    23   -1.227999821583e-02
    24   -8.615167457914e-04
    25   -4.940836020599e-03
    26    4.731256300145e-03
    27    8.226774465931e-02
    28   -1.580510692486e-01
    29   -1.588519701562e-01
    30   -1.717187918706e-02
    31   -5.418400056525e-01
    32   -5.449071608912e-01
    33   -5.888185661586e-02
    34   -1.092306776631e-03
    35    5.187559151962e-05
    36    2.249721971858e-04
    37   -1.427722801087e-03
    38    5.312390734748e-04
    39    2.822677843697e-02
    40    1.109234339034e+00
    41   -2.465839633678e-03
    42   -1.228054605701e-02
    43   -8.600039865149e-04
    44   -3.149586260882e-02
    45   -1.223346435743e+00
    46   -1.370721087818e-02
    47   -3.930876022556e-03
    48   -8.943683811954e-04
Sym=X
Ene= 0.236456
Spin=Alpha
Occup=0
     1   -1.804444914870e-02
     2   -1.000957984913e+00
     3    1.498829155096e-02
     4    9.047563901507e-03
     5    1.266167744900e-03
     6   -8.698206130845e-02
     7    8.219328095112e-02
     8    1.542836687123e+00
     9    5.039006173728e-02
    10   -6.462924192869e-02
    11   -1.489531793137e-03
    12    2.112897881643e-01
    13   -2.615701806435e-01
    14   -5.663738921137e-03
    15   -2.125403641519e-02
    16    2.492489470604e-03
    17    2.885896891392e-03
    18   -8.165444715217e-04
    19    1.238709463346e-02
    20   -2.043285718986e-02
    21   -1.140363166736e+00
    22   -8.502323758222e-03
    23   -1.719044005329e-02
    24   -1.447592873172e-03
    25    8.698086603427e-02
    26   -8.218989525058e-02
    27   -1.542831219280e+00
    28    5.039196894324e-02
    29   -6.463100632989e-02
    30   -1.502477010527e-03
    31    2.112912840494e-01
    32   -2.615913626989e-01
    33   -5.716729366189e-03
    34    2.125412633663e-02
    35   -2.490265430270e-03
    36   -2.886161464610e-03
    37    8.176632639245e-04
    38   -1.238666916041e-02
    39    2.043261356122e-02
    40    1.140380727287e+00
    41   -8.502754238336e-03
    42   -1.719087553491e-02
    43   -1.448031967182e-03
    44    1.804301070036e-02
    45    1.000930759031e+00
    46    1.498749482637e-02
    47    9.048580260422e-03
    48    1.264898549845e-03
Sym=X
Ene= 0.302960
Spin=Alpha
Occup=0
     1    2.044247033447e-02
     2   -1.652300186180e+00
     3    2.347035163942e-02
     4   -4.745853569548e-04
     5    1.099821463736e-03
     6    6.599724396483e-05
     7   -5.600631610980e-05
     8   -1.043354673392e-02
     9    1.356688692212e-01
    10    1.426072239384e-01
    11    1.513799043452e-02
    12    1.124239433607e+00
    13    1.183928081334e+00
    14    1.255395343281e-01
    15    2.004333260926e-04
    16    1.709215811217e-03
    17   -2.011556162806e-03
    18    3.409010603084e-02
    19    1.501236941143e-03
    20   -2.169580821504e-02
    21    1.663348303795e+00
    22   -1.534831556779e-03
    23    2.348464046815e-02
    24    1.344766300256e-03
    25    6.440833365002e-05
    26   -5.652795202774e-05
    27   -1.037897828911e-02
    28   -1.356739107164e-01
    29   -1.426116787413e-01
    30   -1.512371440374e-02
    31   -1.124210432271e+00
    32   -1.183947130136e+00
    33   -1.254906292632e-01
    34    1.991228322207e-04
    35    1.706347532135e-03
    36   -2.012903243845e-03
    37    3.408862661544e-02
    38    1.501937015917e-03
    39   -2.169227023869e-02
    40    1.663348986202e+00
    41    1.535772967660e-03
    42   -2.348414154844e-02
    43   -1.344289376007e-03
    44    2.043706465784e-02
    45   -1.652321731595e+00
    46   -2.347092201367e-02
    47    4.749799155511e-04
    48   -1.098082006268e-03
Sym=X
Ene= 0.462775
Spin=Alpha
Occup=0
     1   -1.162375286745e-01
     2   -6.910716939737e-01
     3   -1.503866349473e-02
     4   -1.015265747692e-02
     5   -1.336642891599e-03
     6    6.251525475420e-02
     7    1.658960846453e-02
     8   -3.641103678271e+00
     9    1.043204924863e-01
    10   -9.911014036155e-02
    11   -9.955251632332e-04
    12    2.428302799323e+00
    13   -2.316236155481e+00
    14   -2.314165972763e-02
    15    5.297060152625e-02
    16   -3.278554250203e-03
    17   -4.524831002939e-03
    18   -1.332149705038e-03
    19    2.010612230603e-02
    20   -1.126054591469e-01
    21   -7.064805514062e-01
    22    9.696456153413e-03
    23    1.540208588728e-02
    24    1.396684768528e-03
    25   -6.251634706264e-02
    26   -1.658241740575e-02
    27    3.641109235837e+00
    28    1.043344304209e-01
    29   -9.911884112712e-02
    30   -1.003393104204e-03
    31    2.428278988301e+00
    32   -2.316205539529e+00
    33   -2.317592502266e-02
    34   -5.296578008030e-02
    35    3.274006241130e-03
    36    4.518648639309e-03
    37    1.331553773704e-03
    38   -2.011227740083e-02
    39    1.125689430864e-01
    40    7.065220353325e-01
    41    9.695661600783e-03
    42    1.540131287469e-02
    43    1.394642309292e-03
    44    1.162086089943e-01
    45    6.910871315857e-01
    46   -1.503739648960e-02
    47   -1.015038404901e-02
    48   -1.335167952442e-03
Sym=X
Ene= 0.579809
Spin=Alpha
Occup=0
     1    2.385443712993e-01
     2    4.232356451604e-02
     3   -2.214904742334e-02
     4    2.722161455177e-02
     5    5.809721669664e-04
     6   -6.252061317075e-03
     7   -1.690110820568e-01
     8   -4.173905995385e-01
     9    3.057692669468e-01
    10   -2.899968226136e-01
    11   -2.816750517159e-03
    12   -7.455525802245e-01
    13    7.133784517764e-01
    14    7.298255883337e-03
    15   -1.983193487832e-03
    16    3.690276232949e-03
    17    3.238530533633e-03
    18   -2.228201310172e-03
    19    5.983277563055e-02
    20    2.370037607542e-01
    21    5.335782102727e-02
    22   -2.783637224666e-02
    23    2.059208092309e-02
    24   -9.283188739585e-05
    25   -6.259943650671e-03
    26   -1.690153860894e-01
    27   -4.170290630882e-01
    28   -3.057600349049e-01
    29    2.899792945859e-01
    30    2.814953110654e-03
    31    7.458175362036e-01
    32   -7.136041542921e-01
    33   -7.306752795559e-03
    34   -1.982790788246e-03
    35    3.690258859180e-03
    36    3.237988549883e-03
    37   -2.222545854599e-03
    38    5.983303543586e-02
    39    2.369666901021e-01
    40    5.348937877850e-02
    41    2.784230573672e-02
    42   -2.059665536275e-02
    43    9.189501978940e-05
    44    2.385609631612e-01
    45    4.240813779093e-02
    46    2.214898600006e-02
    47   -2.722287200099e-02
    48   -5.816472138043e-04
Sym=X
Ene= 0.608871
Spin=Alpha
Occup=0
     1   -5.199828135419e-01
     2    2.542296083454e-01
     3   -5.949407405128e-02
     4    3.722182995678e-02
     5   -6.077299219309e-04
     6    3.634049775407e-05
     7    1.750776742735e-03
     8    6.914579220968e-03
     9   -3.497617221382e-02
    10   -3.813781312719e-02
    11   -3.979298749558e-03
    12    2.475534757208e-01
    13    2.877721738472e-01
    14    2.930295834190e-02
    15    2.439156392905e-04
    16   -7.626868918948e-03
    17    8.580018125314e-03
    18   -1.485677170354e-01
    19   -7.948681505176e-03
    20    5.187289780607e-01
    21   -2.360337375908e-01
    22    3.990083005367e-02
    23   -5.755706916433e-02
    24   -1.559941501403e-03
    25   -3.697566567499e-05
    26   -1.752098893880e-03
    27   -6.861701637545e-03
    28   -3.496494047196e-02
    29   -3.815113575401e-02
    30   -3.987811174152e-03
    31    2.475216895600e-01
    32    2.878347260384e-01
    33    2.924540343130e-02
    34   -2.436652221185e-04
    35    7.620003155622e-03
    36   -8.585352436442e-03
    37    1.485760344747e-01
    38    7.948265643625e-03
    39   -5.187703461011e-01
    40    2.360615907971e-01
    41    3.989594026290e-02
    42   -5.755711044924e-02
    43   -1.563865836815e-03
    44    5.199848944450e-01
    45   -2.542769321498e-01
    46   -5.949601033104e-02
    47    3.722214478144e-02
    48   -6.076454222241e-04
Sym=X
Ene= 0.688650
Spin=Alpha
Occup=0
     1    4.530271569374e-05
     2    3.157045066350e-05
     3    8.804647631544e-04
     4    1.113654303424e-03
     5   -1.831156086024e-02
     6    2.451129880728e-06
     7   -2.988574612984e-06
     8    5.648494688655e-05
     9    3.221899906388e-02
    10    4.052851961133e-02
    11   -6.706308058186e-01
    12   -2.954876847234e-02
    13   -3.692427009834e-02
    14    6.126557771637e-01
    15   -1.368772690105e-03
    16    8.241570865328e-02
    17   -7.855853306114e-02
    18   -8.701115352188e-03
    19   -1.186191481445e-03
    20    3.993596992371e-05
    21    5.927370741280e-05
    22    9.229413999667e-04
    23    1.166316383147e-03
    24   -1.928239963630e-02
    25   -5.857176390043e-07
    26    3.260140467314e-05
    27   -7.840812743316e-05
    28    3.220113151640e-02
    29    4.049417663108e-02
    30   -6.706327692391e-01
    31   -2.952039195289e-02
    32   -3.688457633743e-02
    33    6.126571322629e-01
    34    1.357655302894e-03
    35   -8.241446547694e-02
    36    7.855983838334e-02
    37    8.710096094824e-03
    38    1.190802058663e-03
    39   -1.966560445924e-05
    40   -5.123267587272e-05
    41    9.208045289870e-04
    42    1.171195373259e-03
    43   -1.928261717734e-02
    44   -1.355554821720e-05
    45   -7.626609664177e-05
    46    8.703260869204e-04
    47    1.106955315004e-03
    48   -1.831169695058e-02
Sym=X
Ene= 0.704761
Spin=Alpha
Occup=0
     1   -4.906550650193e-01
     2    1.723024496082e-01
     3   -7.825971218768e-02
     4   -4.429808992617e-02
     5   -6.441884375388e-03
     6   -4.595650448560e-02
     7   -3.012905765808e-01
     8    4.637091212118e-01
     9    1.975079323872e-01
    10   -1.843845782729e-01
    11   -1.670716597572e-03
    12   -6.287960068261e-02
    13    4.948739842563e-02
    14   -8.315731228471e-05
    15    1.911395972785e-01
    16   -2.049237476670e-02
    17   -2.403447001251e-02
    18    3.400498861818e-03
    19   -7.663933911726e-02
    20   -4.852267712643e-01
    21    1.553857888604e-01
    22    4.040970255809e-02
    23    8.009848471855e-02
    24    6.776106856680e-03
    25   -4.595083964430e-02
    26   -3.012912698441e-01
    27    4.634176790002e-01
    28   -1.975106496549e-01
    29    1.843824189718e-01
    30    1.630226395765e-03
    31    6.269023433593e-02
    32   -4.930697219144e-02
    33    1.298296684028e-04
    34    1.911423283210e-01
    35   -2.048263972356e-02
    36   -2.402294347132e-02
    37    3.397649547185e-03
    38   -7.662949411909e-02
    39   -4.852057024479e-01
    40    1.553066647436e-01
    41   -4.040813219342e-02
    42   -8.009634832461e-02
    43   -6.773547360766e-03
    44   -4.906543626689e-01
    45    1.722498130672e-01
    46    7.825969205368e-02
    47    4.429762611207e-02
    48    6.436618079383e-03
Sym=X
Ene= 0.775729
Spin=Alpha
Occup=0
     1    5.395136435918e-01
     2   -4.942050381476e-01
     3    1.086649380682e-01
     4    2.710240705431e-02
     5    6.860235450532e-03
     6    8.893005604314e-02
     7   -2.266708506106e-01
     8   -5.668506616130e-01
     9    9.833978815025e-02
    10   -1.037039978114e-01
    11   -1.504513877107e-03
    12    3.054702434972e-01
    13   -2.676529536660e-01
    14   -1.525092324256e-03
    15   -2.032048665890e-01
    16    1.754616148416e-02
    17    2.169424643792e-02
    18    1.328840113556e-03
    19    7.743049785109e-03
    20    5.378986940108e-01
    21   -4.671227097069e-01
    22   -2.032089363193e-02
    23   -1.079052195122e-01
    24   -7.495934916070e-03
    25   -8.893124010570e-02
    26    2.266725023463e-01
    27    5.669066412031e-01
    28    9.834894230231e-02
    29   -1.037061614715e-01
    30   -1.538006773821e-03
    31    3.054261208264e-01
    32   -2.676194817432e-01
    33   -1.450475423120e-03
    34    2.032117263238e-01
    35   -1.752251360225e-02
    36   -2.168218361410e-02
    37   -1.325672950693e-03
    38   -7.742051105887e-03
    39   -5.379248737517e-01
    40    4.671117861203e-01
    41   -2.032238613803e-02
    42   -1.079066745397e-01
    43   -7.490968514672e-03
    44   -5.395403041760e-01
    45    4.941946707724e-01
    46    1.086624504895e-01
    47    2.710691049209e-02
    48    6.854191486255e-03
Sym=X
Ene= 0.807405
Spin=Alpha
Occup=0
     1    1.108692912961e-05
     2    2.927880422894e-05
     3    1.484057381449e-03
     4    1.872395360277e-03
     5   -3.102205735115e-02
     6    3.612520525687e-06
     7   -3.362014474501e-05
     8    1.718343690264e-05
     9    3.674940192715e-02
    10    4.617271775965e-02
    11   -7.642391154938e-01
    12   -5.406344509301e-02
    13   -6.794150458008e-02
    14    1.124364345197e+00
    15    1.071946262509e-03
    16   -6.524034008045e-02
    17    6.217392949305e-02
    18    6.880755562092e-03
    19    9.427269313435e-04
    20    1.320050672312e-05
    21   -4.320168477190e-05
    22    1.525475977508e-03
    23    1.921373935153e-03
    24   -3.183433833534e-02
    25   -5.506635725270e-07
    26   -2.493038987621e-05
    27    1.237352402367e-05
    28   -3.668440816633e-02
    29   -4.613984043669e-02
    30    7.642458640395e-01
    31    5.398729891984e-02
    32    6.785663675251e-02
    33   -1.124373322113e+00
    34    1.086024141775e-03
    35   -6.524005232895e-02
    36    6.217146491167e-02
    37    6.899653138316e-03
    38    9.482095005883e-04
    39   -9.959738126048e-06
    40    5.928899786362e-05
    41   -1.527455004949e-03
    42   -1.937783171917e-03
    43    3.183134994224e-02
    44   -8.529211214404e-06
    45   -1.281213009141e-05
    46   -1.482139421889e-03
    47   -1.879588909163e-03
    48    3.102014169704e-02
Sym=X
Ene= 0.858432
Spin=Alpha
Occup=0
     1    9.725035533301e-03
     2   -1.072909609641e+00
     3    1.450150734242e-01
     4    5.635681272898e-02
     5    1.036613842656e-02
     6   -1.272779661157e-03
     7    1.249304140572e-03
     8   -5.959687456441e-03
     9   -4.162678889510e-01
    10   -4.286328607409e-01
    11   -4.592638541335e-02
    12    9.425302703378e-01
    13    9.806543572470e-01
    14    1.045970023371e-01
    15    3.541146178918e-03
    16    1.154792235216e-02
    17   -1.366688558458e-02
    18    2.302840219178e-01
    19    1.325749719655e-02
    20   -1.884236358416e-02
    21    1.078278069019e+00
    22    4.820504782560e-02
    23    1.501799085298e-01
    24    1.139616154239e-02
    25    1.273541664571e-03
    26   -1.236890886477e-03
    27    5.953399524603e-03
    28   -4.162811000857e-01
    29   -4.286519129277e-01
    30   -4.584718834443e-02
    31    9.425510435563e-01
    32    9.807025998167e-01
    33    1.044238990570e-01
    34   -3.544422879729e-03
    35   -1.154764036302e-02
    36    1.366844577398e-02
    37   -2.302914514082e-01
    38   -1.326149140000e-02
    39    1.883903612471e-02
    40   -1.078284927941e+00
    41    4.819622769056e-02
    42    1.501845986552e-01
    43    1.139253601568e-02
    44   -9.717892480393e-03
    45    1.072915430043e+00
    46    1.450199370679e-01
    47    5.635236004030e-02
    48    1.035829890469e-02
Sym=X
Ene= 0.927995
Spin=Alpha
Occup=0
     1   -1.414989667969e-01
     2    1.239631795439e+00
     3   -1.840428330132e-01
     4    4.968940087407e-03
     5   -8.549077701810e-03
     6    4.625284583857e-04
     7    1.849110946171e-02
     8   -2.744953068009e-02
     9    4.764692111097e-01
    10    4.960978675927e-01
    11    5.286474487218e-02
    12   -1.388618060922e+00
    13   -1.448582665238e+00
    14   -1.542336138717e-01
    15   -1.760088296326e-03
    16   -6.344498220733e-03
    17    7.412307475158e-03
    18   -1.255332707733e-01
    19   -7.574735988318e-03
    20    1.419712497649e-01
    21   -1.222354463273e+00
    22    1.579828417817e-02
    23   -1.806405857578e-01
    24   -1.015127037603e-02
    25    4.638443399160e-04
    26    1.850412186488e-02
    27   -2.742652342818e-02
    28   -4.764832023553e-01
    29   -4.960730380394e-01
    30   -5.283985408834e-02
    31    1.388650558712e+00
    32    1.448495298865e+00
    33    1.541621783032e-01
    34   -1.760318170637e-03
    35   -6.325906983616e-03
    36    7.407789238322e-03
    37   -1.255284938370e-01
    38   -7.593636338627e-03
    39    1.419680923057e-01
    40   -1.222286449043e+00
    41   -1.581035887557e-02
    42    1.806312009794e-01
    43    1.014632658138e-02
    44   -1.415061495810e-01
    45    1.239654152741e+00
    46    1.840439003272e-01
    47   -4.968164580769e-03
    48    8.536839274941e-03
Sym=X
Ene= 0.970595
Spin=Alpha
Occup=0
     1   -5.888926193860e-02
     2    8.862852674378e-01
     3   -8.616851404618e-02
     4   -9.645081748002e-02
     5   -9.958462408161e-03
     6    2.706301501553e-02
     7    2.529174686486e-01
     8    5.138567167339e-01
     9    4.810181328334e-01
    10   -4.609575240828e-01
    11   -4.732561989130e-03
    12   -1.467266812918e+00
    13    1.408485110548e+00
    14    1.456798443940e-02
    15   -5.790693609261e-02
    16   -1.227746783360e-02
    17   -9.310123572438e-03
    18    1.742455009587e-02
    19   -2.962527219853e-01
    20   -6.063307114948e-02
    21    9.072038593261e-01
    22    9.216031610307e-02
    23    9.376921985540e-02
    24    1.009941049403e-02
    25   -2.706226576962e-02
    26   -2.528464179181e-01
    27   -5.139710912977e-01
    28    4.809931197993e-01
    29   -4.609746134495e-01
    30   -4.754085018291e-03
    31   -1.467178545675e+00
    32    1.408580526659e+00
    33    1.463127707596e-02
    34    5.790189620287e-02
    35    1.227669336450e-02
    36    9.312697533168e-03
    37   -1.743162885650e-02
    38    2.962392014365e-01
    39    6.063255513306e-02
    40   -9.072458009473e-01
    41    9.215432308362e-02
    42    9.377497414362e-02
    43    1.010152062881e-02
    44    5.889713526899e-02
    45   -8.861772530495e-01
    46   -8.615487936795e-02
    47   -9.644781437208e-02
    48   -9.951715175676e-03
[5D]

======= END OF MOLDEN-FORMATTED INPUT FILE =======


        *************************************************************
        *                                                           *
        *  Thank you very much for using Q-Chem.  Have a nice day.  *
        *                                                           *
        *************************************************************


