                  Welcome to Q-Chem
     A Quantum Leap Into The Future Of Chemistry


 Q-Chem 5.4 (devel), Q-Chem, Inc., Pleasanton, CA (2021)

 E. Epifanovsky,  A. T. B. Gilbert,  Xintian Feng,  Joonho Lee,  Yuezhi Mao,  
 N. Mardirossian,  P. Pokhilko,  A. White,  M. Wormit,  M. P. Coons,  
 A. L. Dempwolff,  Zhengting Gan,  D. Hait,  P. R. Horn,  L. D. Jacobson,  
 I. Kaliman,  J. Kussmann,  A. W. Lange,  Ka Un Lao,  D. S. Levine,  Jie Liu,  
 S. C. McKenzie,  A. F. Morrison,  K. Nanda,  F. Plasser,  D. R. Rehn,  
 M. L. Vidal,  Zhi-Qiang You,  Ying Zhu,  B. Alam,  B. Albrecht,  
 A. Aldossary,  E. Alguire,  J. H. Andersen,  D. Barton,  K. Begam,  A. Behn,  
 Y. A. Bernard,  E. J. Berquist,  H. Burton,  A. Carreras,  K. Carter-Fenk,  
 R. Chakraborty,  A. D. Chien,  K. D. Closser,  V. Cofer-Shabica,  
 S. Dasgupta,  Jia Deng,  M. de Wergifosse,  M. Diedenhofen,  Hainam Do,  
 S. Ehlert,  Po-Tung Fang,  S. Fatehi,  Qingguo Feng,  T. Friedhoff,  
 J. Gayvert,  Qinghui Ge,  G. Gidofalvi,  M. Goldey,  J. Gomes,  
 C. Gonzalez-Espinoza,  S. Gulania,  A. Gunina,  M. W. D. Hanson-Heine,  
 P. H. P. Harbach,  A. W. Hauser,  M. F. Herbst,  M. Hernandez Vera,  
 M. Hodecker,  Z. C. Holden,  S. Houck,  Xunkun Huang,  Kerwin Hui,  
 B. C. Huynh,  M. Ivanov,  Hyunjun Ji,  Hanjie Jiang,  B. Kaduk,  S. Kaehler,  
 K. Khistyaev,  Jaehoon Kim,  P. Klunzinger,  Z. Koczor-Benda,  
 Joong Hoon Koh,  D. Kosenkov,  L. Koulias,  T. Kowalczyk,  C. M. Krauter,  
 K. Kue,  A. Kunitsa,  T. Kus,  A. Landau,  K. V. Lawler,  D. Lefrancois,  
 S. Lehtola,  Rain Li,  Yi-Pei Li,  Jiashu Liang,  M. Liebenthal,  
 Hung-Hsuan Lin,  You-Sheng Lin,  Fenglai Liu,  Kuan-Yu Liu,  
 M. Loipersberger,  A. Luenser,  A. Manjanath,  P. Manohar,  E. Mansoor,  
 S. F. Manzer,  Shan-Ping Mao,  A. V. Marenich,  T. Markovich,  S. Mason,  
 S. A. Maurer,  P. F. McLaughlin,  M. F. S. J. Menger,  J.-M. Mewes,  
 S. A. Mewes,  P. Morgante,  J. W. Mullinax,  K. J. Oosterbaan,  G. Paran,  
 Alexander C. Paul,  Suranjan K. Paul,  F. Pavosevic,  Zheng Pei,  S. Prager,  
 E. I. Proynov,  E. Ramos,  B. Rana,  A. E. Rask,  A. Rettig,  R. M. Richard,  
 F. Rob,  E. Rossomme,  T. Scheele,  M. Scheurer,  M. Schneider,  
 N. Sergueev,  S. M. Sharada,  W. Skomorowski,  D. W. Small,  C. J. Stein,  
 Yu-Chuan Su,  E. J. Sundstrom,  Zhen Tao,  J. Thirman,  T. Tsuchimochi,  
 N. M. Tubman,  S. P. Veccham,  O. Vydrov,  J. Wenzel,  J. Witte,  A. Yamada,  
 Kun Yao,  S. Yeganeh,  S. R. Yost,  A. Zech,  Igor Ying Zhang,  Xing Zhang,  
 Yu Zhang,  D. Zuev,  A. Aspuru-Guzik,  A. T. Bell,  N. A. Besley,  
 K. B. Bravaya,  B. R. Brooks,  D. Casanova,  Jeng-Da Chai,  S. Coriani,  
 C. J. Cramer,  A. E. DePrince, III,  R. A. DiStasio Jr.,  A. Dreuw,  
 B. D. Dunietz,  T. R. Furlani,  W. A. Goddard III,  S. Grimme,  
 S. Hammes-Schiffer,  T. Head-Gordon,  W. J. Hehre,  Chao-Ping Hsu,  
 T.-C. Jagau,  Yousung Jung,  A. Klamt,  Jing Kong,  D. S. Lambrecht,  
 WanZhen Liang,  N. J. Mayhall,  C. W. McCurdy,  J. B. Neaton,  
 C. Ochsenfeld,  J. A. Parkhill,  R. Peverati,  V. A. Rassolov,  Yihan Shao,  
 L. V. Slipchenko,  T. Stauch,  R. P. Steele,  J. E. Subotnik,  
 A. J. W. Thom,  A. Tkatchenko,  D. G. Truhlar,  T. Van Voorhis,  
 T. A. Wesolowski,  K. B. Whaley,  H. L. Woodcock III,  P. M. Zimmerman,  
 S. Faraji,  P. M. W. Gill,  M. Head-Gordon,  J. M. Herbert,  A. I. Krylov

 Additional authors for Version 5.4.1: 
 S. Kotaru,  Shaozhi Li,  Xiangyuan Li,  F. Matz,  A. Molle,  Haisheng Ren,  
 Yingli Su,  Hung-Yi Tsai,  C. Utku,  Fang Wang

 Contributors to earlier versions of Q-Chem not listed above: 
 R. D. Adamson,  B. Austin,  R. Baer,  J. Baker,  G. J. O. Beran,  
 K. Brandhorst,  S. T. Brown,  E. F. C. Byrd,  A. K. Chakraborty,  
 G. K. L. Chan,  Chun-Min Chang,  Yunqing Chen,  C.-L. Cheng,  
 Siu Hung Chien,  D. M. Chipman,  D. L. Crittenden,  H. Dachsel,  
 R. J. Doerksen,  A. D. Dutoi,  R. G. Edgar,  J. Fosso-Tande,  
 L. Fusti-Molnar,  D. Ghosh,  A. Ghysels,  A. Golubeva-Zadorozhnaya,  
 J. Gonthier,  M. S. Gordon,  S. R. Gwaltney,  G. Hawkins,  J. E. Herr,  
 A. Heyden,  S. Hirata,  E. G. Hohenstein,  G. Kedziora,  F. J. Keil,  
 C. Kelley,  Jihan Kim,  R. A. King,  R. Z. Khaliullin,  P. P. Korambath,  
 W. Kurlancheek,  A. Laurent,  A. M. Lee,  M. S. Lee,  S. V. Levchenko,  
 Ching Yeh Lin,  D. Liotard,  E. Livshits,  R. C. Lochan,  I. Lotan,  
 L. A. Martinez-Martinez,  P. E. Maslen,  N. Nair,  D. P. O'Neill,  
 D. Neuhauser,  E. Neuscamman,  C. M. Oana,  R. Olivares-Amaya,  R. Olson,  
 T. M. Perrine,  B. Peters,  P. A. Pieniazek,  A. Prociuk,  Y. M. Rhee,  
 J. Ritchie,  M. A. Rohrdanz,  E. Rosta,  N. J. Russ,  H. F. Schaefer III,  
 M. W. Schmidt,  N. E. Schultz,  S. Sharma,  N. Shenvi,  C. D. Sherrill,  
 A. C. Simmonett,  A. Sodt,  T. Stein,  D. Stuck,  K. S. Thanthiriwatte,  
 V. Vanovschi,  L. Vogt,  Tao Wang,  A. Warshel,  M. A. Watson,  
 C. F. Williams,  Q. Wu,  X. Xu,  Jun Yang,  W. Zhang,  Yan Zhao

 Please cite Q-Chem as follows:
 Y. Shao et al., Mol. Phys. 113, 184-215 (2015)
 DOI: 10.1080/00268976.2014.952696

 Q-Chem 5.4.1 for Intel X86 EM64T Linux

 Parts of Q-Chem use Armadillo 9.800.1 (Horizon Scraper).
 http://arma.sourceforge.net/

 Q-Chem begins on Tue Mar 21 11:30:36 2023  

 Host: cpu186.baobab
0

     Scratch files written to /scratch/fum/qchem57765//
 Processing $rem in /home/share/wesolowski/qc5.aug2021.FDE/config/preferences:
 Processing $rem in /home/fum/.qchemrc:

 Checking the input file for inconsistencies... 	...done.

--------------------------------------------------------------
User input:
--------------------------------------------------------------
$comment
generated from CCJob.Templates
$end

$rem
sym_ignore = true
method = adc(2)
ee_states = 10
basis = cc-pVDZ
mem_static = 1024
mem_total = 40000
adc_davidson_maxiter = 900
adc_davidson_conv = 6
adc_print = 3
adc_prop_es = true
adc_prop_es2es = true
adc_prop_tpa = true
molden_format = True
state_analysis = true
print_orbitals = 15
gen_scfman = false
fde_export_density = true
fde_details = 3
$end

$molecule
0 1
H -0.021304299570814644 -0.24607804979191042 0.06519299730794983
C -1.0760970905817777 -0.5261405555070987 -0.0023799484020361763
H -1.3020894088067054 -1.5933288802345225 -0.07775571450719013
C -2.046573969018226 0.39556463860710106 0.00662689990203762
H -1.8206207197932824 1.4627648813345264 0.0819824640071906
H -3.1013771431291843 0.1155131952918979 -0.060867556007954175                     
$end
--------------------------------------------------------------
 ----------------------------------------------------------------
             Standard Nuclear Orientation (Angstroms)
    I     Atom           X                Y                Z
 ----------------------------------------------------------------
    1      H      -0.0213042996    -0.2460780498     0.0651929973
    2      C      -1.0760970906    -0.5261405555    -0.0023799484
    3      H      -1.3020894088    -1.5933288802    -0.0777557145
    4      C      -2.0465739690     0.3955646386     0.0066268999
    5      H      -1.8206207198     1.4627648813     0.0819824640
    6      H      -3.1013771431     0.1155131953    -0.0608675560
 ----------------------------------------------------------------
 Nuclear Repulsion Energy =          33.15891292 hartrees
 There are        8 alpha and        8 beta electrons
 Requested basis set is cc-pVDZ
 There are 24 shells and 48 basis functions
 Total memory of 40000 MB is distributed as follows: 
   MEM_STATIC is set to 1024 MB
   QALLOC/CCMAN JOB total memory use is  38976 MB
 Warning: actual memory use might exceed 40000 MB

 Total QAlloc Memory Limit  40000 MB
 Mega-Array Size      1001 MB
 MEM_STATIC part      1024 MB

                       Distance Matrix (Angstroms)
             H (  1)   C (  2)   H (  3)   C (  4)   H (  5)
   C (  2)  1.093430
   H (  3)  1.864385  1.093456
   C (  4)  2.125289  1.338449  2.125341
   H (  5)  2.481525  2.125365  3.103885  1.093458
   H (  6)  3.103786  2.125300  2.481504  1.093432  1.864358

 A cutoff of  1.0D-11 yielded    300 shell pairs
 There are      1220 function pairs (      1329 Cartesian)
 Smallest overlap matrix eigenvalue = 4.90E-03

 Scale SEOQF with 1.000000e-01/1.000000e-01/1.000000e+00

 Standard Electronic Orientation quadrupole field applied
 Nucleus-field energy     =     0.0000000022 hartrees
 Guess from superposition of atomic densities
 Warning:  Energy on first SCF cycle will be non-variational
 SAD guess density has 16.000000 electrons
 A restricted Hartree-Fock SCF calculation will be
 performed using Pulay DIIS extrapolation
 SCF converges when DIIS error is below 1.0E-08
 using 10 threads for integral computing
 -------------------------------------------------------
 OpenMP Integral computing Module                
 Release: version 1.0, May 2013, Q-Chem Inc. Pittsburgh 
 -------------------------------------------------------
 ---------------------------------------
  Cycle       Energy         DIIS Error
 ---------------------------------------
    1     -78.3902999890      9.88E-02
    2     -78.0174929514      7.11E-03
    3     -78.0379211235      1.82E-03
    4     -78.0393919031      5.56E-04
    5     -78.0395060771      5.81E-05
    6     -78.0395079370      9.29E-06
    7     -78.0395079984      1.96E-06
    8     -78.0395080012      1.67E-07
    9     -78.0395080012      1.73E-08
   10     -78.0395080012      3.96E-09 Convergence criterion met
 ---------------------------------------
 SCF time:  CPU 1.88 s  wall 2.54 s
 SCF   energy in the final basis set = -78.03950800
 Total energy in the final basis set = -78.03950800
Exporting Density Matrix to file 'Densmat_SCF.txt'.
Export successful
================================================================================
|                                                                              |
|                                 A D C  M A N                                 |
|                                                                              |
 ------------------------------------------------------------------------------ 
|                                                                              |
| Components:                                                                  |
|                                                                              |
| - libvmm - 1.3-trunk                                                         |
|   Authors:                                                                   |
|   Evgeny Epifanovsky, Ilya Kaliman                                           |
|                                                                              |
| - libtensor - 2.5-trunk                                                      |
|   Authors:                                                                   |
|   Evgeny Epifanovsky, Michael Wormit, Dmitry Zuev, Sam Manzer,               |
|   Ilya Kaliman                                                               |
|                                                                              |
| - libwfa - 1.1-trunk                                                         |
|   Authors:                                                                   |
|   Felix Plasser, Stefanie Mewes (Baeppler), Benjamin Thomitzni,              |
|   Michael Wormit, Feng Chen, Anna I. Krylov, Pavel Pokhilko                  |
|                                                                              |
| - libadc - 1.1-trunk                                                         |
|   Authors:                                                                   |
|   Michael Wormit, Adrian L. Dempwolff, Philipp H. P. Harbach,                |
|   Caroline Krauter, Dirk Rehn, Matthias Schneider, Jan Wenzel                |
|                                                                              |
| - adcman - 2.6-trunk                                                         |
|   Authors:                                                                   |
|   Michael Wormit, Adrian L. Dempwolff, Philipp H. P. Harbach,                |
|   Caroline Krauter, Daniel Lefrancois, Jan-Michael Mewes, Dirk Rehn,         |
|   Matthias Schneider, Jan Wenzel, Andreas Dreuw                              |
|                                                                              |
| Authors of earlier versions of ADCMAN:                                       |
| Andreas Dreuw, Jan Hendrik Starcke, Dirk Rehn, Michael Wormit                |
|                                                                              |
================================================================================

 Created directory /scratch/fum/qchem57765/plots
  Import QC data ...  CPU 0.00 s  wall 0.00 s

 Alpha MOs, Restricted
 -- Occupied --                  
-11.239 -11.238  -1.029  -0.786  -0.635  -0.581  -0.501  -0.373
  1 A     2 A     3 A     4 A     5 A     6 A     7 A     8 A                  
 -- Virtual --                   
  0.167   0.203   0.231   0.237   0.303   0.461   0.580   0.609
  9 A    10 A    11 A    12 A    13 A    14 A    15 A    16 A                  
  0.690   0.705   0.775   0.807   0.859   0.928   0.968   1.006
 17 A    18 A    19 A    20 A    21 A    22 A    23 A    24 A                  
  1.130   1.235   1.242   1.261   1.290   1.595   1.726   1.742
 25 A    26 A    27 A    28 A    29 A    30 A    31 A    32 A                  
  1.810   1.851   1.853   1.902   1.966   1.971   2.220   2.245
 33 A    34 A    35 A    36 A    37 A    38 A    39 A    40 A                  
  2.356   2.424   2.490   2.617   2.683   2.794   3.101   3.363
 41 A    42 A    43 A    44 A    45 A    46 A    47 A    48 A                  

 Beta MOs, Restricted
 -- Occupied --                  
-11.239 -11.238  -1.029  -0.786  -0.635  -0.581  -0.501  -0.373
  1 A     2 A     3 A     4 A     5 A     6 A     7 A     8 A                  
 -- Virtual --                   
  0.167   0.203   0.231   0.237   0.303   0.461   0.580   0.609
  9 A    10 A    11 A    12 A    13 A    14 A    15 A    16 A                  
  0.690   0.705   0.775   0.807   0.859   0.928   0.968   1.006
 17 A    18 A    19 A    20 A    21 A    22 A    23 A    24 A                  
  1.130   1.235   1.242   1.261   1.290   1.595   1.726   1.742
 25 A    26 A    27 A    28 A    29 A    30 A    31 A    32 A                  
  1.810   1.851   1.853   1.902   1.966   1.971   2.220   2.245
 33 A    34 A    35 A    36 A    37 A    38 A    39 A    40 A                  
  2.356   2.424   2.490   2.617   2.683   2.794   3.101   3.363
 41 A    42 A    43 A    44 A    45 A    46 A    47 A    48 A                  
  Import AO data ...  CPU 0.00 s  wall 0.00 s
  Using point group: C1
  Irreducible representations in point group: A
  Molecular orbitals: 
  Occupied MOs:
  Block   0:   1 (  A) A   2 (  A) A   3 (  A) A   4 (  A) A   5 (  A) A
                  -11.24      -11.24      -1.029     -0.7864     -0.6353
               6 (  A) A   7 (  A) A   8 (  A) A
                  -0.581      -0.501     -0.3732
  Block   1:   1 (  A) B   2 (  A) B   3 (  A) B   4 (  A) B   5 (  A) B
                  -11.24      -11.24      -1.029     -0.7864     -0.6353
               6 (  A) B   7 (  A) B   8 (  A) B
                  -0.581      -0.501     -0.3732
  Virtual MOs:
  Block   0:   9 (  A) A  10 (  A) A  11 (  A) A  12 (  A) A  13 (  A) A
                  0.1668      0.2025      0.2314      0.2366      0.3026
              14 (  A) A  15 (  A) A  16 (  A) A  17 (  A) A  18 (  A) A
                  0.4614      0.5804      0.6093      0.6897      0.7048
              19 (  A) A  20 (  A) A  21 (  A) A  22 (  A) A
                  0.7745      0.8069      0.8594      0.9277
  Block   1:  23 (  A) A  24 (  A) A  25 (  A) A  26 (  A) A  27 (  A) A
                  0.9679       1.006        1.13       1.235       1.242
              28 (  A) A  29 (  A) A  30 (  A) A  31 (  A) A  32 (  A) A
                   1.261        1.29       1.595       1.726       1.742
              33 (  A) A  34 (  A) A  35 (  A) A  36 (  A) A
                    1.81       1.851       1.853       1.902
  Block   2:  37 (  A) A  38 (  A) A  39 (  A) A  40 (  A) A  41 (  A) A
                   1.966       1.971        2.22       2.245       2.356
              42 (  A) A  43 (  A) A  44 (  A) A  45 (  A) A  46 (  A) A
                   2.424        2.49       2.617       2.683       2.794
              47 (  A) A  48 (  A) A
                   3.101       3.363
  Block   3:   9 (  A) B  10 (  A) B  11 (  A) B  12 (  A) B  13 (  A) B
                  0.1668      0.2025      0.2314      0.2366      0.3026
              14 (  A) B  15 (  A) B  16 (  A) B  17 (  A) B  18 (  A) B
                  0.4614      0.5804      0.6093      0.6897      0.7048
              19 (  A) B  20 (  A) B  21 (  A) B  22 (  A) B
                  0.7745      0.8069      0.8594      0.9277
  Block   4:  23 (  A) B  24 (  A) B  25 (  A) B  26 (  A) B  27 (  A) B
                  0.9679       1.006        1.13       1.235       1.242
              28 (  A) B  29 (  A) B  30 (  A) B  31 (  A) B  32 (  A) B
                   1.261        1.29       1.595       1.726       1.742
              33 (  A) B  34 (  A) B  35 (  A) B  36 (  A) B
                    1.81       1.851       1.853       1.902
  Block   5:  37 (  A) B  38 (  A) B  39 (  A) B  40 (  A) B  41 (  A) B
                   1.966       1.971        2.22       2.245       2.356
              42 (  A) B  43 (  A) B  44 (  A) B  45 (  A) B  46 (  A) B
                   2.424        2.49       2.617       2.683       2.794
              47 (  A) B  48 (  A) B
                   3.101       3.363
  Import MO data ...  CPU 0.05 s  wall 0.02 s
  Import HF data ...  CPU 0.27 s  wall 0.11 s
  Import 2e integrals ...  CPU 1.05 s  wall 0.20 s

--------------------------------------------------------------------------------
                                   HF Summary                                   
--------------------------------------------------------------------------------
  Energy:                                                  -78.0395080012 a.u.
  Dip. moment [a.u.]:                  [  -0.000005,    0.000002,    0.000016]
  Total dipole [Debye]:                                               0.000043
  <r^2> [a.u.]:                        [ 175.899050,   35.366740,   11.692294]
  Total <r^2> [a.u.]:                                               222.958083
--------------------------------------------------------------------------------
  HF properties ...  CPU 0.03 s  wall 0.01 s
  MP(1) calculation ...  CPU 0.01 s  wall 0.01 s
  N^6 prerequesite intermediates ...  CPU 0.65 s  wall 0.10 s
  Difference density matrix of state mp2_gs printed to ASCII file 'State_mp2_gs_Difference.txt'
Exporting MP density matrix to file 'Densmat_MP.txt'.
Export successful
  Total density matrix of state mp2_gs printed to ASCII file 'State_mp2_gs_Total.txt'
Exporting MP density matrix to file 'Densmat_MP.txt'.
Export successful

--------------------------------------------------------------------------------
                                 MP(2) Summary                                  
--------------------------------------------------------------------------------
  MP energy contribution:                                   -0.2807351118 a.u.
  Total energy:                                            -78.3202431130 a.u.
  Dip. moment [a.u.]:                  [  -0.000004,    0.000002,    0.000016]
  Total dipole [Debye]:                                               0.000042
  <r^2> [a.u.]:                        [ 175.938773,   35.402035,   11.516686]
  Total <r^2> [a.u.]:                                               222.857494

  Density matrix analysis:
  ------------------------
  NOs
    Occupation of frontier NOs:
       0.0459   1.9376
    Number of electrons: 16.000000
    Number of unpaired electrons: n_u =  0.40832, n_u,nl =  0.04618
    NO participation ratio (PR_NO): 13.852243
  
  
  Mulliken Population Analysis
  Atom      Charge (e)              h+              e-           Del q
  --------------------------------------------------------------------
   1 H        0.055212        0.013900       -0.011313        0.002587
   2 C       -0.110425        0.095027       -0.100199       -0.005172
   3 H        0.055220        0.013899       -0.011313        0.002586
   4 C       -0.110435        0.095026       -0.100200       -0.005174
   5 H        0.055219        0.013899       -0.011313        0.002586
   6 H        0.055210        0.013900       -0.011313        0.002587
  --------------------------------------------------------------------
  Sum:       -0.000000        0.245652       -0.245652       -0.000000
  
  Multipole moment analysis of the density matrix
    Molecular charge:                      -0.000000
    Number of electrons:                   16.000000
      Center of electronic charge [Ang]: [ -1.561338,  -0.065287,   0.002127]
    Total nuclear charge:                  16.000000
      Center of nuclear charge [Ang]:    [ -1.561339,  -0.065287,   0.002127]
    Dipole moment [D]:                     0.000042
      Cartesian components [D]:          [ -0.000011,   0.000004,   0.000041]
    RMS size of the density [Ang]:         1.207625
      Cartesian components [Ang]:        [  0.800915,   0.784434,   0.448952]
  
  Exciton analysis of the difference density matrix
    <r_h> [Ang]:                  [ -1.561338,  -0.065287,   0.002124]
    <r_e> [Ang]:                  [ -1.561339,  -0.065286,   0.002124]
    |<r_e - r_h>| [Ang]:            0.000001
    Hole size [Ang]:                1.403260
      Cartesian components [Ang]: [  0.853426,   0.840621,   0.730863]
    Electron size [Ang]:            1.361790
      Cartesian components [Ang]: [  0.879555,   0.864221,   0.577909]
--------------------------------------------------------------------------------
  MP(2) calculation ...  CPU 0.48 s  wall 0.24 s
  Start ADC(2)-s ...  CPU 0.02 s  wall 0.01 s
  ADC(2) intermediates ...  CPU 0.04 s  wall 0.01 s
  Starting Davidson for singlet states of irrep A ... 
--------------------------------------------------------------------------------
   It NVec Conv  Avg. Norm  Max. Norm  Conv. states           Remark
--------------------------------------------------------------------------------
        10    0  1.329e-01  4.680e-01  0.4106 n n n n n n n n Guess.
    1   20    0  2.317e-02  1.129e-01  0.3246 n n n n n n n n 
    2   30    0  5.874e-03  2.474e-02  0.3197 n n n n n n n n 
    3   40    0  1.759e-03  1.060e-02  0.3193 n n n n n n n n 
    4   50    0  5.000e-04  3.503e-03  0.3193 n n n n n n n n 
    5   20    0  2.527e-04  1.647e-03  0.3193 n n n n n n n n Subspace collapsed.
    6   30    0  1.086e-04  7.857e-04  0.3193 n n n n n n n n 
    7   40    0  5.048e-05  3.693e-04  0.3193 n n n n n n n n 
    8   50    0  3.924e-05  3.416e-04  0.3193 n n n n n n n n 
    9   20    2  3.522e-05  3.358e-04  0.3193 n y n y n n n n Subspace collapsed.
   10   30    4  1.965e-05  1.827e-04  0.3193 n y y y n y n n 
   11   40    5  8.576e-06  7.752e-05  0.3193 n y y y y y n n 
   12   50    7  3.353e-06  2.819e-05  0.3193 y y y y y y n y 
   13   20    8  2.090e-06  1.649e-05  0.3193 y y y y y y n y Subspace collapsed.
   14   30    8  1.829e-06  1.450e-05  0.3193 y y y y y y n y 
   15   40    8  1.288e-06  1.148e-05  0.3193 y y y y y y n y 
   16   50    8  5.696e-07  4.781e-06  0.3193 y y y y y y n y 
   17   20    8  2.581e-07  1.933e-06  0.3193 y y y y y y n y Subspace collapsed.
   18   30    8  2.304e-07  1.870e-06  0.3193 y y y y y y n y 
   19   40    9  1.616e-07  1.383e-06  0.3193 y y y y y y n y 
   20   50   10  7.225e-08  5.456e-07  0.3193 y y y y y y y y Converged.
--------------------------------------------------------------------------------
  Davidson Summary: 
 ------------------------------------------------------------
  State  0: excitation energy =   0.3193 a.u.   (converged)
  State  1: excitation energy =   0.3291 a.u.   (converged)
  State  2: excitation energy =   0.3350 a.u.   (converged)
  State  3: excitation energy =   0.3577 a.u.   (converged)
  State  4: excitation energy =   0.3722 a.u.   (converged)
  State  5: excitation energy =   0.3849 a.u.   (converged)
  State  6: excitation energy =   0.4211 a.u.   (converged)
  State  7: excitation energy =   0.4426 a.u.   (converged)
  State  8: excitation energy =   0.4527 a.u.   (converged)
  State  9: excitation energy =   0.4600 a.u.   (converged)
 ------------------------------------------------------------

  Singlet states of irrep A ...  CPU 144.39 s  wall 46.78 s
  TDMs ...  CPU 2.45 s  wall 0.94 s
  SDMs ...  CPU 5.21 s  wall 1.51 s
  Starting TPA DIIS iterations ... 
------------------------------------ 
   It     Res. Norm  Remark
------------------------------------
                       Guess.
    1     4.460e+00  
    2     5.937e+00  
    3     1.095e+00  
    4     2.667e-01  
    5     6.732e-02  
    6     2.816e-02  
    7     8.582e-03  
    8     1.544e-03  
    9     5.783e-04  
   10     9.752e-05  
   11     3.121e-05  
   12     4.862e-06  
   13     1.606e-06  
   14     4.747e-07  Converged.
   ... Converged in 14 steps (norm: 4.74746e-07)
------------------------------------
  Starting TPA DIIS iterations ... 
------------------------------------ 
   It     Res. Norm  Remark
------------------------------------
                       Guess.
    1     4.246e+00  
    2     5.643e+00  
    3     1.045e+00  
    4     2.648e-01  
    5     6.705e-02  
    6     2.817e-02  
    7     8.437e-03  
    8     1.564e-03  
    9     5.873e-04  
   10     9.708e-05  
   11     3.152e-05  
   12     4.827e-06  
   13     1.633e-06  
   14     4.702e-07  Converged.
   ... Converged in 14 steps (norm: 4.70243e-07)
------------------------------------
  Starting TPA DIIS iterations ... 
------------------------------------ 
   It     Res. Norm  Remark
------------------------------------
                       Guess.
    1     6.863e-01  
    2     4.803e-01  
    3     1.689e-01  
    4     6.473e-02  
    5     1.876e-02  
    6     6.681e-03  
    7     1.072e-03  
    8     4.554e-04  
    9     1.248e-04  
   10     3.116e-05  
   11     5.062e-06  
   12     1.752e-06  
   13     8.695e-07  Converged.
   ... Converged in 13 steps (norm: 8.69523e-07)
------------------------------------
  Starting TPA DIIS iterations ... 
------------------------------------ 
   It     Res. Norm  Remark
------------------------------------
                       Guess.
    1     4.703e+00  
    2     6.375e+00  
    3     1.163e+00  
    4     2.916e-01  
    5     7.443e-02  
    6     3.138e-02  
    7     9.545e-03  
    8     1.715e-03  
    9     6.466e-04  
   10     1.095e-04  
   11     3.535e-05  
   12     5.546e-06  
   13     1.843e-06  
   14     5.433e-07  Converged.
   ... Converged in 14 steps (norm: 5.43269e-07)
------------------------------------
  Starting TPA DIIS iterations ... 
------------------------------------ 
   It     Res. Norm  Remark
------------------------------------
                       Guess.
    1     4.477e+00  
    2     6.059e+00  
    3     1.110e+00  
    4     2.893e-01  
    5     7.414e-02  
    6     3.140e-02  
    7     9.385e-03  
    8     1.739e-03  
    9     6.569e-04  
   10     1.091e-04  
   11     3.569e-05  
   12     5.504e-06  
   13     1.875e-06  
   14     5.378e-07  Converged.
   ... Converged in 14 steps (norm: 5.37839e-07)
------------------------------------
  Starting TPA DIIS iterations ... 
------------------------------------ 
   It     Res. Norm  Remark
------------------------------------
                       Guess.
    1     6.964e-01  
    2     4.947e-01  
    3     1.770e-01  
    4     7.189e-02  
    5     1.994e-02  
    6     7.194e-03  
    7     1.184e-03  
    8     5.227e-04  
    9     1.464e-04  
   10     3.546e-05  
   11     5.612e-06  
   12     2.007e-06  
   13     1.043e-06  
   14     3.643e-07  Converged.
   ... Converged in 14 steps (norm: 3.64309e-07)
------------------------------------
  Starting TPA DIIS iterations ... 
------------------------------------ 
   It     Res. Norm  Remark
------------------------------------
                       Guess.
    1     4.862e+00  
    2     6.664e+00  
    3     1.208e+00  
    4     3.082e-01  
    5     7.921e-02  
    6     3.355e-02  
    7     1.019e-02  
    8     1.830e-03  
    9     6.926e-04  
   10     1.177e-04  
   11     3.817e-05  
   12     6.013e-06  
   13     2.007e-06  
   14     5.901e-07  Converged.
   ... Converged in 14 steps (norm: 5.90136e-07)
------------------------------------
  Starting TPA DIIS iterations ... 
------------------------------------ 
   It     Res. Norm  Remark
------------------------------------
                       Guess.
    1     4.628e+00  
    2     6.334e+00  
    3     1.153e+00  
    4     3.056e-01  
    5     7.890e-02  
    6     3.359e-02  
    7     1.002e-02  
    8     1.857e-03  
    9     7.039e-04  
   10     1.172e-04  
   11     3.853e-05  
   12     5.965e-06  
   13     2.042e-06  
   14     5.841e-07  Converged.
   ... Converged in 14 steps (norm: 5.84076e-07)
------------------------------------
  Starting TPA DIIS iterations ... 
------------------------------------ 
   It     Res. Norm  Remark
------------------------------------
                       Guess.
    1     7.027e-01  
    2     5.038e-01  
    3     1.823e-01  
    4     7.676e-02  
    5     2.070e-02  
    6     7.537e-03  
    7     1.261e-03  
    8     5.697e-04  
    9     1.615e-04  
   10     3.795e-05  
   11     5.974e-06  
   12     2.184e-06  
   13     1.168e-06  
   14     4.002e-07  Converged.
   ... Converged in 14 steps (norm: 4.00172e-07)
------------------------------------
  Starting TPA DIIS iterations ... 
------------------------------------ 
   It     Res. Norm  Remark
------------------------------------
                       Guess.
    1     5.558e+00  
    2     7.966e+00  
    3     1.403e+00  
    4     3.855e-01  
    5     1.014e-01  
    6     4.373e-02  
    7     1.320e-02  
    8     2.364e-03  
    9     9.084e-04  
   10     1.558e-04  
   11     5.167e-05  
   12     8.248e-06  
   13     2.804e-06  
   14     8.159e-07  Converged.
   ... Converged in 14 steps (norm: 8.15941e-07)
------------------------------------
  Starting TPA DIIS iterations ... 
------------------------------------ 
   It     Res. Norm  Remark
------------------------------------
                       Guess.
    1     5.288e+00  
    2     7.570e+00  
    3     1.338e+00  
    4     3.816e-01  
    5     1.010e-01  
    6     4.383e-02  
    7     1.299e-02  
    8     2.402e-03  
    9     9.240e-04  
   10     1.552e-04  
   11     5.208e-05  
   12     8.171e-06  
   13     2.856e-06  
   14     8.070e-07  Converged.
   ... Converged in 14 steps (norm: 8.06989e-07)
------------------------------------
  Starting TPA DIIS iterations ... 
------------------------------------ 
   It     Res. Norm  Remark
------------------------------------
                       Guess.
    1     7.277e-01  
    2     5.417e-01  
    3     2.046e-01  
    4     9.996e-02  
    5     2.402e-02  
    6     9.131e-03  
    7     1.631e-03  
    8     7.984e-04  
    9     2.338e-04  
   10     4.543e-05  
   11     7.602e-06  
   12     3.053e-06  
   13     1.833e-06  
   14     5.725e-07  Converged.
   ... Converged in 14 steps (norm: 5.72533e-07)
------------------------------------
  Starting TPA DIIS iterations ... 
------------------------------------ 
   It     Res. Norm  Remark
------------------------------------
                       Guess.
    1     6.091e+00  
    2     8.997e+00  
    3     1.552e+00  
    4     4.490e-01  
    5     1.196e-01  
    6     5.220e-02  
    7     1.568e-02  
    8     2.801e-03  
    9     1.088e-03  
   10     1.876e-04  
   11     6.311e-05  
   12     1.014e-05  
   13     3.496e-06  
   14     1.011e-06  
   15     3.289e-07  Converged.
   ... Converged in 15 steps (norm: 3.28938e-07)
------------------------------------
  Starting TPA DIIS iterations ... 
------------------------------------ 
   It     Res. Norm  Remark
------------------------------------
                       Guess.
    1     5.794e+00  
    2     8.548e+00  
    3     1.479e+00  
    4     4.439e-01  
    5     1.192e-01  
    6     5.237e-02  
    7     1.542e-02  
    8     2.850e-03  
    9     1.107e-03  
   10     1.869e-04  
   11     6.354e-05  
   12     1.004e-05  
   13     3.562e-06  
   14     1.000e-06  
   15     3.269e-07  Converged.
   ... Converged in 15 steps (norm: 3.26947e-07)
------------------------------------
  Starting TPA DIIS iterations ... 
------------------------------------ 
   It     Res. Norm  Remark
------------------------------------
                       Guess.
    1     7.446e-01  
    2     5.689e-01  
    3     2.210e-01  
    4     1.195e-01  
    5     2.660e-02  
    6     1.045e-02  
    7     1.951e-03  
    8     9.874e-04  
    9     2.920e-04  
   10     4.795e-05  
   11     8.916e-06  
   12     3.805e-06  
   13     2.459e-06  
   14     7.176e-07  Converged.
   ... Converged in 14 steps (norm: 7.1756e-07)
------------------------------------
  Starting TPA DIIS iterations ... 
------------------------------------ 
   It     Res. Norm  Remark
------------------------------------
                       Guess.
    1     6.630e+00  
    2     1.007e+01  
    3     1.701e+00  
    4     5.168e-01  
    5     1.390e-01  
    6     6.133e-02  
    7     1.832e-02  
    8     3.266e-03  
    9     1.281e-03  
   10     2.218e-04  
   11     7.552e-05  
   12     1.220e-05  
   13     4.257e-06  
   14     1.230e-06  
   15     4.030e-07  Converged.
   ... Converged in 15 steps (norm: 4.03005e-07)
------------------------------------
  Starting TPA DIIS iterations ... 
------------------------------------ 
   It     Res. Norm  Remark
------------------------------------
                       Guess.
    1     6.306e+00  
    2     9.565e+00  
    3     1.621e+00  
    4     5.103e-01  
    5     1.385e-01  
    6     6.157e-02  
    7     1.803e-02  
    8     3.327e-03  
    9     1.304e-03  
   10     2.209e-04  
   11     7.596e-05  
   12     1.206e-05  
   13     4.336e-06  
   14     1.216e-06  
   15     4.000e-07  Converged.
   ... Converged in 15 steps (norm: 4.00018e-07)
------------------------------------
  Starting TPA DIIS iterations ... 
------------------------------------ 
   It     Res. Norm  Remark
------------------------------------
                       Guess.
    1     7.601e-01  
    2     5.949e-01  
    3     2.372e-01  
    4     1.407e-01  
    5     2.929e-02  
    6     1.185e-02  
    7     2.308e-03  
    8     1.178e-03  
    9     3.504e-04  
   10     4.907e-05  
   11     1.033e-05  
   12     4.628e-06  
   13     3.186e-06  
   14     8.725e-07  Converged.
   ... Converged in 14 steps (norm: 8.72527e-07)
------------------------------------
  Starting TPA DIIS iterations ... 
------------------------------------ 
   It     Res. Norm  Remark
------------------------------------
                       Guess.
    1     8.682e+00  
    2     1.437e+01  
    3     2.259e+00  
    4     8.019e-01  
    5     2.208e-01  
    6     1.006e-01  
    7     2.945e-02  
    8     5.217e-03  
    9     2.107e-03  
   10     3.677e-04  
   11     1.281e-04  
   12     2.102e-05  
   13     7.503e-06  
   14     2.267e-06  
   15     7.274e-07  Converged.
   ... Converged in 15 steps (norm: 7.27449e-07)
------------------------------------
  Starting TPA DIIS iterations ... 
------------------------------------ 
   It     Res. Norm  Remark
------------------------------------
                       Guess.
    1     8.253e+00  
    2     1.365e+01  
    3     2.151e+00  
    4     7.885e-01  
    5     2.202e-01  
    6     1.012e-01  
    7     2.900e-02  
    8     5.331e-03  
    9     2.147e-03  
   10     3.663e-04  
   11     1.285e-04  
   12     2.073e-05  
   13     7.627e-06  
   14     2.241e-06  
   15     7.190e-07  Converged.
   ... Converged in 15 steps (norm: 7.18969e-07)
------------------------------------
  Starting TPA DIIS iterations ... 
------------------------------------ 
   It     Res. Norm  Remark
------------------------------------
                       Guess.
    1     8.085e-01  
    2     6.840e-01  
    3     2.954e-01  
    4     2.288e-01  
    5     4.023e-02  
    6     1.776e-02  
    7     3.930e-03  
    8     1.764e-03  
    9     5.548e-04  
   10     5.625e-05  
   11     1.658e-05  
   12     8.112e-06  
   13     6.637e-06  
   14     1.498e-06  
   15     5.800e-07  Converged.
   ... Converged in 15 steps (norm: 5.8002e-07)
------------------------------------
  Starting TPA DIIS iterations ... 
------------------------------------ 
   It     Res. Norm  Remark
------------------------------------
                       Guess.
    1     1.042e+01  
    2     1.829e+01  
    3     2.721e+00  
    4     1.070e+00  
    5     2.986e-01  
    6     1.388e-01  
    7     4.004e-02  
    8     7.061e-03  
    9     2.906e-03  
   10     5.078e-04  
   11     1.764e-04  
   12     2.960e-05  
   13     1.048e-05  
   14     3.399e-06  
   15     1.088e-06  
   16     2.344e-07  Converged.
   ... Converged in 16 steps (norm: 2.34421e-07)
------------------------------------
  Starting TPA DIIS iterations ... 
------------------------------------ 
   It     Res. Norm  Remark
------------------------------------
                       Guess.
    1     9.907e+00  
    2     1.737e+01  
    3     2.590e+00  
    4     1.049e+00  
    5     2.978e-01  
    6     1.398e-01  
    7     3.943e-02  
    8     7.229e-03  
    9     2.962e-03  
   10     5.057e-04  
   11     1.768e-04  
   12     2.917e-05  
   13     1.065e-05  
   14     3.348e-06  
   15     1.078e-06  
   16     2.372e-07  Converged.
   ... Converged in 16 steps (norm: 2.37237e-07)
------------------------------------
  Starting TPA DIIS iterations ... 
------------------------------------ 
   It     Res. Norm  Remark
------------------------------------
                       Guess.
    1     8.407e-01  
    2     7.508e-01  
    3     3.412e-01  
    4     3.051e-01  
    5     5.025e-02  
    6     2.313e-02  
    7     5.553e-03  
    8     2.030e-03  
    9     7.083e-04  
   10     7.176e-05  
   11     2.284e-05  
   12     1.131e-05  
   13     1.025e-05  
   14     2.019e-06  
   15     7.275e-07  Converged.
   ... Converged in 15 steps (norm: 7.27518e-07)
------------------------------------
  Starting TPA DIIS iterations ... 
------------------------------------ 
   It     Res. Norm  Remark
------------------------------------
                       Guess.
    1     1.145e+01  
    2     2.070e+01  
    3     2.989e+00  
    4     1.237e+00  
    5     3.474e-01  
    6     1.631e-01  
    7     4.668e-02  
    8     8.216e-03  
    9     3.413e-03  
   10     5.960e-04  
   11     2.057e-04  
   12     3.516e-05  
   13     1.236e-05  
   14     4.161e-06  
   15     1.381e-06  
   16     2.926e-07  Converged.
   ... Converged in 16 steps (norm: 2.92607e-07)
------------------------------------
  Starting TPA DIIS iterations ... 
------------------------------------ 
   It     Res. Norm  Remark
------------------------------------
                       Guess.
    1     1.088e+01  
    2     1.966e+01  
    3     2.844e+00  
    4     1.211e+00  
    5     3.465e-01  
    6     1.644e-01  
    7     4.598e-02  
    8     8.419e-03  
    9     3.479e-03  
   10     5.934e-04  
   11     2.062e-04  
   12     3.464e-05  
   13     1.256e-05  
   14     4.089e-06  
   15     1.371e-06  
   16     2.941e-07  Converged.
   ... Converged in 16 steps (norm: 2.94069e-07)
------------------------------------
  Starting TPA DIIS iterations ... 
------------------------------------ 
   It     Res. Norm  Remark
------------------------------------
                       Guess.
    1     8.571e-01  
    2     7.875e-01  
    3     3.669e-01  
    4     3.477e-01  
    5     5.637e-02  
    6     2.630e-02  
    7     6.577e-03  
    8     2.114e-03  
    9     7.932e-04  
   10     8.325e-05  
   11     2.686e-05  
   12     1.331e-05  
   13     1.267e-05  
   14     2.307e-06  
   15     7.903e-07  Converged.
   ... Converged in 15 steps (norm: 7.9032e-07)
------------------------------------
  Starting TPA DIIS iterations ... 
------------------------------------ 
   It     Res. Norm  Remark
------------------------------------
                       Guess.
    1     1.228e+01  
    2     2.270e+01  
    3     3.203e+00  
    4     1.375e+00  
    5     3.885e-01  
    6     1.837e-01  
    7     5.228e-02  
    8     9.187e-03  
    9     3.842e-03  
   10     6.703e-04  
   11     2.300e-04  
   12     3.997e-05  
   13     1.400e-05  
   14     4.829e-06  
   15     1.674e-06  
   16     3.455e-07  Converged.
   ... Converged in 16 steps (norm: 3.45479e-07)
------------------------------------
  Starting TPA DIIS iterations ... 
------------------------------------ 
   It     Res. Norm  Remark
------------------------------------
                       Guess.
    1     1.167e+01  
    2     2.156e+01  
    3     3.048e+00  
    4     1.345e+00  
    5     3.875e-01  
    6     1.852e-01  
    7     5.150e-02  
    8     9.420e-03  
    9     3.917e-03  
   10     6.673e-04  
   11     2.306e-04  
   12     3.937e-05  
   13     1.422e-05  
   14     4.736e-06  
   15     1.664e-06  
   16     3.434e-07  Converged.
   ... Converged in 16 steps (norm: 3.4335e-07)
------------------------------------
  Starting TPA DIIS iterations ... 
------------------------------------ 
   It     Res. Norm  Remark
------------------------------------
                       Guess.
    1     8.693e-01  
    2     8.161e-01  
    3     3.872e-01  
    4     3.801e-01  
    5     6.143e-02  
    6     2.882e-02  
    7     7.434e-03  
    8     2.160e-03  
    9     8.600e-04  
   10     9.316e-05  
   11     3.029e-05  
   12     1.502e-05  
   13     1.483e-05  
   14     2.532e-06  
   15     8.397e-07  Converged.
   ... Converged in 15 steps (norm: 8.39698e-07)
------------------------------------
  Two-photon absorbption ...  CPU 170.10 s  wall 45.57 s
  Transition density matrix of state singlet_A_1 printed to ASCII file 'State_singlet_A_1_Transition.txt'
  Transition density matrix of state singlet_A_2 printed to ASCII file 'State_singlet_A_2_Transition.txt'
  Transition density matrix of state singlet_A_3 printed to ASCII file 'State_singlet_A_3_Transition.txt'
  Transition density matrix of state singlet_A_4 printed to ASCII file 'State_singlet_A_4_Transition.txt'
  Transition density matrix of state singlet_A_5 printed to ASCII file 'State_singlet_A_5_Transition.txt'
  Transition density matrix of state singlet_A_6 printed to ASCII file 'State_singlet_A_6_Transition.txt'
  Transition density matrix of state singlet_A_7 printed to ASCII file 'State_singlet_A_7_Transition.txt'
  Transition density matrix of state singlet_A_8 printed to ASCII file 'State_singlet_A_8_Transition.txt'
  Transition density matrix of state singlet_A_9 printed to ASCII file 'State_singlet_A_9_Transition.txt'
  Transition density matrix of state singlet_A_10 printed to ASCII file 'State_singlet_A_10_Transition.txt'
  Transition properties ...  CPU 0.40 s  wall 0.70 s
  Difference density matrix of state singlet_A_1 printed to ASCII file 'State_singlet_A_1_Difference.txt'
  Total density matrix of state singlet_A_1 printed to ASCII file 'State_singlet_A_1_Total.txt'
  Difference density matrix of state singlet_A_2 printed to ASCII file 'State_singlet_A_2_Difference.txt'
  Total density matrix of state singlet_A_2 printed to ASCII file 'State_singlet_A_2_Total.txt'
  Difference density matrix of state singlet_A_3 printed to ASCII file 'State_singlet_A_3_Difference.txt'
  Total density matrix of state singlet_A_3 printed to ASCII file 'State_singlet_A_3_Total.txt'
  Difference density matrix of state singlet_A_4 printed to ASCII file 'State_singlet_A_4_Difference.txt'
  Total density matrix of state singlet_A_4 printed to ASCII file 'State_singlet_A_4_Total.txt'
  Difference density matrix of state singlet_A_5 printed to ASCII file 'State_singlet_A_5_Difference.txt'
  Total density matrix of state singlet_A_5 printed to ASCII file 'State_singlet_A_5_Total.txt'
  Difference density matrix of state singlet_A_6 printed to ASCII file 'State_singlet_A_6_Difference.txt'
  Total density matrix of state singlet_A_6 printed to ASCII file 'State_singlet_A_6_Total.txt'
  Difference density matrix of state singlet_A_7 printed to ASCII file 'State_singlet_A_7_Difference.txt'
  Total density matrix of state singlet_A_7 printed to ASCII file 'State_singlet_A_7_Total.txt'
  Difference density matrix of state singlet_A_8 printed to ASCII file 'State_singlet_A_8_Difference.txt'
  Total density matrix of state singlet_A_8 printed to ASCII file 'State_singlet_A_8_Total.txt'
  Difference density matrix of state singlet_A_9 printed to ASCII file 'State_singlet_A_9_Difference.txt'
  Total density matrix of state singlet_A_9 printed to ASCII file 'State_singlet_A_9_Total.txt'
  Difference density matrix of state singlet_A_10 printed to ASCII file 'State_singlet_A_10_Difference.txt'
  Total density matrix of state singlet_A_10 printed to ASCII file 'State_singlet_A_10_Total.txt'
  Properties ...  CPU 0.81 s  wall 1.05 s
  ISR TDMS ...  CPU 33.69 s  wall 10.32 s
  ISR transition properties ...  CPU 0.75 s  wall 0.32 s
  Sum-over-states TPA ...  CPU 0.00 s  wall 0.00 s

--------------------------------------------------------------------------------
                   State-averaged natural transition orbitals
--------------------------------------------------------------------------------
--------------------------------------------------------------------------------
  SA-NTO decomposition ...  CPU 0.01 s  wall 0.04 s

--------------------------------------------------------------------------------
                             Excited State Summary
--------------------------------------------------------------------------------
--------------------------------------------------------------------------------

  Excited state 1 (singlet, A)                                     [converged]
  ----------------------------------------------------------------------------
  Term symbol:  2 (1) A                                     R^2 =  4.65397e-10

  Total energy:                                            -78.0009360313 a.u.
  Excitation energy:                                               8.688788 eV

  Osc. strength:                                                      0.444140
  Trans. dip. moment [a.u.]:           [  -1.047335,    0.994695,    0.009709]
  <i|r^2|0> [a.u.]:                    [  -6.180294,    0.245478,   -0.000142]
  Two-photon absorption cross-section (SoS) [a.u.]:                   0.000000
  Two-photon absorption matrix (SoS) [a.u.]:
                                       |   -0.000036    0.000002   -0.000001 |
                                       |    0.000002   -0.000014   -0.000030 |
                                       |   -0.000001   -0.000030   -0.000020 |
  Two-photon absorption cross-section [a.u.]:                         0.000001
  Two-photon absorption matrix [a.u.]:
                                       |   -0.000020   -0.000014    0.000235 |
                                       |   -0.000014    0.000012    0.000191 |
                                       |    0.000235    0.000191    0.000037 |

  Dip. moment [a.u.]:                  [  -0.000004,    0.000000,    0.000020]
  Total dipole [Debye]:                                               0.000051
  <r^2> [a.u.]:                        [ 176.683502,   36.086594,   11.920361]
  Total <r^2> [a.u.]:                                               224.690457

  V1^2 = 0.9713, V2^2 = 0.0287

  Important amplitudes:
      occ i     occ j     vir a      vir b          v   
    -----------------------------------------------------
     8 (A) A              9 (A) A                -0.6809
     6 (A) A             14 (A) A                 0.0628
     4 (A) A             10 (A) A                -0.0611
     7 (A) A             16 (A) A                 0.0570
     5 (A) A             13 (A) A                 0.0524
     6 (A) A             23 (A) A                 0.0486
     8 (A) A             20 (A) A                -0.0350
     6 (A) A             19 (A) A                 0.0311
     3 (A) A             12 (A) A                 0.0286
     5 (A) A             22 (A) A                -0.0216
     7 (A) A             11 (A) A                -0.0192
     4 (A) A             24 (A) A                -0.0187
     3 (A) A             26 (A) A                -0.0186
     8 (A) A   8 (A) B   17 (A) A   20 (A) B      0.0184
     8 (A) A   8 (A) B    9 (A) A   28 (A) B      0.0169
     6 (A) A             26 (A) A                -0.0162
     7 (A) A             21 (A) A                 0.0152
     3 (A) A             14 (A) A                 0.0143
     3 (A) A   4 (A) B    9 (A) A    9 (A) B      0.0130
     6 (A) A             12 (A) A                -0.0127
     3 (A) A             19 (A) A                 0.0122
     8 (A) A   8 (A) B   18 (A) A   19 (A) B     -0.0111
     7 (A) A             32 (A) A                 0.0097
     7 (A) A             36 (A) A                 0.0085
     3 (A) A             23 (A) A                 0.0082
     8 (A) A   8 (A) B   25 (A) A   29 (A) B      0.0076
     6 (A) A             35 (A) A                -0.0071
     6 (A) A             40 (A) A                 0.0067
     3 (A) A   6 (A) B    9 (A) A   28 (A) B      0.0065
     5 (A) A   8 (A) B   11 (A) A    9 (A) B      0.0061
     6 (A) A   8 (A) A   19 (A) A   28 (A) A      0.0060
     5 (A) A   7 (A) B    9 (A) A    9 (A) B     -0.0060
     5 (A) A   8 (A) B   11 (A) A   20 (A) B     -0.0060
     7 (A) A   8 (A) B   13 (A) A   20 (A) B      0.0060
     5 (A) A             27 (A) A                -0.0059
     5 (A) A   8 (A) B   16 (A) A    9 (A) B      0.0059
     3 (A) A   5 (A) B    9 (A) A   25 (A) B      0.0058
     7 (A) A   8 (A) B   22 (A) A   20 (A) B     -0.0057
     3 (A) A             40 (A) A                 0.0056
     8 (A) A   8 (A) B   19 (A) A   30 (A) B     -0.0056
    -----------------------------------------------------

  Density matrix analysis:
  ------------------------
  NOs
    Occupation of frontier NOs:
       0.9490   1.0220
    Number of electrons: 16.000000
    Number of unpaired electrons: n_u =  2.31705, n_u,nl =  2.03345
    NO participation ratio (PR_NO):  2.875007
  
  
  Mulliken Population Analysis
  Atom      Charge (e)              h+              e-           Del q
  --------------------------------------------------------------------
   1 H        0.063007        0.020217       -0.012422        0.007795
   2 C       -0.126017        0.490336       -0.505927       -0.015591
   3 H        0.063017        0.020218       -0.012422        0.007797
   4 C       -0.126028        0.490335       -0.505929       -0.015593
   5 H        0.063016        0.020218       -0.012421        0.007797
   6 H        0.063005        0.020217       -0.012422        0.007796
  --------------------------------------------------------------------
  Sum:        0.000000        1.061543       -1.061543       -0.000000
  
  Multipole moment analysis of the density matrix
    Molecular charge:                      -0.000000
    Number of electrons:                   16.000000
      Center of electronic charge [Ang]: [ -1.561338,  -0.065287,   0.002126]
    Total nuclear charge:                  16.000000
      Center of nuclear charge [Ang]:    [ -1.561339,  -0.065287,   0.002127]
    Dipole moment [D]:                     0.000051
      Cartesian components [D]:          [ -0.000010,   0.000001,   0.000050]
    RMS size of the density [Ang]:         1.220835
      Cartesian components [Ang]:        [  0.809011,   0.792034,   0.456753]
  
  Exciton analysis of the difference density matrix
    <r_h> [Ang]:                  [ -1.561336,  -0.065287,   0.002119]
    <r_e> [Ang]:                  [ -1.561336,  -0.065287,   0.002117]
    |<r_e - r_h>| [Ang]:            0.000002
    Hole size [Ang]:                1.287939
      Cartesian components [Ang]: [  0.730526,   0.715057,   0.783463]
    Electron size [Ang]:            1.463664
      Cartesian components [Ang]: [  0.854472,   0.831799,   0.848705]

  Transition density matrix analysis:
  -----------------------------------
  
  CT numbers (Mulliken)
    omega =     0.9532
    <Phe> =    -0.1615
  
  Exciton analysis of the transition density matrix
    Trans. dipole moment [D]:             1.835707
      Cartesian components [D]:         [ -1.331030,   1.264131,   0.012339]
    <r_h> [Ang]:                        [ -1.561335,  -0.065289,   0.002120]
    <r_e> [Ang]:                        [ -1.561336,  -0.065287,   0.002116]
    |<r_e - r_h>| [Ang]:                  0.000005
    Hole size [Ang]:                      1.216306
      Cartesian components [Ang]:       [  0.651352,   0.638400,   0.804727]
    Electron size [Ang]:                  1.485905
      Cartesian components [Ang]:       [  0.864618,   0.840351,   0.868425]
    RMS electron-hole separation [Ang]:   1.938500
      Cartesian components [Ang]:       [  1.108156,   1.077538,   1.169908]
    Covariance(r_h, r_e) [Ang^2]:        -0.035234
    Correlation coefficient:             -0.019495
    Center-of-mass size [Ang]:            0.950901
      Cartesian components [Ang]:       [  0.528119,   0.516333,   0.598918]

  Decomposition into state-averaged NTOs
    H- 0 -> L+ 0:  0.6696 ( 89.7%)
    H- 2 -> L+ 5: -0.0840 (  1.4%)
    H- 5 -> L+ 6:  0.0707 (  1.0%)
                   omega =  95.3%
  ----------------------------------------------------------------------------


  Excited state 2 (singlet, A)                                     [converged]
  ----------------------------------------------------------------------------
  Term symbol:  3 (1) A                                     R^2 =  9.71492e-13

  Total energy:                                            -77.9911540040 a.u.
  Excitation energy:                                               8.954970 eV

  Osc. strength:                                                      0.000000
  Trans. dip. moment [a.u.]:           [   0.000455,   -0.000415,   -0.000010]
  <i|r^2|0> [a.u.]:                    [   0.068567,    0.086670,   -0.152657]
  Two-photon absorption cross-section (SoS) [a.u.]:                   4.710760
  Two-photon absorption matrix (SoS) [a.u.]:
                                       |    0.050727    0.058314   -0.522558 |
                                       |    0.058314    0.066560   -0.549543 |
                                       |   -0.522558   -0.549543   -0.117288 |
  Two-photon absorption cross-section [a.u.]:                         0.165533
  Two-photon absorption matrix [a.u.]:
                                       |   -0.008734   -0.010892    0.098005 |
                                       |   -0.010892   -0.013251    0.102958 |
                                       |    0.098005    0.102958    0.021985 |

  Dip. moment [a.u.]:                  [  -0.000047,    0.000055,    0.000037]
  Total dipole [Debye]:                                               0.000206
  <r^2> [a.u.]:                        [ 175.029403,   34.442624,   13.218574]
  Total <r^2> [a.u.]:                                               222.690601

  V1^2 = 0.9539, V2^2 = 0.0461

  Important amplitudes:
      occ i     occ j     vir a      vir b          v   
    -----------------------------------------------------
     7 (A) A              9 (A) A                 0.6683
     8 (A) A             11 (A) A                 0.1521
     7 (A) A             20 (A) A                 0.0755
     5 (A) A   8 (A) B    9 (A) A    9 (A) B      0.0317
     8 (A) A             16 (A) A                 0.0281
     8 (A) A             21 (A) A                -0.0179
     5 (A) A             28 (A) A                 0.0150
     4 (A) A   7 (A) B    9 (A) A   19 (A) B      0.0135
     5 (A) A   7 (A) B    9 (A) A   16 (A) B      0.0134
     7 (A) A   8 (A) B   20 (A) A   17 (A) B     -0.0105
     7 (A) A   8 (A) A    9 (A) A   28 (A) A      0.0098
     5 (A) A   8 (A) B    9 (A) A   20 (A) B      0.0095
     4 (A) A   6 (A) B    9 (A) A   16 (A) B      0.0091
     5 (A) A   6 (A) A    9 (A) A   23 (A) A      0.0090
     5 (A) A   6 (A) A    9 (A) A   14 (A) A      0.0090
     5 (A) A   6 (A) B    9 (A) A   19 (A) B      0.0087
     8 (A) A   7 (A) B    9 (A) A   28 (A) B     -0.0086
     4 (A) A   5 (A) A    9 (A) A   10 (A) A      0.0085
     6 (A) A   7 (A) B    9 (A) A   18 (A) B     -0.0084
     5 (A) A   6 (A) B    9 (A) A   23 (A) B      0.0080
     3 (A) A   7 (A) B    9 (A) A   18 (A) B      0.0080
     5 (A) A   7 (A) A    9 (A) A   16 (A) A      0.0078
     4 (A) A   8 (A) B    9 (A) A   25 (A) B      0.0076
     4 (A) A   7 (A) B   19 (A) A    9 (A) B      0.0075
     7 (A) A   8 (A) B   17 (A) A   20 (A) B     -0.0074
     5 (A) A   5 (A) B    9 (A) A   13 (A) B      0.0072
     7 (A) A   8 (A) B   19 (A) A   18 (A) B      0.0071
     5 (A) A   8 (A) A    9 (A) A   20 (A) A      0.0068
     4 (A) A   5 (A) B    9 (A) A   18 (A) B     -0.0068
     7 (A) A   8 (A) B   17 (A) A    9 (A) B     -0.0066
     7 (A) A   7 (A) B   20 (A) A   22 (A) B      0.0065
     5 (A) A   6 (A) B    9 (A) A   14 (A) B      0.0064
     5 (A) A   7 (A) B   11 (A) A   20 (A) B      0.0061
     4 (A) A   5 (A) B   10 (A) A    9 (A) B     -0.0061
     4 (A) A   7 (A) A    9 (A) A   19 (A) A      0.0061
     5 (A) A             38 (A) A                 0.0060
     4 (A) A   7 (A) B    9 (A) A   14 (A) B     -0.0058
     4 (A) A   8 (A) A    9 (A) A   25 (A) A      0.0057
     6 (A) A   7 (A) A   19 (A) A   28 (A) A     -0.0056
     5 (A) A   7 (A) A   11 (A) A   20 (A) A      0.0053
    -----------------------------------------------------

  Density matrix analysis:
  ------------------------
  NOs
    Occupation of frontier NOs:
       0.9557   1.0559
    Number of electrons: 16.000000
    Number of unpaired electrons: n_u =  2.35910, n_u,nl =  2.06543
    NO participation ratio (PR_NO):  3.049672
  
  
  Mulliken Population Analysis
  Atom      Charge (e)              h+              e-           Del q
  --------------------------------------------------------------------
   1 H        0.154930        0.124672       -0.024954        0.099718
   2 C       -0.309851        0.272823       -0.472248       -0.199425
   3 H        0.154914        0.124658       -0.024963        0.099694
   4 C       -0.309858        0.272841       -0.472264       -0.199424
   5 H        0.154928        0.124667       -0.024957        0.099709
   6 H        0.154937        0.124685       -0.024958        0.099727
  --------------------------------------------------------------------
  Sum:        0.000000        1.044344       -1.044344        0.000000
  
  Multipole moment analysis of the density matrix
    Molecular charge:                      0.000000
    Number of electrons:                   16.000000
      Center of electronic charge [Ang]: [ -1.561337,  -0.065288,   0.002126]
    Total nuclear charge:                  16.000000
      Center of nuclear charge [Ang]:    [ -1.561339,  -0.065287,   0.002127]
    Dipole moment [D]:                     0.000206
      Cartesian components [D]:          [ -0.000119,   0.000139,   0.000095]
    RMS size of the density [Ang]:         1.206417
      Cartesian components [Ang]:        [  0.790919,   0.773657,   0.480982]
  
  Exciton analysis of the difference density matrix
    <r_h> [Ang]:                  [ -1.561371,  -0.065262,   0.002129]
    <r_e> [Ang]:                  [ -1.561349,  -0.065289,   0.002118]
    |<r_e - r_h>| [Ang]:            0.000036
    Hole size [Ang]:                1.495879
      Cartesian components [Ang]: [  1.013662,   1.001018,   0.456187]
    Electron size [Ang]:            1.480867
      Cartesian components [Ang]: [  0.885291,   0.863006,   0.815136]

  Transition density matrix analysis:
  -----------------------------------
  
  CT numbers (Mulliken)
    omega =     0.9210
    <Phe> =    -0.0115
  
  Exciton analysis of the transition density matrix
    Trans. dipole moment [D]:             0.000782
      Cartesian components [D]:         [  0.000578,  -0.000527,  -0.000013]
    <r_h> [Ang]:                        [ -1.561376,  -0.065257,   0.002131]
    <r_e> [Ang]:                        [ -1.561345,  -0.065292,   0.002116]
    |<r_e - r_h>| [Ang]:                  0.000049
    Hole size [Ang]:                      1.526507
      Cartesian components [Ang]:       [  1.038265,   1.025591,   0.447652]
    Electron size [Ang]:                  1.476314
      Cartesian components [Ang]:       [  0.874325,   0.851265,   0.830908]
    RMS electron-hole separation [Ang]:   2.103678
      Cartesian components [Ang]:       [  1.341379,   1.317884,   0.943051]
    Covariance(r_h, r_e) [Ang^2]:         0.042133
    Correlation coefficient:              0.018696
    Center-of-mass size [Ang]:            1.071680
      Cartesian components [Ang]:       [  0.686582,   0.673825,   0.472296]

  Decomposition into state-averaged NTOs
    H- 1 -> L+ 0: -0.6605 ( 87.2%)
    H- 0 -> L+ 2: -0.1520 (  4.6%)
                   omega =  92.1%
  ----------------------------------------------------------------------------


  Excited state 3 (singlet, A)                                     [converged]
  ----------------------------------------------------------------------------
  Term symbol:  4 (1) A                                     R^2 =  1.40828e-11

  Total energy:                                            -77.9852146830 a.u.
  Excitation energy:                                               9.116587 eV

  Osc. strength:                                                      0.023604
  Trans. dip. moment [a.u.]:           [  -0.015440,   -0.019701,    0.324123]
  <i|r^2|0> [a.u.]:                    [  -0.090896,   -0.005052,   -0.002615]
  Two-photon absorption cross-section (SoS) [a.u.]:                   0.000015
  Two-photon absorption matrix (SoS) [a.u.]:
                                       |    0.001322    0.000069    0.000146 |
                                       |    0.000069   -0.001389   -0.000033 |
                                       |    0.000146   -0.000033   -0.000134 |
  Two-photon absorption cross-section [a.u.]:                         0.000008
  Two-photon absorption matrix [a.u.]:
                                       |    0.000893    0.000072    0.000132 |
                                       |    0.000072   -0.001063   -0.000037 |
                                       |    0.000132   -0.000037   -0.000079 |

  Dip. moment [a.u.]:                  [   0.000033,    0.000051,   -0.000017]
  Total dipole [Debye]:                                               0.000159
  <r^2> [a.u.]:                        [ 181.455319,   41.071372,   11.061562]
  Total <r^2> [a.u.]:                                               233.588253

  V1^2 = 0.9581, V2^2 = 0.0419

  Important amplitudes:
      occ i     occ j     vir a      vir b          v   
    -----------------------------------------------------
     8 (A) A             10 (A) A                -0.6888
     8 (A) A             24 (A) A                -0.0508
     8 (A) A             18 (A) A                 0.0331
     4 (A) A              9 (A) A                -0.0247
     8 (A) A   8 (A) B    9 (A) A   12 (A) B      0.0224
     8 (A) A   8 (A) B   10 (A) A   17 (A) B     -0.0171
     5 (A) A   8 (A) B   11 (A) A   10 (A) B      0.0168
     8 (A) A             15 (A) A                -0.0154
     7 (A) A   8 (A) B   13 (A) A   10 (A) B     -0.0143
     4 (A) A   8 (A) B   12 (A) A   10 (A) B      0.0112
     6 (A) A   8 (A) A   10 (A) A   15 (A) A      0.0111
     7 (A) A   8 (A) B   22 (A) A   10 (A) B      0.0109
     6 (A) A   8 (A) B   15 (A) A   10 (A) B     -0.0108
     4 (A) A   8 (A) A   10 (A) A   12 (A) A     -0.0108
     7 (A) A   8 (A) A   10 (A) A   22 (A) A     -0.0099
     7 (A) A   8 (A) A   10 (A) A   13 (A) A      0.0098
     5 (A) A   8 (A) A   10 (A) A   11 (A) A     -0.0096
     5 (A) A   8 (A) B   21 (A) A   10 (A) B     -0.0093
     6 (A) A   8 (A) B   10 (A) A   10 (A) B      0.0089
     6 (A) A   8 (A) A   10 (A) A   18 (A) A      0.0087
     7 (A) A   8 (A) A   12 (A) A   16 (A) A     -0.0083
     3 (A) A   4 (A) B   10 (A) A    9 (A) B      0.0080
     5 (A) A   8 (A) A   10 (A) A   21 (A) A      0.0079
     8 (A) A   8 (A) B    9 (A) A   23 (A) B     -0.0076
     4 (A) A   8 (A) B   19 (A) A   10 (A) B      0.0075
     8 (A) A   8 (A) B   10 (A) A   28 (A) B      0.0074
     5 (A) A   8 (A) B   10 (A) A   11 (A) B      0.0072
     3 (A) A   8 (A) A   10 (A) A   24 (A) A      0.0072
     7 (A) A   8 (A) B   16 (A) A   12 (A) B      0.0072
     3 (A) A   8 (A) B   10 (A) A   10 (A) B     -0.0072
     8 (A) A   8 (A) B    9 (A) A   19 (A) B      0.0070
     3 (A) A   8 (A) B   10 (A) A   18 (A) B      0.0068
     6 (A) A   8 (A) B   18 (A) A   10 (A) B     -0.0066
     3 (A) A   6 (A) B   10 (A) A   28 (A) B      0.0062
     7 (A) A   8 (A) B   12 (A) A   11 (A) B      0.0059
     6 (A) A             28 (A) A                -0.0058
     5 (A) A   8 (A) A   10 (A) A   16 (A) A     -0.0057
     3 (A) A   5 (A) B   10 (A) A   25 (A) B      0.0056
     6 (A) A   8 (A) A   11 (A) A   16 (A) A     -0.0055
     4 (A) A   8 (A) A   10 (A) A   23 (A) A      0.0055
    -----------------------------------------------------

  Density matrix analysis:
  ------------------------
  NOs
    Occupation of frontier NOs:
       0.9811   0.9846
    Number of electrons: 16.000000
    Number of unpaired electrons: n_u =  2.28873, n_u,nl =  2.02508
    NO participation ratio (PR_NO):  2.701831
  
  
  Mulliken Population Analysis
  Atom      Charge (e)              h+              e-           Del q
  --------------------------------------------------------------------
   1 H       -0.154860        0.054148       -0.264220       -0.210072
   2 C        0.309722        0.537965       -0.117818        0.420147
   3 H       -0.154860        0.054149       -0.264229       -0.210081
   4 C        0.309713        0.537961       -0.117813        0.420148
   5 H       -0.154844        0.054150       -0.264212       -0.210063
   6 H       -0.154870        0.054148       -0.264228       -0.210080
  --------------------------------------------------------------------
  Sum:        0.000000        1.292519       -1.292519        0.000000
  
  Multipole moment analysis of the density matrix
    Molecular charge:                      0.000000
    Number of electrons:                   16.000000
      Center of electronic charge [Ang]: [ -1.561340,  -0.065288,   0.002128]
    Total nuclear charge:                  16.000000
      Center of nuclear charge [Ang]:    [ -1.561339,  -0.065287,   0.002127]
    Dipole moment [D]:                     0.000159
      Cartesian components [D]:          [  0.000083,   0.000129,  -0.000042]
    RMS size of the density [Ang]:         1.283028
      Cartesian components [Ang]:        [  0.859075,   0.845316,   0.439991]
  
  Exciton analysis of the difference density matrix
    <r_h> [Ang]:                  [ -1.561337,  -0.065288,   0.002122]
    <r_e> [Ang]:                  [ -1.561352,  -0.065308,   0.002136]
    |<r_e - r_h>| [Ang]:            0.000028
    Hole size [Ang]:                1.413916
      Cartesian components [Ang]: [  0.837119,   0.823200,   0.787866]
    Electron size [Ang]:            2.079414
      Cartesian components [Ang]: [  1.376916,   1.380556,   0.722585]

  Transition density matrix analysis:
  -----------------------------------
  
  CT numbers (Mulliken)
    omega =     0.9249
    <Phe> =    -0.0109
  
  Exciton analysis of the transition density matrix
    Trans. dipole moment [D]:             0.413146
      Cartesian components [D]:         [ -0.019623,  -0.025037,   0.411920]
    <r_h> [Ang]:                        [ -1.561334,  -0.065288,   0.002118]
    <r_e> [Ang]:                        [ -1.561357,  -0.065316,   0.002139]
    |<r_e - r_h>| [Ang]:                  0.000042
    Hole size [Ang]:                      1.214850
      Cartesian components [Ang]:       [  0.637862,   0.625232,   0.823455]
    Electron size [Ang]:                  2.301143
      Cartesian components [Ang]:       [  1.522805,   1.529157,   0.798753]
    RMS electron-hole separation [Ang]:   2.591943
      Cartesian components [Ang]:       [  1.643277,   1.644819,   1.145591]
    Covariance(r_h, r_e) [Ang^2]:         0.026476
    Correlation coefficient:              0.009471
    Center-of-mass size [Ang]:            1.306146
      Cartesian components [Ang]:       [  0.829344,   0.829615,   0.574410]

  Decomposition into state-averaged NTOs
    H- 0 -> L+ 1: -0.6794 ( 92.3%)
                   omega =  92.5%
  ----------------------------------------------------------------------------


  Excited state 4 (singlet, A)                                     [converged]
  ----------------------------------------------------------------------------
  Term symbol:  5 (1) A                                     R^2 =  2.50477e-12

  Total energy:                                            -77.9625112678 a.u.
  Excitation energy:                                               9.734379 eV

  Osc. strength:                                                      0.000000
  Trans. dip. moment [a.u.]:           [  -0.000159,    0.000148,    0.000006]
  <i|r^2|0> [a.u.]:                    [   0.013017,    0.018482,   -0.032399]
  Two-photon absorption cross-section (SoS) [a.u.]:                 137.235857
  Two-photon absorption matrix (SoS) [a.u.]:
                                       |    0.273310    0.314727   -2.820767 |
                                       |    0.314727    0.359740   -2.965850 |
                                       |   -2.820767   -2.965850   -0.633051 |
  Two-photon absorption cross-section [a.u.]:                        82.536643
  Two-photon absorption matrix [a.u.]:
                                       |    0.212517    0.244103   -2.187446 |
                                       |    0.244103    0.278424   -2.300157 |
                                       |   -2.187446   -2.300157   -0.490942 |

  Dip. moment [a.u.]:                  [  -0.000053,   -0.000045,   -0.000028]
  Total dipole [Debye]:                                               0.000190
  <r^2> [a.u.]:                        [ 181.584545,   41.094581,   10.798684]
  Total <r^2> [a.u.]:                                               233.477810

  V1^2 = 0.9633, V2^2 = 0.0367

  Important amplitudes:
      occ i     occ j     vir a      vir b          v   
    -----------------------------------------------------
     8 (A) A             11 (A) A                 0.6686
     7 (A) A              9 (A) A                -0.1542
     8 (A) A             21 (A) A                -0.0779
     8 (A) A             16 (A) A                 0.0669
     8 (A) A   8 (A) B    9 (A) A   13 (A) B      0.0168
     5 (A) A   8 (A) B   11 (A) A   11 (A) B     -0.0156
     7 (A) A             20 (A) A                -0.0141
     8 (A) A   8 (A) B   11 (A) A   17 (A) B      0.0137
     7 (A) A   8 (A) B   13 (A) A   11 (A) B      0.0127
     4 (A) A   8 (A) B   12 (A) A   11 (A) B     -0.0110
     8 (A) A   8 (A) B    9 (A) A   22 (A) B     -0.0110
     5 (A) A   8 (A) A   11 (A) A   21 (A) A     -0.0109
     7 (A) A   8 (A) A   11 (A) A   22 (A) A      0.0095
     6 (A) A   8 (A) B   10 (A) A   11 (A) B     -0.0091
     6 (A) A   8 (A) B   15 (A) A   11 (A) B      0.0089
     7 (A) A   8 (A) B   22 (A) A   11 (A) B     -0.0088
     3 (A) A   4 (A) B   11 (A) A    9 (A) B     -0.0084
     3 (A) A   8 (A) B   11 (A) A   18 (A) B     -0.0080
     6 (A) A   8 (A) A   11 (A) A   15 (A) A     -0.0079
     7 (A) A   8 (A) A   13 (A) A   16 (A) A     -0.0079
     7 (A) A   8 (A) A   11 (A) A   13 (A) A     -0.0075
     4 (A) A   8 (A) B   19 (A) A   11 (A) B     -0.0070
     5 (A) A   8 (A) B    9 (A) A    9 (A) B     -0.0070
     5 (A) A   8 (A) B   21 (A) A   11 (A) B      0.0069
     4 (A) A   8 (A) A   11 (A) A   12 (A) A      0.0062
     6 (A) A   8 (A) A   11 (A) A   18 (A) A     -0.0060
     3 (A) A   6 (A) B   11 (A) A   28 (A) B     -0.0060
     6 (A) A   8 (A) B   18 (A) A   11 (A) B      0.0059
     7 (A) A   8 (A) B   16 (A) A   13 (A) B      0.0057
     3 (A) A   8 (A) B   11 (A) A   30 (A) B     -0.0056
     5 (A) A   8 (A) B   10 (A) A   10 (A) B     -0.0056
     7 (A) A   8 (A) B   12 (A) A   10 (A) B     -0.0055
     6 (A) A   8 (A) B   11 (A) A   10 (A) B     -0.0055
     8 (A) A   8 (A) B   20 (A) A   22 (A) B     -0.0054
     3 (A) A   8 (A) A   11 (A) A   18 (A) A     -0.0054
     3 (A) A   5 (A) B   11 (A) A   25 (A) B     -0.0054
     3 (A) A   8 (A) A   11 (A) A   24 (A) A     -0.0053
     5 (A) A   8 (A) A   11 (A) A   16 (A) A      0.0049
     6 (A) A   8 (A) A   10 (A) A   16 (A) A      0.0047
     8 (A) A   8 (A) B   11 (A) A   28 (A) B     -0.0043
    -----------------------------------------------------

  Density matrix analysis:
  ------------------------
  NOs
    Occupation of frontier NOs:
       0.9381   1.0299
    Number of electrons: 16.000000
    Number of unpaired electrons: n_u =  2.32285, n_u,nl =  2.05151
    NO participation ratio (PR_NO):  2.936526
  
  
  Mulliken Population Analysis
  Atom      Charge (e)              h+              e-           Del q
  --------------------------------------------------------------------
   1 H       -0.125713        0.046109       -0.227034       -0.180925
   2 C        0.251678        0.494876       -0.132772        0.362103
   3 H       -0.125962        0.046097       -0.227279       -0.181182
   4 C        0.251663        0.494876       -0.132778        0.362098
   5 H       -0.125975        0.046098       -0.227292       -0.181194
   6 H       -0.125691        0.046110       -0.227011       -0.180901
  --------------------------------------------------------------------
  Sum:        0.000000        1.174165       -1.174165        0.000000
  
  Multipole moment analysis of the density matrix
    Molecular charge:                      0.000000
    Number of electrons:                   16.000000
      Center of electronic charge [Ang]: [ -1.561337,  -0.065285,   0.002128]
    Total nuclear charge:                  16.000000
      Center of nuclear charge [Ang]:    [ -1.561339,  -0.065287,   0.002127]
    Dipole moment [D]:                     0.000190
      Cartesian components [D]:          [ -0.000134,  -0.000115,  -0.000070]
    RMS size of the density [Ang]:         1.282279
      Cartesian components [Ang]:        [  0.860395,   0.845557,   0.434732]
  
  Exciton analysis of the difference density matrix
    <r_h> [Ang]:                  [ -1.561337,  -0.065285,   0.002122]
    <r_e> [Ang]:                  [ -1.561315,  -0.065263,   0.002141]
    |<r_e - r_h>| [Ang]:            0.000036
    Hole size [Ang]:                1.396797
      Cartesian components [Ang]: [  0.820935,   0.807632,   0.790467]
    Electron size [Ang]:            2.117538
      Cartesian components [Ang]: [  1.421433,   1.417708,   0.673499]

  Transition density matrix analysis:
  -----------------------------------
  
  CT numbers (Mulliken)
    omega =     0.9291
    <Phe> =    -0.0144
  
  Exciton analysis of the transition density matrix
    Trans. dipole moment [D]:             0.000276
      Cartesian components [D]:         [ -0.000202,   0.000188,   0.000008]
    <r_h> [Ang]:                        [ -1.561338,  -0.065286,   0.002119]
    <r_e> [Ang]:                        [ -1.561312,  -0.065258,   0.002144]
    |<r_e - r_h>| [Ang]:                  0.000046
    Hole size [Ang]:                      1.231320
      Cartesian components [Ang]:       [  0.663680,   0.651146,   0.807271]
    Electron size [Ang]:                  2.251047
      Cartesian components [Ang]:       [  1.510853,   1.508191,   0.714069]
    RMS electron-hole separation [Ang]:   2.554649
      Cartesian components [Ang]:       [  1.641329,   1.634543,   1.077286]
    Covariance(r_h, r_e) [Ang^2]:         0.028564
    Correlation coefficient:              0.010305
    Center-of-mass size [Ang]:            1.288457
      Cartesian components [Ang]:       [  0.829508,   0.825460,   0.539124]

  Decomposition into state-averaged NTOs
    H- 0 -> L+ 2: -0.6639 ( 88.2%)
    H- 1 -> L+ 0:  0.1521 (  4.6%)
                   omega =  92.9%
  ----------------------------------------------------------------------------


  Excited state 5 (singlet, A)                                     [converged]
  ----------------------------------------------------------------------------
  Term symbol:  6 (1) A                                     R^2 =  4.76533e-11

  Total energy:                                            -77.9480441222 a.u.
  Excitation energy:                                              10.128050 eV

  Osc. strength:                                                      0.000000
  Trans. dip. moment [a.u.]:           [  -0.000029,   -0.000020,    0.000002]
  <i|r^2|0> [a.u.]:                    [   0.083468,   -0.099828,    0.016249]
  Two-photon absorption cross-section (SoS) [a.u.]:                 206.264470
  Two-photon absorption matrix (SoS) [a.u.]:
                                       |    0.353554    0.053902   -3.673597 |
                                       |    0.053902   -0.420281    3.483058 |
                                       |   -3.673597    3.483058    0.068255 |
  Two-photon absorption cross-section [a.u.]:                       101.035269
  Two-photon absorption matrix [a.u.]:
                                       |    0.247970    0.038053   -2.571108 |
                                       |    0.038053   -0.293588    2.437701 |
                                       |   -2.571108    2.437701    0.047641 |

  Dip. moment [a.u.]:                  [   0.000034,   -0.000052,    0.000001]
  Total dipole [Debye]:                                               0.000159
  <r^2> [a.u.]:                        [ 180.035332,   39.419128,   11.718553]
  Total <r^2> [a.u.]:                                               231.173013

  V1^2 = 0.9559, V2^2 = 0.0441

  Important amplitudes:
      occ i     occ j     vir a      vir b          v   
    -----------------------------------------------------
     8 (A) A             12 (A) A                -0.5474
     6 (A) A              9 (A) A                -0.4132
     6 (A) A             20 (A) A                -0.0562
     8 (A) A             19 (A) A                -0.0515
     8 (A) A             23 (A) A                 0.0283
     8 (A) A   8 (A) B    9 (A) A   10 (A) B      0.0198
     3 (A) A              9 (A) A                -0.0188
     8 (A) A             26 (A) A                 0.0175
     4 (A) A   8 (A) B    9 (A) A    9 (A) B     -0.0166
     5 (A) A   8 (A) B   11 (A) A   12 (A) B      0.0143
     8 (A) A   8 (A) B   12 (A) A   17 (A) B     -0.0127
     7 (A) A   8 (A) B   13 (A) A   12 (A) B     -0.0124
     4 (A) A   8 (A) B   12 (A) A   12 (A) B      0.0119
     5 (A) A   8 (A) A   11 (A) A   12 (A) A      0.0104
     6 (A) A   8 (A) B   15 (A) A   12 (A) B     -0.0097
     3 (A) A             20 (A) A                -0.0093
     7 (A) A   8 (A) B   22 (A) A   12 (A) B      0.0090
[...]
    16   -1.436283946096e-03
    17   -1.745266550112e-03
    18    1.389170979130e-04
    19   -2.965388956025e-03
    20    1.176918830818e-02
    21    9.274346983860e-01
    22   -5.444774936485e-04
    23    1.375229361593e-02
    24    8.062001143204e-04
    25    7.044538789063e-02
    26   -5.259084259715e-02
    27   -1.383410505285e+00
    28    9.953879767841e-02
    29   -9.452976758707e-02
    30   -9.602085430236e-04
    31    3.829397112332e-01
    32   -3.636677855511e-01
    33   -3.695354422033e-03
    34    1.510947769854e-02
    35   -1.433973698201e-03
    36   -1.744067762034e-03
    37    1.390743993381e-04
    38   -2.964709864382e-03
    39    1.176481774760e-02
    40    9.274316599283e-01
    41    5.441968945497e-04
    42   -1.375207280753e-02
    43   -8.057448500649e-04
    44    1.176942936355e-02
    45    9.274420696331e-01
    46    1.376875679226e-02
    47    1.599376930540e-04
    48    6.690220285710e-04
Sym=X
Ene= 0.231377
Spin=Alpha
Occup=0
     1   -2.904303008918e-02
     2   -1.170451117847e+00
     3    1.305097384252e-02
     4    3.567299907478e-03
     5    8.425556034403e-04
     6    6.021941948171e-05
     7   -6.332195845576e-05
     8   -9.565495745264e-04
     9    1.542490982075e-01
    10    1.623209779644e-01
    11    1.722757869238e-02
    12    5.322607896203e-01
    13    5.602233337788e-01
    14    5.946047157705e-02
    15    1.237539526580e-05
    16   -5.100040068749e-05
    17    4.995302741948e-05
    18   -9.399253065033e-04
    19   -5.515941523009e-05
    20    2.907601009148e-02
    21    1.171846354553e+00
    22    2.909636264882e-03
    23    1.322752024642e-02
    24    9.400758791026e-04
    25   -6.160014312890e-05
    26    6.444049228087e-05
    27    9.912017428477e-04
    28    1.542469061104e-01
    29    1.623266408401e-01
    30    1.720061986648e-02
    31    5.322216135210e-01
    32    5.602145891562e-01
    33    5.934940674721e-02
    34   -1.239671102754e-05
    35    5.261208804929e-05
    36   -5.072367846421e-05
    37    9.385147074816e-04
    38    5.503726955362e-05
    39   -2.907621287538e-02
    40   -1.171828360593e+00
    41    2.909463876083e-03
    42    1.322772222690e-02
    43    9.386204410464e-04
    44    2.904287207232e-02
    45    1.170388872732e+00
    46    1.305063431913e-02
    47    3.567056772380e-03
    48    8.409626418765e-04
Sym=X
Ene= 0.236578
Spin=Alpha
Occup=0
     1    1.937461886996e-02
     2    1.072815693771e+00
     3   -1.592488408478e-02
     4   -9.184449635300e-03
     5   -1.319425009846e-03
     6    8.730544647222e-02
     7   -8.233490475126e-02
     8   -1.552775000245e+00
     9   -5.848486378650e-02
    10    5.533121732713e-02
    11    5.383552366034e-04
    12   -2.372754358775e-01
    13    2.245723762508e-01
    14    2.178034850997e-03
    15    2.130015071855e-02
    16   -2.511512713358e-03
    17   -2.883042026524e-03
    18    6.168663908442e-04
    19   -1.248072796123e-02
    20    1.934480938460e-02
    21    1.071144693800e+00
    22    8.361164016789e-03
    23    1.634396933793e-02
    24    1.389595541658e-03
    25   -8.730417697324e-02
    26    8.233147988191e-02
    27    1.552766931408e+00
    28   -5.848581841504e-02
    29    5.533359952131e-02
    30    5.525464083398e-04
    31   -2.372735211400e-01
    32    2.245951004564e-01
    33    2.236488630983e-03
    34   -2.130022233106e-02
    35    2.509199287782e-03
    36    2.883312154983e-03
    37   -6.178757493875e-04
    38    1.248030322614e-02
    39   -1.934430533578e-02
    40   -1.071161146065e+00
    41    8.361633206264e-03
    42    1.634427671051e-02
    43    1.390094953221e-03
    44   -1.937341201034e-02
    45   -1.072786492284e+00
    46   -1.592415576016e-02
    47   -9.185409333007e-03
    48   -1.318075542233e-03
Sym=X
Ene= 0.302642
Spin=Alpha
Occup=0
     1   -2.068814607890e-02
     2    1.658191665020e+00
     3   -2.342508048921e-02
     4    2.722076312302e-04
     5   -1.109887509395e-03
     6    1.094725784934e-08
     7   -2.744275966887e-06
     8    9.414418008878e-06
     9   -1.356000919110e-01
    10   -1.426410484299e-01
    11   -1.513682243628e-02
    12   -1.122479797557e+00
    13   -1.180672188229e+00
    14   -1.252585042282e-01
    15    3.186051011609e-05
    16   -1.732592933217e-03
    17    1.963269379328e-03
    18   -3.388039500033e-02
    19   -1.731523164844e-03
    20    2.068713929067e-02
    21   -1.658187859306e+00
    22    1.466803708953e-03
    23   -2.336913960322e-02
    24   -1.341063573946e-03
    25    1.680831042481e-06
    26   -2.110897710477e-06
    27   -5.651015435544e-05
    28    1.356051006696e-01
    29    1.426455778682e-01
    30    1.512258784350e-02
    31    1.122452548560e+00
    32    1.180690099186e+00
    33    1.252093589905e-01
    34    3.340904576844e-05
    35   -1.729734796304e-03
    36    1.964585571449e-03
    37   -3.387894571888e-02
    38   -1.732415563652e-03
    39    2.068315654645e-02
    40   -1.658182187002e+00
    41   -1.467801293744e-03
    42    2.336858579654e-02
    43    1.340586077802e-03
    44   -2.068330192427e-02
    45    1.658220440693e+00
    46    2.342575254921e-02
    47   -2.725350152388e-04
    48    1.108157489897e-03
Sym=X
Ene= 0.461402
Spin=Alpha
Occup=0
     1   -1.146306598576e-01
     2   -6.949120579755e-01
     3   -1.465293216690e-02
     4   -1.034604316624e-02
     5   -1.329788140532e-03
     6    6.246045518714e-02
     7    1.593552365509e-02
     8   -3.572108347458e+00
     9    1.058024891106e-01
    10   -1.004766857476e-01
    11   -1.006020784096e-03
    12    2.408750382531e+00
    13   -2.287669639297e+00
    14   -2.235856821968e-02
    15    5.229868052640e-02
    16   -3.246934736413e-03
    17   -4.502083699786e-03
    18   -1.044238825586e-03
    19    1.947341767522e-02
    20   -1.146029382351e-01
    21   -6.949319566664e-01
    22    9.594855170313e-03
    23    1.515149599820e-02
    24    1.376672853896e-03
    25   -6.246155213160e-02
    26   -1.592865296588e-02
    27    3.572113363152e+00
    28    1.058159958829e-01
    29   -1.004851836346e-01
    30   -1.013821410716e-03
    31    2.408731878342e+00
    32   -2.287635439547e+00
    33   -2.239230873719e-02
    34   -5.229389136128e-02
    35    3.242448856704e-03
    36    4.495953356389e-03
    37    1.043500218632e-03
    38   -1.947954239902e-02
    39    1.145674162408e-01
    40    6.949652409829e-01
    41    9.594074502149e-03
    42    1.515067894500e-02
    43    1.374649769026e-03
    44    1.146013758235e-01
    45    6.949358998502e-01
    46   -1.465163319390e-02
    47   -1.034385184899e-02
    48   -1.328330863492e-03
Sym=X
Ene= 0.580374
Spin=Alpha
Occup=0
     1    2.435159925130e-01
     2    4.475973975769e-02
     3   -2.135556082307e-02
     4    2.707892481639e-02
     5    6.105280945428e-04
     6   -5.658363979746e-03
     7   -1.637824805025e-01
     8   -4.223460103661e-01
     9    3.042779855287e-01
    10   -2.889608532918e-01
    11   -2.825986653628e-03
    12   -7.445502226655e-01
    13    7.070179626098e-01
    14    6.962692474230e-03
    15   -2.982711761336e-03
    16    3.817238606916e-03
    17    3.466703698049e-03
    18   -3.123604787075e-03
    19    6.125366833715e-02
    20    2.435072523451e-01
    21    4.476453492328e-02
    22   -2.814613202435e-02
    23    1.993629023356e-02
    24   -1.472919604615e-04
    25   -5.666185519798e-03
    26   -1.637866245980e-01
    27   -4.219939421683e-01
    28   -3.042689166738e-01
    29    2.889430140339e-01
    30    2.824104295756e-03
    31    7.448156043519e-01
    32   -7.072352912909e-01
    33   -6.970905947928e-03
    34   -2.982204408914e-03
    35    3.817139161692e-03
    36    3.466057401388e-03
    37   -3.117254186037e-03
    38    6.125392177737e-02
    39    2.434667436779e-01
    40    4.489278501692e-02
    41    2.815250354558e-02
    42   -1.994150570098e-02
    43    1.463057158857e-04
    44    2.435357362009e-01
    45    4.484629283294e-02
    46    2.135494770414e-02
    47   -2.707972196166e-02
    48   -6.111799533422e-04
Sym=X
Ene= 0.609339
Spin=Alpha
Occup=0
     1   -5.186897260533e-01
     2    2.381030286150e-01
     3   -5.943774018960e-02
     4    3.723925013350e-02
     5   -6.040013050662e-04
     6    3.418473205364e-06
     7   -1.447376416418e-05
     8    1.987432481762e-04
     9   -3.651831673097e-02
    10   -3.841555867232e-02
    11   -4.070401321504e-03
    12    2.659462692169e-01
    13    2.798858947747e-01
    14    2.971060863674e-02
    15    1.213629875191e-04
    16   -7.593163730332e-03
    17    8.607160781660e-03
    18   -1.485237289586e-01
    19   -7.596293724466e-03
    20    5.187667134811e-01
    21   -2.381600706362e-01
    22    4.024047848427e-02
    23   -5.743768363811e-02
    24   -1.536393899232e-03
    25   -4.190297664531e-06
    26    1.475948405777e-05
    27   -1.505452429068e-04
    28   -3.650676637673e-02
    29   -3.842920492518e-02
    30   -4.078974238989e-03
    31    2.659132160940e-01
    32    2.799497934847e-01
    33    2.965280276717e-02
    34   -1.197013115700e-04
    35    7.586159810668e-03
    36   -8.612766586660e-03
    37    1.485320535697e-01
    38    7.594670721169e-03
    39   -5.188148762146e-01
    40    2.381949303363e-01
    41    4.023524018889e-02
    42   -5.743795391148e-02
    43   -1.540383350241e-03
    44    5.186851862602e-01
    45   -2.381437095905e-01
    46   -5.943937872570e-02
    47    3.723993124320e-02
    48   -6.038849715679e-04
Sym=X
Ene= 0.689726
Spin=Alpha
Occup=0
     1    4.590044587727e-05
     2    2.992453230938e-05
     3    9.189880186012e-04
     4    1.161783269637e-03
     5   -1.910915134401e-02
     6    2.667067783939e-06
     7   -2.504558945267e-06
     8    4.717690640252e-05
     9    3.227989749873e-02
    10    4.060570049130e-02
    11   -6.719005009774e-01
    12   -2.955219361605e-02
    13   -3.694306195300e-02
    14    6.128461727155e-01
    15   -1.331794124478e-03
    16    8.250252920882e-02
    17   -7.827191031487e-02
    18   -8.688066767138e-03
    19   -1.205315367976e-03
    20    4.044751003140e-05
    21    5.519983183501e-05
    22    9.144287988559e-04
    23    1.155262483924e-03
    24   -1.910501169059e-02
    25   -6.971031366810e-07
    26    3.298112922702e-05
    27   -6.973336113456e-05
    28    3.226241419842e-02
    29    4.057045855079e-02
    30   -6.719024582775e-01
    31   -2.952387215446e-02
    32   -3.690206713154e-02
    33    6.128475471070e-01
    34    1.320218278005e-03
    35   -8.250128260073e-02
    36    7.827323649791e-02
    37    8.696847370585e-03
    38    1.210060340726e-03
    39   -1.915508000783e-05
    40   -4.860490379877e-05
    41    9.123525026106e-04
    42    1.160439221889e-03
    43   -1.910465745753e-02
    44   -1.369258205482e-05
    45   -7.389384058299e-05
    46    9.086978276211e-04
    47    1.154964944157e-03
    48   -1.910986144594e-02
Sym=X
Ene= 0.704799
Spin=Alpha
Occup=0
     1   -4.845610197487e-01
     2    1.651063062152e-01
     3   -7.867802684781e-02
     4   -4.411918559450e-02
     5   -6.451103710097e-03
     6   -4.607290264336e-02
     7   -3.029251635209e-01
     8    4.566702924611e-01
     9    2.001584080244e-01
    10   -1.901296476322e-01
    11   -1.891125766637e-03
    12   -6.722371786296e-02
    13    6.399427117960e-02
    14    5.871424013617e-04
    15    1.914376957401e-01
    16   -2.045836129320e-02
    17   -2.405007380304e-02
    18    3.715763194076e-03
    19   -7.591731216041e-02
    20   -4.845997834554e-01
    21    1.652826237145e-01
    22    4.006425824496e-02
    23    8.080112167261e-02
    24    6.802043051198e-03
    25   -4.606740851391e-02
    26   -3.029257827987e-01
    27    4.563886556439e-01
    28   -2.001584728610e-01
    29    1.901298746227e-01
    30    1.849362197086e-03
    31    6.702979671401e-02
    32   -6.382819051089e-02
    33   -5.400688028163e-04
    34    1.914405626143e-01
    35   -2.044889205303e-02
    36   -2.403834146112e-02
    37    3.711999509171e-03
    38   -7.590751864180e-02
    39   -4.845761020459e-01
    40    1.652136754001e-01
    41   -4.006319031563e-02
    42   -8.079867960974e-02
    43   -6.799517384748e-03
    44   -4.845641653739e-01
    45    1.650470058642e-01
    46    7.867855349002e-02
    47    4.411817749376e-02
    48    6.445705428775e-03
Sym=X
Ene= 0.774504
Spin=Alpha
Occup=0
     1    5.375590006845e-01
     2   -4.740986752515e-01
     3    1.071115131964e-01
     4    2.588667704899e-02
     5    6.712231172665e-03
     6    8.898152223852e-02
     7   -2.262925079817e-01
     8   -5.492050654252e-01
     9    1.088305301951e-01
    10   -1.033185625330e-01
    11   -9.773504211383e-04
    12    2.792689938681e-01
    13   -2.653873904869e-01
    14   -2.647133591700e-03
    15   -2.031566095589e-01
    16    1.740369753285e-02
    17    2.172469675777e-02
    18   -1.478840800617e-04
    19    6.629677001024e-03
    20    5.374736095787e-01
    21   -4.742049361142e-01
    22   -2.041450386098e-02
    23   -1.082315674076e-01
    24   -7.520184600656e-03
    25   -8.898268902551e-02
    26    2.262942491841e-01
    27    5.492604255102e-01
    28    1.088447795907e-01
    29   -1.033155977544e-01
    30   -1.008740191721e-03
    31    2.792118111291e-01
    32   -2.653684205013e-01
    33   -2.575559789346e-03
    34    2.031632144107e-01
    35   -1.738036656898e-02
    36   -2.171243378395e-02
    37    1.521148341435e-04
    38   -6.628600271533e-03
    39   -5.375031999887e-01
    40    4.742089636874e-01
    41   -2.041578196715e-02
    42   -1.082339775288e-01
    43   -7.515154706945e-03
    44   -5.375811888587e-01
    45    4.740732194311e-01
    46    1.071078644340e-01
    47    2.589116444987e-02
    48    6.706350083575e-03
Sym=X
Ene= 0.806893
Spin=Alpha
Occup=0
     1    1.033858871124e-05
     2    2.910776925290e-05
     3    1.509961003377e-03
     4    1.904841554143e-03
     5   -3.156001959397e-02
     6    3.440224875539e-06
     7   -3.267080958198e-05
     8    1.815223976710e-05
     9    3.674418209164e-02
    10    4.616667440579e-02
    11   -7.641459344602e-01
    12   -5.394293361335e-02
    13   -6.778810537209e-02
    14    1.121856689610e+00
    15    1.023798711717e-03
    16   -6.403115814157e-02
    17    6.074970936368e-02
    18    6.736969504909e-03
    19    9.383251961954e-04
    20    1.235545815881e-05
    21   -4.074014023627e-05
    22    1.512038688314e-03
    23    1.904657478659e-03
    24   -3.155110002033e-02
    25   -3.950800869656e-07
    26   -2.467004258104e-05
    27    1.004483652870e-05
    28   -3.668014824448e-02
    29   -4.613471832871e-02
    30    7.641526278505e-01
    31    5.386661057789e-02
    32    6.770794424679e-02
    33   -1.121865431643e+00
    34    1.037112487967e-03
    35   -6.403080159741e-02
    36    6.074736862616e-02
    37    6.755340660208e-03
    38    9.438799701795e-04
    39   -9.209148950106e-06
    40    5.698687342989e-05
    41   -1.513843766751e-03
    42   -1.920254251415e-03
    43    3.154760650019e-02
    44   -7.179274195018e-06
    45   -1.283772089815e-05
    46   -1.508127378074e-03
    47   -1.912061979325e-03
    48    3.155869138275e-02
Sym=X
Ene= 0.859397
Spin=Alpha
Occup=0
     1    1.575663344979e-02
     2   -1.077094277598e+00
     3    1.467688716364e-01
     4    5.675313016714e-02
     5    1.047448047506e-02
     6    5.151264726462e-06
     7    6.921603458452e-06
     8    1.537741144950e-05
     9   -4.118647745742e-01
    10   -4.332420895193e-01
    11   -4.599215172948e-02
    12    9.379281136988e-01
    13    9.865476681478e-01
    14    1.047297738417e-01
    15   -2.260131960534e-04
    16    1.181707849951e-02
    17   -1.339192373020e-02
    18    2.311389966468e-01
    19    1.181452458625e-02
    20   -1.571049894075e-02
    21    1.077007192836e+00
    22    4.921697492980e-02
    23    1.493808523656e-01
    24    1.139649473250e-02
    25   -4.774380686259e-06
    26   -2.710633278887e-06
    27   -1.480842804713e-05
    28   -4.118769231809e-01
    29   -4.332621266440e-01
    30   -4.591542813895e-02
    31    9.379473955616e-01
    32    9.865982139658e-01
    33    1.045611374672e-01
    34    2.247723215914e-04
    35   -1.181625294853e-02
    36    1.339327143988e-02
    37   -2.311466132783e-01
    38   -1.181890210754e-02
    39    1.570605873171e-02
    40   -1.077015557935e+00
    41    4.920836433037e-02
    42    1.493855532743e-01
    43    1.139284026389e-02
    44   -1.575071736746e-02
    45    1.077100150199e+00
    46    1.467740229321e-01
    47    5.674861481809e-02
    48    1.046646580936e-02
Sym=X
Ene= 0.927680
Spin=Alpha
Occup=0
     1   -1.406001701753e-01
     2    1.234213096822e+00
     3   -1.825530691754e-01
     4    5.102007087865e-03
     5   -8.469566200631e-03
     6   -2.293661201711e-06
     7   -8.401571372953e-05
     8    1.314544200053e-04
     9    4.733696298958e-01
    10    4.979339397768e-01
    11    5.282699231018e-02
    12   -1.384557289635e+00
    13   -1.456467445253e+00
    14   -1.545156517313e-01
    15    1.282901164140e-04
    16   -6.441553423836e-03
    17    7.279539050556e-03
    18   -1.257068046263e-01
    19   -6.430313231733e-03
    20    1.405824053852e-01
    21   -1.234320363230e+00
    22    1.441622359033e-02
    23   -1.819668666359e-01
    24   -1.029793251664e-02
    25   -2.689120794955e-06
    26   -7.487958501094e-05
    27    1.380733967050e-04
    28   -4.733708900925e-01
    29   -4.979209863447e-01
    30   -5.280197199413e-02
    31    1.384558120106e+00
    32    1.456410093868e+00
    33    1.544443449570e-01
    34    1.329036943869e-04
    35   -6.423127967751e-03
    36    7.274787498154e-03
    37   -1.257025080470e-01
    38   -6.443033805360e-03
    39    1.405762152086e-01
    40   -1.234265810577e+00
    41   -1.442636734884e-02
    42    1.819579399807e-01
    43    1.029305354229e-02
    44   -1.406105401386e-01
    45    1.234222429964e+00
    46    1.825539615606e-01
    47   -5.103227383312e-03
    48    8.457511189177e-03
Sym=X
Ene= 0.967903
Spin=Alpha
Occup=0
     1   -6.594773320857e-02
     2    8.993865982883e-01
     3   -8.784051436692e-02
     4   -9.639206025787e-02
     5   -1.003547235019e-02
     6    2.549735636861e-02
     7    2.440875241371e-01
     8    5.467628971356e-01
     9    4.833196483610e-01
    10   -4.590005628156e-01
    11   -4.503753408012e-03
    12   -1.485744928274e+00
    13    1.410964574395e+00
    14    1.382937926306e-02
    15   -5.555404676979e-02
    16   -1.262847418751e-02
    17   -9.462504006935e-03
    18    1.521732378360e-02
    19   -2.970420444437e-01
    20   -6.596907985940e-02
    21    8.993164751939e-01
    22    9.182489072245e-02
    23    9.259182126608e-02
    24    1.001197836290e-02
    25   -2.549665121970e-02
    26   -2.440220960365e-01
    27   -5.468674224034e-01
    28    4.833061419914e-01
    29   -4.590073484430e-01
    30   -4.524689432697e-03
    31   -1.485698527533e+00
    32    1.411019412859e+00
    33    1.388903346655e-02
    34    5.554904166282e-02
    35    1.262727164796e-02
    36    9.464372011017e-03
    37   -1.522096146616e-02
    38    2.970294132700e-01
    39    6.596893966147e-02
    40   -8.993271082970e-01
    41    9.181922549185e-02
    42    9.259374928752e-02
    43    1.001368115312e-02
    44    6.595616651370e-02
    45   -8.993171280619e-01
    46   -8.783205337982e-02
    47   -9.638955174851e-02
    48   -1.002886258526e-02
[5D]

======= END OF MOLDEN-FORMATTED INPUT FILE =======


        *************************************************************
        *                                                           *
        *  Thank you very much for using Q-Chem.  Have a nice day.  *
        *                                                           *
        *************************************************************


