                  Welcome to Q-Chem
     A Quantum Leap Into The Future Of Chemistry


 Q-Chem 5.4 (devel), Q-Chem, Inc., Pleasanton, CA (2021)

 E. Epifanovsky,  A. T. B. Gilbert,  Xintian Feng,  Joonho Lee,  Yuezhi Mao,  
 N. Mardirossian,  P. Pokhilko,  A. White,  M. Wormit,  M. P. Coons,  
 A. L. Dempwolff,  Zhengting Gan,  D. Hait,  P. R. Horn,  L. D. Jacobson,  
 I. Kaliman,  J. Kussmann,  A. W. Lange,  Ka Un Lao,  D. S. Levine,  Jie Liu,  
 S. C. McKenzie,  A. F. Morrison,  K. Nanda,  F. Plasser,  D. R. Rehn,  
 M. L. Vidal,  Zhi-Qiang You,  Ying Zhu,  B. Alam,  B. Albrecht,  
 A. Aldossary,  E. Alguire,  J. H. Andersen,  D. Barton,  K. Begam,  A. Behn,  
 Y. A. Bernard,  E. J. Berquist,  H. Burton,  A. Carreras,  K. Carter-Fenk,  
 R. Chakraborty,  A. D. Chien,  K. D. Closser,  V. Cofer-Shabica,  
 S. Dasgupta,  Jia Deng,  M. de Wergifosse,  M. Diedenhofen,  Hainam Do,  
 S. Ehlert,  Po-Tung Fang,  S. Fatehi,  Qingguo Feng,  T. Friedhoff,  
 J. Gayvert,  Qinghui Ge,  G. Gidofalvi,  M. Goldey,  J. Gomes,  
 C. Gonzalez-Espinoza,  S. Gulania,  A. Gunina,  M. W. D. Hanson-Heine,  
 P. H. P. Harbach,  A. W. Hauser,  M. F. Herbst,  M. Hernandez Vera,  
 M. Hodecker,  Z. C. Holden,  S. Houck,  Xunkun Huang,  Kerwin Hui,  
 B. C. Huynh,  M. Ivanov,  Hyunjun Ji,  Hanjie Jiang,  B. Kaduk,  S. Kaehler,  
 K. Khistyaev,  Jaehoon Kim,  P. Klunzinger,  Z. Koczor-Benda,  
 Joong Hoon Koh,  D. Kosenkov,  L. Koulias,  T. Kowalczyk,  C. M. Krauter,  
 K. Kue,  A. Kunitsa,  T. Kus,  A. Landau,  K. V. Lawler,  D. Lefrancois,  
 S. Lehtola,  Rain Li,  Yi-Pei Li,  Jiashu Liang,  M. Liebenthal,  
 Hung-Hsuan Lin,  You-Sheng Lin,  Fenglai Liu,  Kuan-Yu Liu,  
 M. Loipersberger,  A. Luenser,  A. Manjanath,  P. Manohar,  E. Mansoor,  
 S. F. Manzer,  Shan-Ping Mao,  A. V. Marenich,  T. Markovich,  S. Mason,  
 S. A. Maurer,  P. F. McLaughlin,  M. F. S. J. Menger,  J.-M. Mewes,  
 S. A. Mewes,  P. Morgante,  J. W. Mullinax,  K. J. Oosterbaan,  G. Paran,  
 Alexander C. Paul,  Suranjan K. Paul,  F. Pavosevic,  Zheng Pei,  S. Prager,  
 E. I. Proynov,  E. Ramos,  B. Rana,  A. E. Rask,  A. Rettig,  R. M. Richard,  
 F. Rob,  E. Rossomme,  T. Scheele,  M. Scheurer,  M. Schneider,  
 N. Sergueev,  S. M. Sharada,  W. Skomorowski,  D. W. Small,  C. J. Stein,  
 Yu-Chuan Su,  E. J. Sundstrom,  Zhen Tao,  J. Thirman,  T. Tsuchimochi,  
 N. M. Tubman,  S. P. Veccham,  O. Vydrov,  J. Wenzel,  J. Witte,  A. Yamada,  
 Kun Yao,  S. Yeganeh,  S. R. Yost,  A. Zech,  Igor Ying Zhang,  Xing Zhang,  
 Yu Zhang,  D. Zuev,  A. Aspuru-Guzik,  A. T. Bell,  N. A. Besley,  
 K. B. Bravaya,  B. R. Brooks,  D. Casanova,  Jeng-Da Chai,  S. Coriani,  
 C. J. Cramer,  A. E. DePrince, III,  R. A. DiStasio Jr.,  A. Dreuw,  
 B. D. Dunietz,  T. R. Furlani,  W. A. Goddard III,  S. Grimme,  
 S. Hammes-Schiffer,  T. Head-Gordon,  W. J. Hehre,  Chao-Ping Hsu,  
 T.-C. Jagau,  Yousung Jung,  A. Klamt,  Jing Kong,  D. S. Lambrecht,  
 WanZhen Liang,  N. J. Mayhall,  C. W. McCurdy,  J. B. Neaton,  
 C. Ochsenfeld,  J. A. Parkhill,  R. Peverati,  V. A. Rassolov,  Yihan Shao,  
 L. V. Slipchenko,  T. Stauch,  R. P. Steele,  J. E. Subotnik,  
 A. J. W. Thom,  A. Tkatchenko,  D. G. Truhlar,  T. Van Voorhis,  
 T. A. Wesolowski,  K. B. Whaley,  H. L. Woodcock III,  P. M. Zimmerman,  
 S. Faraji,  P. M. W. Gill,  M. Head-Gordon,  J. M. Herbert,  A. I. Krylov

 Additional authors for Version 5.4.1: 
 S. Kotaru,  Shaozhi Li,  Xiangyuan Li,  F. Matz,  A. Molle,  Haisheng Ren,  
 Yingli Su,  Hung-Yi Tsai,  C. Utku,  Fang Wang

 Contributors to earlier versions of Q-Chem not listed above: 
 R. D. Adamson,  B. Austin,  R. Baer,  J. Baker,  G. J. O. Beran,  
 K. Brandhorst,  S. T. Brown,  E. F. C. Byrd,  A. K. Chakraborty,  
 G. K. L. Chan,  Chun-Min Chang,  Yunqing Chen,  C.-L. Cheng,  
 Siu Hung Chien,  D. M. Chipman,  D. L. Crittenden,  H. Dachsel,  
 R. J. Doerksen,  A. D. Dutoi,  R. G. Edgar,  J. Fosso-Tande,  
 L. Fusti-Molnar,  D. Ghosh,  A. Ghysels,  A. Golubeva-Zadorozhnaya,  
 J. Gonthier,  M. S. Gordon,  S. R. Gwaltney,  G. Hawkins,  J. E. Herr,  
 A. Heyden,  S. Hirata,  E. G. Hohenstein,  G. Kedziora,  F. J. Keil,  
 C. Kelley,  Jihan Kim,  R. A. King,  R. Z. Khaliullin,  P. P. Korambath,  
 W. Kurlancheek,  A. Laurent,  A. M. Lee,  M. S. Lee,  S. V. Levchenko,  
 Ching Yeh Lin,  D. Liotard,  E. Livshits,  R. C. Lochan,  I. Lotan,  
 L. A. Martinez-Martinez,  P. E. Maslen,  N. Nair,  D. P. O'Neill,  
 D. Neuhauser,  E. Neuscamman,  C. M. Oana,  R. Olivares-Amaya,  R. Olson,  
 T. M. Perrine,  B. Peters,  P. A. Pieniazek,  A. Prociuk,  Y. M. Rhee,  
 J. Ritchie,  M. A. Rohrdanz,  E. Rosta,  N. J. Russ,  H. F. Schaefer III,  
 M. W. Schmidt,  N. E. Schultz,  S. Sharma,  N. Shenvi,  C. D. Sherrill,  
 A. C. Simmonett,  A. Sodt,  T. Stein,  D. Stuck,  K. S. Thanthiriwatte,  
 V. Vanovschi,  L. Vogt,  Tao Wang,  A. Warshel,  M. A. Watson,  
 C. F. Williams,  Q. Wu,  X. Xu,  Jun Yang,  W. Zhang,  Yan Zhao

 Please cite Q-Chem as follows:
 Y. Shao et al., Mol. Phys. 113, 184-215 (2015)
 DOI: 10.1080/00268976.2014.952696

 Q-Chem 5.4.1 for Intel X86 EM64T Linux

 Parts of Q-Chem use Armadillo 9.800.1 (Horizon Scraper).
 http://arma.sourceforge.net/

 Q-Chem begins on Thu Nov 17 15:42:27 2022  

 Host: cpu198.baobab
0

     Scratch files written to /scratch/fum/qchem9047//
 Processing $rem in /home/share/wesolowski/qc5.aug2021.FDE/config/preferences:
 Processing $rem in /home/fum/.qchemrc:

 Checking the input file for inconsistencies... 	...done.

--------------------------------------------------------------
User input:
--------------------------------------------------------------
$comment
generated from CCJob.Templates
$end

$rem
sym_ignore = true
method = adc(2)
ee_states = 10
basis = cc-pVDZ
mem_static = 1024
mem_total = 40000
adc_davidson_maxiter = 900
adc_davidson_conv = 6
adc_print = 3
adc_prop_es = true
adc_prop_es2es = true
adc_prop_tpa = true
molden_format = True
state_analysis = true
print_orbitals = 15
gen_scfman = false
fde_export_density = true
fde_details = 3
$end

$molecule
0 1
H -0.0348278765 -0.2442097827 0.0636489606
C -1.0765972949 -0.5242748755 -0.0023551776
H -1.313264467 -1.5767591607 -0.0757276926
C -2.043634118 0.3926884087 0.0061254933
H -1.8237616575 1.4459188338 0.0804456828
H -3.085977293 0.114931858 -0.0593381042                     
$end
--------------------------------------------------------------
 ----------------------------------------------------------------
             Standard Nuclear Orientation (Angstroms)
    I     Atom           X                Y                Z
 ----------------------------------------------------------------
    1      H      -0.0348278765    -0.2442097827     0.0636489606
    2      C      -1.0765972949    -0.5242748755    -0.0023551776
    3      H      -1.3132644670    -1.5767591607    -0.0757276926
    4      C      -2.0436341180     0.3926884087     0.0061254933
    5      H      -1.8237616575     1.4459188338     0.0804456828
    6      H      -3.0859772930     0.1149318580    -0.0593381042
 ----------------------------------------------------------------
 Nuclear Repulsion Energy =          33.42714937 hartrees
 There are        8 alpha and        8 beta electrons
 Requested basis set is cc-pVDZ
 There are 24 shells and 48 basis functions
 Total memory of 40000 MB is distributed as follows: 
   MEM_STATIC is set to 1024 MB
   QALLOC/CCMAN JOB total memory use is  38976 MB
 Warning: actual memory use might exceed 40000 MB

 Total QAlloc Memory Limit  40000 MB
 Mega-Array Size      1001 MB
 MEM_STATIC part      1024 MB

                       Distance Matrix (Angstroms)
             H (  1)   C (  2)   H (  3)   C (  4)   H (  5)
   C (  2)  1.080776
   H (  3)  1.851895  1.081258
   C (  4)  2.108139  1.332687  2.102109
   H (  5)  2.461118  2.108737  3.069459  1.078500
   H (  6)  3.074674  2.109370  2.450428  1.080700  1.839634

 A cutoff of  1.0D-11 yielded    300 shell pairs
 There are      1220 function pairs (      1329 Cartesian)
 Smallest overlap matrix eigenvalue = 4.80E-03

 Scale SEOQF with 1.000000e-01/1.000000e-01/1.000000e+00

 Standard Electronic Orientation quadrupole field applied
 Nucleus-field energy     =     0.0000000022 hartrees
 Guess from superposition of atomic densities
 Warning:  Energy on first SCF cycle will be non-variational
 SAD guess density has 16.000000 electrons
 A restricted Hartree-Fock SCF calculation will be
 performed using Pulay DIIS extrapolation
 SCF converges when DIIS error is below 1.0E-08
 using 10 threads for integral computing
 -------------------------------------------------------
 OpenMP Integral computing Module                
 Release: version 1.0, May 2013, Q-Chem Inc. Pittsburgh 
 -------------------------------------------------------
 ---------------------------------------
  Cycle       Energy         DIIS Error
 ---------------------------------------
    1     -78.4399828093      1.01E-01
    2     -78.0176826928      7.21E-03
    3     -78.0383169597      1.84E-03
    4     -78.0397998214      5.73E-04
    5     -78.0399213502      5.83E-05
    6     -78.0399232327      1.00E-05
    7     -78.0399232960      3.35E-06
    8     -78.0399233005      1.12E-06
    9     -78.0399233011      9.66E-08
   10     -78.0399233011      1.99E-08
   11     -78.0399233011      5.98E-09 Convergence criterion met
 ---------------------------------------
 SCF time:  CPU 1.57 s  wall 2.16 s
 SCF   energy in the final basis set = -78.03992330
 Total energy in the final basis set = -78.03992330
Exporting Density Matrix to file 'Densmat_SCF.txt'.
Export successful
================================================================================
|                                                                              |
|                                 A D C  M A N                                 |
|                                                                              |
 ------------------------------------------------------------------------------ 
|                                                                              |
| Components:                                                                  |
|                                                                              |
| - libvmm - 1.3-trunk                                                         |
|   Authors:                                                                   |
|   Evgeny Epifanovsky, Ilya Kaliman                                           |
|                                                                              |
| - libtensor - 2.5-trunk                                                      |
|   Authors:                                                                   |
|   Evgeny Epifanovsky, Michael Wormit, Dmitry Zuev, Sam Manzer,               |
|   Ilya Kaliman                                                               |
|                                                                              |
| - libwfa - 1.1-trunk                                                         |
|   Authors:                                                                   |
|   Felix Plasser, Stefanie Mewes (Baeppler), Benjamin Thomitzni,              |
|   Michael Wormit, Feng Chen, Anna I. Krylov, Pavel Pokhilko                  |
|                                                                              |
| - libadc - 1.1-trunk                                                         |
|   Authors:                                                                   |
|   Michael Wormit, Adrian L. Dempwolff, Philipp H. P. Harbach,                |
|   Caroline Krauter, Dirk Rehn, Matthias Schneider, Jan Wenzel                |
|                                                                              |
| - adcman - 2.6-trunk                                                         |
|   Authors:                                                                   |
|   Michael Wormit, Adrian L. Dempwolff, Philipp H. P. Harbach,                |
|   Caroline Krauter, Daniel Lefrancois, Jan-Michael Mewes, Dirk Rehn,         |
|   Matthias Schneider, Jan Wenzel, Andreas Dreuw                              |
|                                                                              |
| Authors of earlier versions of ADCMAN:                                       |
| Andreas Dreuw, Jan Hendrik Starcke, Dirk Rehn, Michael Wormit                |
|                                                                              |
================================================================================

 Created directory /scratch/fum/qchem9047/plots
  Import QC data ...  CPU 0.00 s  wall 0.00 s

 Alpha MOs, Restricted
 -- Occupied --                  
-11.235 -11.233  -1.032  -0.790  -0.641  -0.583  -0.504  -0.374
  1 A     2 A     3 A     4 A     5 A     6 A     7 A     8 A                  
 -- Virtual --                   
  0.168   0.204   0.233   0.239   0.303   0.463   0.578   0.614
  9 A    10 A    11 A    12 A    13 A    14 A    15 A    16 A                  
  0.689   0.710   0.785   0.808   0.862   0.936   0.973   1.010
 17 A    18 A    19 A    20 A    21 A    22 A    23 A    24 A                  
  1.131   1.235   1.252   1.265   1.294   1.602   1.729   1.754
 25 A    26 A    27 A    28 A    29 A    30 A    31 A    32 A                  
  1.819   1.857   1.867   1.920   1.975   1.980   2.224   2.257
 33 A    34 A    35 A    36 A    37 A    38 A    39 A    40 A                  
  2.375   2.454   2.509   2.638   2.721   2.824   3.138   3.402
 41 A    42 A    43 A    44 A    45 A    46 A    47 A    48 A                  

 Beta MOs, Restricted
 -- Occupied --                  
-11.235 -11.233  -1.032  -0.790  -0.641  -0.583  -0.504  -0.374
  1 A     2 A     3 A     4 A     5 A     6 A     7 A     8 A                  
 -- Virtual --                   
  0.168   0.204   0.233   0.239   0.303   0.463   0.578   0.614
  9 A    10 A    11 A    12 A    13 A    14 A    15 A    16 A                  
  0.689   0.710   0.785   0.808   0.862   0.936   0.973   1.010
 17 A    18 A    19 A    20 A    21 A    22 A    23 A    24 A                  
  1.131   1.235   1.252   1.265   1.294   1.602   1.729   1.754
 25 A    26 A    27 A    28 A    29 A    30 A    31 A    32 A                  
  1.819   1.857   1.867   1.920   1.975   1.980   2.224   2.257
 33 A    34 A    35 A    36 A    37 A    38 A    39 A    40 A                  
  2.375   2.454   2.509   2.638   2.721   2.824   3.138   3.402
 41 A    42 A    43 A    44 A    45 A    46 A    47 A    48 A                  
  Import AO data ...  CPU 0.00 s  wall 0.01 s
  Using point group: C1
  Irreducible representations in point group: A
  Molecular orbitals: 
  Occupied MOs:
  Block   0:   1 (  A) A   2 (  A) A   3 (  A) A   4 (  A) A   5 (  A) A
                  -11.24      -11.23      -1.032     -0.7904     -0.6408
               6 (  A) A   7 (  A) A   8 (  A) A
                 -0.5826     -0.5045      -0.374
  Block   1:   1 (  A) B   2 (  A) B   3 (  A) B   4 (  A) B   5 (  A) B
                  -11.24      -11.23      -1.032     -0.7904     -0.6408
               6 (  A) B   7 (  A) B   8 (  A) B
                 -0.5826     -0.5045      -0.374
  Virtual MOs:
  Block   0:   9 (  A) A  10 (  A) A  11 (  A) A  12 (  A) A  13 (  A) A
                  0.1683      0.2038      0.2332      0.2392      0.3033
              14 (  A) A  15 (  A) A  16 (  A) A  17 (  A) A  18 (  A) A
                  0.4626       0.578      0.6141      0.6891      0.7096
              19 (  A) A  20 (  A) A  21 (  A) A  22 (  A) A
                  0.7846      0.8079      0.8623      0.9361
  Block   1:  23 (  A) A  24 (  A) A  25 (  A) A  26 (  A) A  27 (  A) A
                  0.9728        1.01       1.131       1.235       1.252
              28 (  A) A  29 (  A) A  30 (  A) A  31 (  A) A  32 (  A) A
                   1.265       1.294       1.602       1.729       1.754
              33 (  A) A  34 (  A) A  35 (  A) A  36 (  A) A
                   1.819       1.857       1.867        1.92
  Block   2:  37 (  A) A  38 (  A) A  39 (  A) A  40 (  A) A  41 (  A) A
                   1.975        1.98       2.224       2.257       2.375
              42 (  A) A  43 (  A) A  44 (  A) A  45 (  A) A  46 (  A) A
                   2.454       2.509       2.638       2.721       2.824
              47 (  A) A  48 (  A) A
                   3.138       3.402
  Block   3:   9 (  A) B  10 (  A) B  11 (  A) B  12 (  A) B  13 (  A) B
                  0.1683      0.2038      0.2332      0.2392      0.3033
              14 (  A) B  15 (  A) B  16 (  A) B  17 (  A) B  18 (  A) B
                  0.4626       0.578      0.6141      0.6891      0.7096
              19 (  A) B  20 (  A) B  21 (  A) B  22 (  A) B
                  0.7846      0.8079      0.8623      0.9361
  Block   4:  23 (  A) B  24 (  A) B  25 (  A) B  26 (  A) B  27 (  A) B
                  0.9728        1.01       1.131       1.235       1.252
              28 (  A) B  29 (  A) B  30 (  A) B  31 (  A) B  32 (  A) B
                   1.265       1.294       1.602       1.729       1.754
              33 (  A) B  34 (  A) B  35 (  A) B  36 (  A) B
                   1.819       1.857       1.867        1.92
  Block   5:  37 (  A) B  38 (  A) B  39 (  A) B  40 (  A) B  41 (  A) B
                   1.975        1.98       2.224       2.257       2.375
              42 (  A) B  43 (  A) B  44 (  A) B  45 (  A) B  46 (  A) B
                   2.454       2.509       2.638       2.721       2.824
              47 (  A) B  48 (  A) B
                   3.138       3.402
  Import MO data ...  CPU 0.01 s  wall 0.03 s
  Import HF data ...  CPU 0.08 s  wall 0.04 s
  Import 2e integrals ...  CPU 0.66 s  wall 0.12 s

--------------------------------------------------------------------------------
                                   HF Summary                                   
--------------------------------------------------------------------------------
  Energy:                                                  -78.0399233011 a.u.
  Dip. moment [a.u.]:                  [  -0.001484,    0.001623,    0.000611]
  Total dipole [Debye]:                                               0.005801
  <r^2> [a.u.]:                        [ 175.449202,   34.909589,   11.623658]
  Total <r^2> [a.u.]:                                               221.982449
--------------------------------------------------------------------------------
  HF properties ...  CPU 0.01 s  wall 0.01 s
  MP(1) calculation ...  CPU 0.01 s  wall 0.01 s
  N^6 prerequesite intermediates ...  CPU 0.50 s  wall 0.08 s
  Difference density matrix of state mp2_gs printed to ASCII file 'State_mp2_gs_Difference.txt'
Exporting MP density matrix to file 'Densmat_MP.txt'.
Export successful
  Total density matrix of state mp2_gs printed to ASCII file 'State_mp2_gs_Total.txt'
Exporting MP density matrix to file 'Densmat_MP.txt'.
Export successful

--------------------------------------------------------------------------------
                                 MP(2) Summary                                  
--------------------------------------------------------------------------------
  MP energy contribution:                                   -0.2796684961 a.u.
  Total energy:                                            -78.3195917972 a.u.
  Dip. moment [a.u.]:                  [  -0.001517,    0.001337,    0.000585]
  Total dipole [Debye]:                                               0.005350
  <r^2> [a.u.]:                        [ 175.495220,   34.950690,   11.455662]
  Total <r^2> [a.u.]:                                               221.901572

  Density matrix analysis:
  ------------------------
  NOs
    Occupation of frontier NOs:
       0.0453   1.9383
    Number of electrons: 16.000000
    Number of unpaired electrons: n_u =  0.40329, n_u,nl =  0.04505
    NO participation ratio (PR_NO): 13.855620
  
  
  Mulliken Population Analysis
  Atom      Charge (e)              h+              e-           Del q
  --------------------------------------------------------------------
   1 H        0.051058        0.014026       -0.011202        0.002824
   2 C       -0.100475        0.093322       -0.098817       -0.005495
   3 H        0.050742        0.014059       -0.011191        0.002868
   4 C       -0.101086        0.092729       -0.098888       -0.006159
   5 H        0.049615        0.014171       -0.011175        0.002996
   6 H        0.050145        0.014142       -0.011175        0.002966
  --------------------------------------------------------------------
  Sum:        0.000000        0.242450       -0.242450       -0.000000
  
  Multipole moment analysis of the density matrix
    Molecular charge:                      0.000000
    Number of electrons:                   16.000000
      Center of electronic charge [Ang]: [ -1.561151,  -0.065647,   0.001959]
    Total nuclear charge:                  16.000000
      Center of nuclear charge [Ang]:    [ -1.561201,  -0.065602,   0.001978]
    Dipole moment [D]:                     0.005350
      Cartesian components [D]:          [ -0.003856,   0.003397,   0.001488]
    RMS size of the density [Ang]:         1.200903
      Cartesian components [Ang]:        [  0.796421,   0.779352,   0.447762]
  
  Exciton analysis of the difference density matrix
    <r_h> [Ang]:                  [ -1.560864,  -0.066432,   0.001832]
    <r_e> [Ang]:                  [ -1.560791,  -0.065808,   0.001889]
    |<r_e - r_h>| [Ang]:            0.000631
    Hole size [Ang]:                1.393683
      Cartesian components [Ang]: [  0.847036,   0.833785,   0.727794]
    Electron size [Ang]:            1.359871
      Cartesian components [Ang]: [  0.877980,   0.861830,   0.579353]
--------------------------------------------------------------------------------
  MP(2) calculation ...  CPU 0.13 s  wall 0.12 s
  Start ADC(2)-s ...  CPU 0.01 s  wall 0.00 s
  ADC(2) intermediates ...  CPU 0.02 s  wall 0.01 s
  Starting Davidson for singlet states of irrep A ... 
--------------------------------------------------------------------------------
   It NVec Conv  Avg. Norm  Max. Norm  Conv. states           Remark
--------------------------------------------------------------------------------
        10    0  1.330e-01  4.690e-01  0.4122 n n n n n n n n Guess.
    1   20    0  2.302e-02  1.112e-01  0.3262 n n n n n n n n 
    2   30    0  5.805e-03  2.453e-02  0.3215 n n n n n n n n 
    3   40    0  1.796e-03  1.040e-02  0.3211 n n n n n n n n 
    4   50    0  5.704e-04  3.807e-03  0.3211 n n n n n n n n 
    5   20    0  2.706e-04  1.929e-03  0.3211 n n n n n n n n Subspace collapsed.
    6   30    0  1.372e-04  1.074e-03  0.3211 n n n n n n n n 
    7   40    0  9.086e-05  7.589e-04  0.3211 n n n n n n n n 
    8   50    0  5.873e-05  4.745e-04  0.3211 n n n n n n n n 
    9   20    2  4.101e-05  3.667e-04  0.3211 n y n y n n n n Subspace collapsed.
   10   30    4  4.691e-05  4.327e-04  0.3211 n y y y y n n n 
   11   40    5  4.292e-05  4.224e-04  0.3211 n y y y y y n n 
   12   50    6  3.434e-05  3.416e-04  0.3211 y y y y y y n n 
   13   20    6  1.603e-05  1.592e-04  0.3211 y y y y y y n n Subspace collapsed.
   14   30    6  1.171e-05  1.162e-04  0.3211 y y y y y y n n 
   15   40    6  5.383e-06  5.251e-05  0.3211 y y y y y y n n 
   16   50    7  5.597e-06  5.570e-05  0.3211 y y y y y y n y 
   17   20    8  3.392e-06  3.382e-05  0.3211 y y y y y y n y Subspace collapsed.
   18   30    7  5.215e-06  5.209e-05  0.3211 y y y y y y n y 
   19   40    7  6.127e-06  6.125e-05  0.3211 y y y y y y n y 
   20   50    9  5.028e-06  5.027e-05  0.3211 y y y y y y y y 
   21   20    9  2.329e-06  2.329e-05  0.3211 y y y y y y y y Subspace collapsed.
   22   30    9  1.543e-06  1.543e-05  0.3211 y y y y y y y y 
   23   39    9  1.041e-06  1.041e-05  0.3211 y y y y y y y y 
   24   48    9  7.682e-07  7.682e-06  0.3211 y y y y y y y y 
   25   50    9  8.523e-07  8.522e-06  0.3211 y y y y y y y y 
   26   15    9  5.430e-07  5.429e-06  0.3211 y y y y y y y y Subspace collapsed.
   27   20    9  6.401e-07  6.401e-06  0.3211 y y y y y y y y 
   28   25    9  8.467e-07  8.467e-06  0.3211 y y y y y y y y 
   29   29    9  7.576e-07  7.576e-06  0.3211 y y y y y y y y 
   30   33    9  4.976e-07  4.976e-06  0.3211 y y y y y y y y 
   31   37    9  2.707e-07  2.707e-06  0.3211 y y y y y y y y 
   32   41    9  1.243e-07  1.243e-06  0.3211 y y y y y y y y 
   33   45   10  4.459e-08  4.459e-07  0.3211 y y y y y y y y Converged.
--------------------------------------------------------------------------------
  Davidson Summary: 
 ------------------------------------------------------------
  State  0: excitation energy =   0.3211 a.u.   (converged)
  State  1: excitation energy =   0.3325 a.u.   (converged)
  State  2: excitation energy =   0.3373 a.u.   (converged)
  State  3: excitation energy =   0.3615 a.u.   (converged)
  State  4: excitation energy =   0.3755 a.u.   (converged)
  State  5: excitation energy =   0.3874 a.u.   (converged)
  State  6: excitation energy =   0.4248 a.u.   (converged)
  State  7: excitation energy =   0.4469 a.u.   (converged)
  State  8: excitation energy =   0.4562 a.u.   (converged)
  State  9: excitation energy =   0.4647 a.u.   (converged)
 ------------------------------------------------------------

  Singlet states of irrep A ...  CPU 80.76 s  wall 28.33 s
  TDMs ...  CPU 0.67 s  wall 0.28 s
  SDMs ...  CPU 1.47 s  wall 0.52 s
  Starting TPA DIIS iterations ... 
------------------------------------ 
   It     Res. Norm  Remark
------------------------------------
                       Guess.
    1     4.406e+00  
    2     5.843e+00  
    3     1.079e+00  
    4     2.570e-01  
    5     6.570e-02  
    6     2.681e-02  
    7     8.257e-03  
    8     1.444e-03  
    9     5.348e-04  
   10     9.026e-05  
   11     2.830e-05  
   12     4.420e-06  
   13     1.442e-06  
   14     4.567e-07  Converged.
   ... Converged in 14 steps (norm: 4.5674e-07)
------------------------------------
  Starting TPA DIIS iterations ... 
------------------------------------ 
   It     Res. Norm  Remark
------------------------------------
                       Guess.
    1     4.188e+00  
    2     5.545e+00  
    3     1.028e+00  
    4     2.549e-01  
    5     6.530e-02  
    6     2.669e-02  
    7     8.116e-03  
    8     1.451e-03  
    9     5.371e-04  
   10     8.973e-05  
   11     2.833e-05  
   12     4.370e-06  
   13     1.432e-06  
   14     4.473e-07  Converged.
   ... Converged in 14 steps (norm: 4.47254e-07)
------------------------------------
  Starting TPA DIIS iterations ... 
------------------------------------ 
   It     Res. Norm  Remark
------------------------------------
                       Guess.
    1     6.866e-01  
    2     4.826e-01  
    3     1.706e-01  
    4     5.958e-02  
    5     1.829e-02  
    6     6.628e-03  
    7     1.033e-03  
    8     4.443e-04  
    9     1.241e-04  
   10     2.785e-05  
   11     5.674e-06  
   12     1.741e-06  
   13     1.070e-06  
   14     4.287e-07  Converged.
   ... Converged in 14 steps (norm: 4.28661e-07)
------------------------------------
  Starting TPA DIIS iterations ... 
------------------------------------ 
   It     Res. Norm  Remark
------------------------------------
                       Guess.
    1     4.689e+00  
    2     6.351e+00  
    3     1.158e+00  
    4     2.851e-01  
    5     7.389e-02  
    6     3.040e-02  
    7     9.347e-03  
    8     1.631e-03  
    9     6.089e-04  
   10     1.033e-04  
   11     3.272e-05  
   12     5.156e-06  
   13     1.697e-06  
   14     5.408e-07  Converged.
   ... Converged in 14 steps (norm: 5.40783e-07)
------------------------------------
  Starting TPA DIIS iterations ... 
------------------------------------ 
   It     Res. Norm  Remark
------------------------------------
                       Guess.
    1     4.456e+00  
    2     6.026e+00  
    3     1.104e+00  
    4     2.825e-01  
    5     7.345e-02  
    6     3.029e-02  
    7     9.189e-03  
    8     1.641e-03  
    9     6.116e-04  
   10     1.027e-04  
   11     3.274e-05  
   12     5.097e-06  
   13     1.682e-06  
   14     5.297e-07  Converged.
   ... Converged in 14 steps (norm: 5.29719e-07)
------------------------------------
  Starting TPA DIIS iterations ... 
------------------------------------ 
   It     Res. Norm  Remark
------------------------------------
                       Guess.
    1     6.985e-01  
    2     4.997e-01  
    3     1.803e-01  
    4     6.726e-02  
    5     1.968e-02  
    6     7.232e-03  
    7     1.164e-03  
    8     5.216e-04  
    9     1.489e-04  
   10     3.156e-05  
   11     6.448e-06  
   12     2.053e-06  
   13     1.339e-06  
   14     5.291e-07  Converged.
   ... Converged in 14 steps (norm: 5.29071e-07)
------------------------------------
  Starting TPA DIIS iterations ... 
------------------------------------ 
   It     Res. Norm  Remark
------------------------------------
                       Guess.
    1     4.816e+00  
    2     6.582e+00  
    3     1.194e+00  
    4     2.981e-01  
    5     7.768e-02  
    6     3.207e-02  
    7     9.852e-03  
    8     1.718e-03  
    9     6.433e-04  
   10     1.094e-04  
   11     3.481e-05  
   12     5.503e-06  
   13     1.819e-06  
   14     5.811e-07  Converged.
   ... Converged in 14 steps (norm: 5.81051e-07)
------------------------------------
  Starting TPA DIIS iterations ... 
------------------------------------ 
   It     Res. Norm  Remark
------------------------------------
                       Guess.
    1     4.576e+00  
    2     6.245e+00  
    3     1.138e+00  
    4     2.953e-01  
    5     7.722e-02  
    6     3.197e-02  
    7     9.685e-03  
    8     1.728e-03  
    9     6.462e-04  
   10     1.088e-04  
   11     3.482e-05  
   12     5.440e-06  
   13     1.801e-06  
   14     5.693e-07  Converged.
   ... Converged in 14 steps (norm: 5.6932e-07)
------------------------------------
  Starting TPA DIIS iterations ... 
------------------------------------ 
   It     Res. Norm  Remark
------------------------------------
                       Guess.
    1     7.035e-01  
    2     5.071e-01  
    3     1.846e-01  
    4     7.087e-02  
    5     2.030e-02  
    6     7.511e-03  
    7     1.226e-03  
    8     5.585e-04  
    9     1.608e-04  
   10     3.296e-05  
   11     6.806e-06  
   12     2.203e-06  
   13     1.473e-06  
   14     5.790e-07  Converged.
   ... Converged in 14 steps (norm: 5.78977e-07)
------------------------------------
  Starting TPA DIIS iterations ... 
------------------------------------ 
   It     Res. Norm  Remark
------------------------------------
                       Guess.
    1     5.552e+00  
    2     7.956e+00  
    3     1.401e+00  
    4     3.780e-01  
    5     1.009e-01  
    6     4.243e-02  
    7     1.295e-02  
    8     2.249e-03  
    9     8.564e-04  
   10     1.472e-04  
   11     4.797e-05  
   12     7.706e-06  
   13     2.610e-06  
   14     8.474e-07  Converged.
   ... Converged in 14 steps (norm: 8.47379e-07)
------------------------------------
  Starting TPA DIIS iterations ... 
------------------------------------ 
   It     Res. Norm  Remark
------------------------------------
                       Guess.
    1     5.273e+00  
    2     7.548e+00  
    3     1.334e+00  
    4     3.737e-01  
    5     1.004e-01  
    6     4.235e-02  
    7     1.274e-02  
    8     2.266e-03  
    9     8.605e-04  
   10     1.464e-04  
   11     4.791e-05  
   12     7.620e-06  
   13     2.570e-06  
   14     8.329e-07  Converged.
   ... Converged in 14 steps (norm: 8.32948e-07)
------------------------------------
  Starting TPA DIIS iterations ... 
------------------------------------ 
   It     Res. Norm  Remark
------------------------------------
                       Guess.
    1     7.301e-01  
    2     5.482e-01  
    3     2.089e-01  
    4     9.375e-02  
    5     2.382e-02  
    6     9.230e-03  
    7     1.621e-03  
    8     7.898e-04  
    9     2.338e-04  
   10     3.797e-05  
   11     9.030e-06  
   12     3.186e-06  
   13     2.425e-06  
   14     9.295e-07  Converged.
   ... Converged in 14 steps (norm: 9.29481e-07)
------------------------------------
  Starting TPA DIIS iterations ... 
------------------------------------ 
   It     Res. Norm  Remark
------------------------------------
                       Guess.
    1     6.068e+00  
    2     8.953e+00  
    3     1.544e+00  
    4     4.382e-01  
    5     1.184e-01  
    6     5.033e-02  
    7     1.529e-02  
    8     2.647e-03  
    9     1.019e-03  
   10     1.760e-04  
   11     5.822e-05  
   12     9.427e-06  
   13     3.248e-06  
   14     1.070e-06  
   15     4.057e-07  Converged.
   ... Converged in 15 steps (norm: 4.05717e-07)
------------------------------------
  Starting TPA DIIS iterations ... 
------------------------------------ 
   It     Res. Norm  Remark
------------------------------------
                       Guess.
    1     5.762e+00  
    2     8.493e+00  
    3     1.471e+00  
    4     4.326e-01  
    5     1.178e-01  
    6     5.027e-02  
    7     1.504e-02  
    8     2.669e-03  
    9     1.024e-03  
   10     1.751e-04  
   11     5.808e-05  
   12     9.329e-06  
   13     3.185e-06  
   14     1.056e-06  
   15     3.209e-07  Converged.
   ... Converged in 15 steps (norm: 3.20882e-07)
------------------------------------
  Starting TPA DIIS iterations ... 
------------------------------------ 
   It     Res. Norm  Remark
------------------------------------
                       Guess.
    1     7.466e-01  
    2     5.751e-01  
    3     2.253e-01  
    4     1.116e-01  
    5     2.632e-02  
    6     1.053e-02  
    7     1.934e-03  
    8     9.587e-04  
    9     2.866e-04  
   10     3.942e-05  
   11     1.077e-05  
   12     3.988e-06  
   13     3.274e-06  
   14     1.240e-06  
   15     4.441e-07  Converged.
   ... Converged in 15 steps (norm: 4.44118e-07)
------------------------------------
  Starting TPA DIIS iterations ... 
------------------------------------ 
   It     Res. Norm  Remark
------------------------------------
                       Guess.
    1     6.570e+00  
    2     9.947e+00  
    3     1.683e+00  
    4     4.997e-01  
    5     1.363e-01  
    6     5.848e-02  
    7     1.767e-02  
    8     3.053e-03  
    9     1.186e-03  
   10     2.057e-04  
   11     6.889e-05  
   12     1.123e-05  
   13     3.930e-06  
   14     1.319e-06  
   15     5.132e-07  Converged.
   ... Converged in 15 steps (norm: 5.13174e-07)
------------------------------------
  Starting TPA DIIS iterations ... 
------------------------------------ 
   It     Res. Norm  Remark
------------------------------------
                       Guess.
    1     6.238e+00  
    2     9.435e+00  
    3     1.603e+00  
    4     4.929e-01  
    5     1.356e-01  
    6     5.846e-02  
    7     1.739e-02  
    8     3.080e-03  
    9     1.192e-03  
   10     2.046e-04  
   11     6.866e-05  
   12     1.112e-05  
   13     3.836e-06  
   14     1.307e-06  
   15     3.961e-07  Converged.
   ... Converged in 15 steps (norm: 3.96079e-07)
------------------------------------
  Starting TPA DIIS iterations ... 
------------------------------------ 
   It     Res. Norm  Remark
------------------------------------
                       Guess.
    1     7.611e-01  
    2     5.999e-01  
    3     2.409e-01  
    4     1.303e-01  
    5     2.882e-02  
    6     1.187e-02  
    7     2.267e-03  
    8     1.118e-03  
    9     3.371e-04  
   10     4.049e-05  
   11     1.263e-05  
   12     4.854e-06  
   13     4.246e-06  
   14     1.594e-06  
   15     5.608e-07  Converged.
   ... Converged in 15 steps (norm: 5.60839e-07)
------------------------------------
  Starting TPA DIIS iterations ... 
------------------------------------ 
   It     Res. Norm  Remark
------------------------------------
                       Guess.
    1     8.678e+00  
    2     1.436e+01  
    3     2.257e+00  
    4     7.856e-01  
    5     2.195e-01  
    6     9.715e-02  
    7     2.878e-02  
    8     4.930e-03  
    9     1.976e-03  
   10     3.456e-04  
   11     1.192e-04  
   12     1.987e-05  
   13     7.311e-06  
   14     2.756e-06  
   15     1.132e-06  
   16     5.324e-07  Converged.
   ... Converged in 16 steps (norm: 5.32415e-07)
------------------------------------
  Starting TPA DIIS iterations ... 
------------------------------------ 
   It     Res. Norm  Remark
------------------------------------
                       Guess.
    1     8.235e+00  
    2     1.362e+01  
    3     2.147e+00  
    4     7.716e-01  
    5     2.186e-01  
    6     9.733e-02  
    7     2.834e-02  
    8     4.983e-03  
    9     1.985e-03  
   10     3.439e-04  
   11     1.185e-04  
   12     1.987e-05  
   13     6.982e-06  
   14     2.810e-06  
   15     8.425e-07  Converged.
   ... Converged in 15 steps (norm: 8.42459e-07)
------------------------------------
  Starting TPA DIIS iterations ... 
------------------------------------ 
   It     Res. Norm  Remark
------------------------------------
                       Guess.
    1     8.110e-01  
    2     6.933e-01  
    3     3.024e-01  
    4     2.187e-01  
    5     4.011e-02  
    6     1.804e-02  
    7     3.922e-03  
    8     1.622e-03  
    9     5.325e-04  
   10     5.295e-05  
   11     2.222e-05  
   12     9.296e-06  
   13     9.826e-06  
   14     3.667e-06  
   15     1.369e-06  
   16     8.220e-07  Converged.
   ... Converged in 16 steps (norm: 8.22008e-07)
------------------------------------
  Starting TPA DIIS iterations ... 
------------------------------------ 
   It     Res. Norm  Remark
------------------------------------
                       Guess.
    1     1.048e+01  
    2     1.841e+01  
    3     2.734e+00  
    4     1.057e+00  
    5     2.992e-01  
    6     1.351e-01  
    7     3.943e-02  
    8     6.717e-03  
    9     2.747e-03  
   10     4.811e-04  
   11     1.661e-04  
   12     2.850e-05  
   13     1.072e-05  
   14     4.559e-06  
   15     1.905e-06  
   16     9.735e-07  Converged.
   ... Converged in 16 steps (norm: 9.7355e-07)
------------------------------------
  Starting TPA DIIS iterations ... 
------------------------------------ 
   It     Res. Norm  Remark
------------------------------------
                       Guess.
    1     9.941e+00  
    2     1.746e+01  
    3     2.600e+00  
    4     1.035e+00  
    5     2.981e-01  
    6     1.355e-01  
    7     3.882e-02  
    8     6.794e-03  
    9     2.760e-03  
   10     4.787e-04  
   11     1.652e-04  
   12     2.886e-05  
   13     1.003e-05  
   14     4.770e-06  
   15     1.518e-06  
   16     1.253e-06  
   17     5.521e-07  Converged.
   ... Converged in 17 steps (norm: 5.52084e-07)
------------------------------------
  Starting TPA DIIS iterations ... 
------------------------------------ 
   It     Res. Norm  Remark
------------------------------------
                       Guess.
    1     8.440e-01  
    2     7.632e-01  
    3     3.510e-01  
    4     2.994e-01  
    5     5.062e-02  
    6     2.360e-02  
    7     5.565e-03  
    8     1.833e-03  
    9     6.821e-04  
   10     7.318e-05  
   11     3.257e-05  
   12     1.398e-05  
   13     1.641e-05  
   14     6.205e-06  
   15     2.684e-06  
   16     1.517e-06  
   17     4.353e-07  Converged.
   ... Converged in 17 steps (norm: 4.35323e-07)
------------------------------------
  Starting TPA DIIS iterations ... 
------------------------------------ 
   It     Res. Norm  Remark
------------------------------------
                       Guess.
    1     1.142e+01  
    2     2.062e+01  
    3     2.979e+00  
    4     1.207e+00  
    5     3.436e-01  
    6     1.565e-01  
    7     4.535e-02  
    8     7.708e-03  
    9     3.180e-03  
   10     5.566e-04  
   11     1.915e-04  
   12     3.349e-05  
   13     1.272e-05  
   14     5.730e-06  
   15     2.423e-06  
   16     1.275e-06  
   17     3.234e-07  Converged.
   ... Converged in 17 steps (norm: 3.23357e-07)
------------------------------------
  Starting TPA DIIS iterations ... 
------------------------------------ 
   It     Res. Norm  Remark
------------------------------------
                       Guess.
    1     1.083e+01  
    2     1.955e+01  
    3     2.833e+00  
    4     1.180e+00  
    5     3.423e-01  
    6     1.571e-01  
    7     4.466e-02  
    8     7.799e-03  
    9     3.194e-03  
   10     5.539e-04  
   11     1.906e-04  
   12     3.417e-05  
   13     1.177e-05  
   14     6.064e-06  
   15     2.043e-06  
   16     1.697e-06  
   17     7.336e-07  Converged.
   ... Converged in 17 steps (norm: 7.33559e-07)
------------------------------------
  Starting TPA DIIS iterations ... 
------------------------------------ 
   It     Res. Norm  Remark
------------------------------------
                       Guess.
    1     8.588e-01  
    2     7.971e-01  
    3     3.752e-01  
    4     3.407e-01  
    5     5.633e-02  
    6     2.646e-02  
    7     6.475e-03  
    8     1.894e-03  
    9     7.563e-04  
   10     8.517e-05  
   11     3.872e-05  
   12     1.675e-05  
   13     2.054e-05  
   14     7.818e-06  
   15     3.642e-06  
   16     1.972e-06  
   17     5.926e-07  Converged.
   ... Converged in 17 steps (norm: 5.92608e-07)
------------------------------------
  Starting TPA DIIS iterations ... 
------------------------------------ 
   It     Res. Norm  Remark
------------------------------------
                       Guess.
    1     1.241e+01  
    2     2.300e+01  
    3     3.234e+00  
    4     1.368e+00  
    5     3.920e-01  
    6     1.800e-01  
    7     5.181e-02  
    8     8.786e-03  
    9     3.656e-03  
   10     6.391e-04  
   11     2.187e-04  
   12     3.911e-05  
   13     1.504e-05  
   14     7.138e-06  
   15     3.069e-06  
   16     1.642e-06  
   17     4.098e-07  Converged.
   ... Converged in 17 steps (norm: 4.09777e-07)
------------------------------------
  Starting TPA DIIS iterations ... 
------------------------------------ 
   It     Res. Norm  Remark
------------------------------------
                       Guess.
    1     1.177e+01  
    2     2.181e+01  
    3     3.075e+00  
    4     1.337e+00  
    5     3.906e-01  
    6     1.808e-01  
    7     5.102e-02  
    8     8.893e-03  
    9     3.672e-03  
   10     6.360e-04  
   11     2.179e-04  
   12     4.025e-05  
   13     1.377e-05  
   14     7.627e-06  
   15     2.746e-06  
   16     2.259e-06  
   17     9.409e-07  Converged.
   ... Converged in 17 steps (norm: 9.40863e-07)
------------------------------------
  Starting TPA DIIS iterations ... 
------------------------------------ 
   It     Res. Norm  Remark
------------------------------------
                       Guess.
    1     8.732e-01  
    2     8.313e-01  
    3     3.998e-01  
    4     3.823e-01  
    5     6.247e-02  
    6     2.937e-02  
    7     7.453e-03  
    8     1.942e-03  
    9     8.323e-04  
   10     9.818e-05  
   11     4.571e-05  
   12     1.994e-05  
   13     2.547e-05  
   14     9.728e-06  
   15     4.853e-06  
   16     2.509e-06  
   17     7.876e-07  Converged.
   ... Converged in 17 steps (norm: 7.87643e-07)
------------------------------------
  Two-photon absorbption ...  CPU 71.57 s  wall 18.14 s
  Transition density matrix of state singlet_A_1 printed to ASCII file 'State_singlet_A_1_Transition.txt'
  Transition density matrix of state singlet_A_2 printed to ASCII file 'State_singlet_A_2_Transition.txt'
  Transition density matrix of state singlet_A_3 printed to ASCII file 'State_singlet_A_3_Transition.txt'
  Transition density matrix of state singlet_A_4 printed to ASCII file 'State_singlet_A_4_Transition.txt'
  Transition density matrix of state singlet_A_5 printed to ASCII file 'State_singlet_A_5_Transition.txt'
  Transition density matrix of state singlet_A_6 printed to ASCII file 'State_singlet_A_6_Transition.txt'
  Transition density matrix of state singlet_A_7 printed to ASCII file 'State_singlet_A_7_Transition.txt'
  Transition density matrix of state singlet_A_8 printed to ASCII file 'State_singlet_A_8_Transition.txt'
  Transition density matrix of state singlet_A_9 printed to ASCII file 'State_singlet_A_9_Transition.txt'
  Transition density matrix of state singlet_A_10 printed to ASCII file 'State_singlet_A_10_Transition.txt'
  Transition properties ...  CPU 0.16 s  wall 0.41 s
  Difference density matrix of state singlet_A_1 printed to ASCII file 'State_singlet_A_1_Difference.txt'
  Total density matrix of state singlet_A_1 printed to ASCII file 'State_singlet_A_1_Total.txt'
  Difference density matrix of state singlet_A_2 printed to ASCII file 'State_singlet_A_2_Difference.txt'
  Total density matrix of state singlet_A_2 printed to ASCII file 'State_singlet_A_2_Total.txt'
  Difference density matrix of state singlet_A_3 printed to ASCII file 'State_singlet_A_3_Difference.txt'
  Total density matrix of state singlet_A_3 printed to ASCII file 'State_singlet_A_3_Total.txt'
  Difference density matrix of state singlet_A_4 printed to ASCII file 'State_singlet_A_4_Difference.txt'
  Total density matrix of state singlet_A_4 printed to ASCII file 'State_singlet_A_4_Total.txt'
  Difference density matrix of state singlet_A_5 printed to ASCII file 'State_singlet_A_5_Difference.txt'
  Total density matrix of state singlet_A_5 printed to ASCII file 'State_singlet_A_5_Total.txt'
  Difference density matrix of state singlet_A_6 printed to ASCII file 'State_singlet_A_6_Difference.txt'
  Total density matrix of state singlet_A_6 printed to ASCII file 'State_singlet_A_6_Total.txt'
  Difference density matrix of state singlet_A_7 printed to ASCII file 'State_singlet_A_7_Difference.txt'
  Total density matrix of state singlet_A_7 printed to ASCII file 'State_singlet_A_7_Total.txt'
  Difference density matrix of state singlet_A_8 printed to ASCII file 'State_singlet_A_8_Difference.txt'
  Total density matrix of state singlet_A_8 printed to ASCII file 'State_singlet_A_8_Total.txt'
  Difference density matrix of state singlet_A_9 printed to ASCII file 'State_singlet_A_9_Difference.txt'
  Total density matrix of state singlet_A_9 printed to ASCII file 'State_singlet_A_9_Total.txt'
  Difference density matrix of state singlet_A_10 printed to ASCII file 'State_singlet_A_10_Difference.txt'
  Total density matrix of state singlet_A_10 printed to ASCII file 'State_singlet_A_10_Total.txt'
  Properties ...  CPU 0.31 s  wall 0.61 s
  ISR TDMS ...  CPU 8.88 s  wall 3.16 s
  ISR transition properties ...  CPU 0.18 s  wall 0.08 s
  Sum-over-states TPA ...  CPU 0.00 s  wall 0.00 s

--------------------------------------------------------------------------------
                   State-averaged natural transition orbitals
--------------------------------------------------------------------------------
--------------------------------------------------------------------------------
  SA-NTO decomposition ...  CPU 0.01 s  wall 0.03 s

--------------------------------------------------------------------------------
                             Excited State Summary
--------------------------------------------------------------------------------
--------------------------------------------------------------------------------

  Excited state 1 (singlet, A)                                     [converged]
  ----------------------------------------------------------------------------
  Term symbol:  2 (1) A                                     R^2 =  7.76903e-13

  Total energy:                                            -77.9985365478 a.u.
  Excitation energy:                                               8.736358 eV

  Osc. strength:                                                      0.445518
  Trans. dip. moment [a.u.]:           [  -1.046421,    0.993187,    0.009137]
  <i|r^2|0> [a.u.]:                    [  -6.173212,    0.250545,    0.000377]
  Two-photon absorption cross-section (SoS) [a.u.]:                   0.002527
  Two-photon absorption matrix (SoS) [a.u.]:
                                       |   -0.013368    0.004943    0.000664 |
                                       |    0.004943   -0.000038    0.000588 |
                                       |    0.000664    0.000588   -0.010645 |
  Two-photon absorption cross-section [a.u.]:                         0.001844
  Two-photon absorption matrix [a.u.]:
                                       |   -0.004123    0.006448   -0.000878 |
                                       |    0.006448    0.016356   -0.001609 |
                                       |   -0.000878   -0.001609   -0.009028 |

  Dip. moment [a.u.]:                  [  -0.001411,    0.000866,    0.000703]
  Total dipole [Debye]:                                               0.004572
  <r^2> [a.u.]:                        [ 176.248916,   35.640779,   11.865902]
  Total <r^2> [a.u.]:                                               223.755597

  V1^2 = 0.9715, V2^2 = 0.0285

  Important amplitudes:
      occ i     occ j     vir a      vir b          v   
    -----------------------------------------------------
     8 (A) A              9 (A) A                -0.6811
     6 (A) A             14 (A) A                 0.0622
     4 (A) A             10 (A) A                 0.0605
     7 (A) A             16 (A) A                -0.0572
     5 (A) A             13 (A) A                 0.0514
     6 (A) A             23 (A) A                 0.0484
     8 (A) A             20 (A) A                -0.0349
     6 (A) A             19 (A) A                 0.0310
     3 (A) A             12 (A) A                -0.0281
     5 (A) A             22 (A) A                -0.0215
     7 (A) A             11 (A) A                -0.0205
     4 (A) A             24 (A) A                 0.0187
     3 (A) A             26 (A) A                 0.0185
     8 (A) A   8 (A) B   17 (A) A   20 (A) B      0.0184
     8 (A) A   8 (A) B    9 (A) A   28 (A) B      0.0168
     6 (A) A             26 (A) A                 0.0164
     7 (A) A             21 (A) A                -0.0147
     3 (A) A             14 (A) A                 0.0139
     6 (A) A             12 (A) A                 0.0131
     3 (A) A   4 (A) B    9 (A) A    9 (A) B     -0.0129
     3 (A) A             19 (A) A                 0.0119
     8 (A) A   8 (A) B   18 (A) A   19 (A) B     -0.0113
     7 (A) A             32 (A) A                -0.0094
     7 (A) A             36 (A) A                -0.0086
     3 (A) A             23 (A) A                 0.0080
     8 (A) A   8 (A) B   25 (A) A   29 (A) B     -0.0076
     6 (A) A             35 (A) A                 0.0072
     6 (A) A             40 (A) A                 0.0068
     3 (A) A   6 (A) B    9 (A) A   28 (A) B      0.0065
     6 (A) A   8 (A) A   19 (A) A   28 (A) A      0.0061
     5 (A) A   7 (A) B    9 (A) A    9 (A) B      0.0060
     5 (A) A   8 (A) B   11 (A) A   20 (A) B      0.0059
     7 (A) A   8 (A) B   13 (A) A   20 (A) B     -0.0059
     5 (A) A   8 (A) B   16 (A) A    9 (A) B      0.0059
     5 (A) A   8 (A) B   11 (A) A    9 (A) B     -0.0059
     3 (A) A   5 (A) B    9 (A) A   25 (A) B      0.0058
     3 (A) A             40 (A) A                 0.0057
     7 (A) A   8 (A) B   22 (A) A   20 (A) B      0.0057
     6 (A) A   8 (A) A    9 (A) A   18 (A) A      0.0056
     8 (A) A   8 (A) B   19 (A) A   30 (A) B     -0.0056
    -----------------------------------------------------

  Density matrix analysis:
  ------------------------
  NOs
    Occupation of frontier NOs:
       0.9496   1.0216
    Number of electrons: 16.000000
    Number of unpaired electrons: n_u =  2.31328, n_u,nl =  2.03260
    NO participation ratio (PR_NO):  2.863308
  
  
  Mulliken Population Analysis
  Atom      Charge (e)              h+              e-           Del q
  --------------------------------------------------------------------
   1 H        0.058796        0.020270       -0.012533        0.007738
   2 C       -0.115638        0.490968       -0.506131       -0.015164
   3 H        0.058371        0.020214       -0.012585        0.007629
   4 C       -0.116918        0.490627       -0.506460       -0.015833
   5 H        0.057385        0.020267       -0.012496        0.007770
   6 H        0.058004        0.020357       -0.012498        0.007860
  --------------------------------------------------------------------
  Sum:        0.000000        1.062703       -1.062703       -0.000000
  
  Multipole moment analysis of the density matrix
    Molecular charge:                      0.000000
    Number of electrons:                   16.000000
      Center of electronic charge [Ang]: [ -1.561155,  -0.065631,   0.001955]
    Total nuclear charge:                  16.000000
      Center of nuclear charge [Ang]:    [ -1.561201,  -0.065602,   0.001978]
    Dipole moment [D]:                     0.004572
      Cartesian components [D]:          [ -0.003587,   0.002202,   0.001786]
    RMS size of the density [Ang]:         1.214334
      Cartesian components [Ang]:        [  0.804653,   0.787064,   0.455709]
  
  Exciton analysis of the difference density matrix
    <r_h> [Ang]:                  [ -1.560410,  -0.065878,   0.001690]
    <r_e> [Ang]:                  [ -1.560463,  -0.065644,   0.001631]
    |<r_e - r_h>| [Ang]:            0.000247
    Hole size [Ang]:                1.285466
      Cartesian components [Ang]: [  0.728593,   0.712616,   0.783424]
    Electron size [Ang]:            1.463159
      Cartesian components [Ang]: [  0.853983,   0.830479,   0.849620]

  Transition density matrix analysis:
  -----------------------------------
  
  CT numbers (Mulliken)
    omega =     0.9535
    <Phe> =    -0.1608
  
  Exciton analysis of the transition density matrix
    Trans. dipole moment [D]:             1.833540
      Cartesian components [D]:         [ -1.329868,   1.262214,   0.011612]
    <r_h> [Ang]:                        [ -1.560091,  -0.066083,   0.001748]
    <r_e> [Ang]:                        [ -1.560508,  -0.065634,   0.001584]
    |<r_e - r_h>| [Ang]:                  0.000635
    Hole size [Ang]:                      1.214135
      Cartesian components [Ang]:       [  0.649633,   0.636387,   0.804433]
    Electron size [Ang]:                  1.486042
      Cartesian components [Ang]:       [  0.864463,   0.839371,   0.869758]
    RMS electron-hole separation [Ang]:   1.936862
      Cartesian components [Ang]:       [  1.106846,   1.075294,   1.170500]
    Covariance(r_h, r_e) [Ang^2]:        -0.034496
    Correlation coefficient:             -0.019119
    Center-of-mass size [Ang]:            0.950454
      Cartesian components [Ang]:       [  0.527620,   0.515463,   0.599398]

  Decomposition into state-averaged NTOs
    H- 0 -> L+ 0:  0.6699 ( 89.8%)
    H- 2 -> L+ 5: -0.0836 (  1.4%)
                   omega =  95.4%
  ----------------------------------------------------------------------------


  Excited state 2 (singlet, A)                                     [converged]
  ----------------------------------------------------------------------------
  Term symbol:  3 (1) A                                     R^2 =  4.92998e-13

  Total energy:                                            -77.9870559409 a.u.
  Excitation energy:                                               9.048761 eV

  Osc. strength:                                                      0.000027
  Trans. dip. moment [a.u.]:           [   0.004588,   -0.005765,    0.008089]
  <i|r^2|0> [a.u.]:                    [  -0.038226,   -0.086563,    0.150366]
  Two-photon absorption cross-section (SoS) [a.u.]:                   4.794498
  Two-photon absorption matrix (SoS) [a.u.]:
                                       |   -0.052879   -0.058272    0.535785 |
                                       |   -0.058272   -0.063779    0.546469 |
                                       |    0.535785    0.546469    0.116541 |
  Two-photon absorption cross-section [a.u.]:                         0.077676
  Two-photon absorption matrix [a.u.]:
                                       |    0.001932    0.007105   -0.066202 |
                                       |    0.007105    0.012839   -0.071283 |
                                       |   -0.066202   -0.071283   -0.014879 |

  Dip. moment [a.u.]:                  [  -0.004953,    0.021309,    0.002357]
  Total dipole [Debye]:                                               0.055929
  <r^2> [a.u.]:                        [ 174.609004,   33.994446,   13.172098]
  Total <r^2> [a.u.]:                                               221.775548

  V1^2 = 0.9542, V2^2 = 0.0458

  Important amplitudes:
      occ i     occ j     vir a      vir b          v   
    -----------------------------------------------------
     7 (A) A              9 (A) A                 0.6694
     8 (A) A             11 (A) A                 0.1467
     7 (A) A             20 (A) A                 0.0759
     5 (A) A   8 (A) B    9 (A) A    9 (A) B     -0.0317
     8 (A) A             16 (A) A                -0.0272
     8 (A) A             21 (A) A                 0.0174
     8 (A) A             10 (A) A                -0.0164
     5 (A) A             28 (A) A                -0.0151
     4 (A) A   7 (A) B    9 (A) A   19 (A) B     -0.0135
     5 (A) A   7 (A) B    9 (A) A   16 (A) B      0.0134
     7 (A) A   8 (A) B   20 (A) A   17 (A) B     -0.0105
     7 (A) A   8 (A) A    9 (A) A   28 (A) A      0.0098
     5 (A) A   8 (A) B    9 (A) A   20 (A) B     -0.0096
     4 (A) A   6 (A) B    9 (A) A   16 (A) B      0.0091
     5 (A) A   6 (A) A    9 (A) A   23 (A) A     -0.0091
     5 (A) A   6 (A) A    9 (A) A   14 (A) A     -0.0089
     5 (A) A   6 (A) B    9 (A) A   19 (A) B     -0.0087
     8 (A) A   7 (A) B    9 (A) A   28 (A) B     -0.0085
     4 (A) A   5 (A) A    9 (A) A   10 (A) A      0.0084
     6 (A) A   7 (A) B    9 (A) A   18 (A) B     -0.0083
     5 (A) A   6 (A) B    9 (A) A   23 (A) B     -0.0080
     3 (A) A   7 (A) B    9 (A) A   18 (A) B      0.0080
     5 (A) A   7 (A) A    9 (A) A   16 (A) A      0.0079
     4 (A) A   8 (A) B    9 (A) A   25 (A) B      0.0077
     7 (A) A   8 (A) B   17 (A) A   20 (A) B     -0.0074
     4 (A) A   7 (A) B   19 (A) A    9 (A) B     -0.0074
     5 (A) A   5 (A) B    9 (A) A   13 (A) B     -0.0072
     7 (A) A   8 (A) B   19 (A) A   18 (A) B      0.0072
     5 (A) A   8 (A) A    9 (A) A   20 (A) A     -0.0069
     4 (A) A   5 (A) B    9 (A) A   18 (A) B     -0.0068
     7 (A) A   7 (A) B   20 (A) A   22 (A) B     -0.0065
     7 (A) A   8 (A) B   17 (A) A    9 (A) B     -0.0065
     5 (A) A   6 (A) B    9 (A) A   14 (A) B     -0.0064
     4 (A) A   7 (A) A    9 (A) A   19 (A) A     -0.0061
     4 (A) A   5 (A) B   10 (A) A    9 (A) B     -0.0061
     5 (A) A   7 (A) B   11 (A) A   20 (A) B     -0.0060
     5 (A) A             38 (A) A                -0.0060
     4 (A) A   7 (A) B    9 (A) A   14 (A) B      0.0059
     6 (A) A   7 (A) A   19 (A) A   28 (A) A     -0.0057
     4 (A) A   8 (A) A    9 (A) A   25 (A) A      0.0057
    -----------------------------------------------------

  Density matrix analysis:
  ------------------------
  NOs
    Occupation of frontier NOs:
       0.9585   1.0533
    Number of electrons: 16.000000
    Number of unpaired electrons: n_u =  2.35521, n_u,nl =  2.06244
    NO participation ratio (PR_NO):  3.024478
  
  
  Mulliken Population Analysis
  Atom      Charge (e)              h+              e-           Del q
  --------------------------------------------------------------------
   1 H        0.151262        0.121901       -0.021697        0.100204
   2 C       -0.301979        0.269916       -0.471421       -0.201505
   3 H        0.149117        0.125575       -0.027201        0.098374
   4 C       -0.302475        0.274224       -0.475614       -0.201390
   5 H        0.154591        0.126341       -0.021365        0.104976
   6 H        0.149485        0.126291       -0.026950        0.099340
  --------------------------------------------------------------------
  Sum:        0.000000        1.044248       -1.044248       -0.000000
  
  Multipole moment analysis of the density matrix
    Molecular charge:                      0.000000
    Number of electrons:                   16.000000
      Center of electronic charge [Ang]: [ -1.561037,  -0.066307,   0.001900]
    Total nuclear charge:                  16.000000
      Center of nuclear charge [Ang]:    [ -1.561201,  -0.065602,   0.001978]
    Dipole moment [D]:                     0.055929
      Cartesian components [D]:          [ -0.012589,   0.054163,   0.005990]
    RMS size of the density [Ang]:         1.200096
      Cartesian components [Ang]:        [  0.786849,   0.768483,   0.480137]
  
  Exciton analysis of the difference density matrix
    <r_h> [Ang]:                  [ -1.570963,  -0.061967,   0.001800]
    <r_e> [Ang]:                  [ -1.569222,  -0.072088,   0.000903]
    |<r_e - r_h>| [Ang]:            0.010309
    Hole size [Ang]:                1.486516
      Cartesian components [Ang]: [  1.004555,   0.997165,   0.454159]
    Electron size [Ang]:            1.476498
      Cartesian components [Ang]: [  0.881447,   0.858226,   0.816423]

  Transition density matrix analysis:
  -----------------------------------
  
  CT numbers (Mulliken)
    omega =     0.9218
    <Phe> =    -0.0122
  
  Exciton analysis of the transition density matrix
    Trans. dipole moment [D]:             0.013905
      Cartesian components [D]:         [  0.005831,  -0.007326,   0.010280]
    <r_h> [Ang]:                        [ -1.572295,  -0.060900,   0.001882]
    <r_e> [Ang]:                        [ -1.568514,  -0.073315,   0.000776]
    |<r_e - r_h>| [Ang]:                  0.013025
    Hole size [Ang]:                      1.515340
      Cartesian components [Ang]:       [  1.027879,   1.021173,   0.443761]
    Electron size [Ang]:                  1.473558
      Cartesian components [Ang]:       [  0.871892,   0.847627,   0.832289]
    RMS electron-hole separation [Ang]:   2.093867
      Cartesian components [Ang]:       [  1.331979,   1.312207,   0.942457]
    Covariance(r_h, r_e) [Ang^2]:         0.041758
    Correlation coefficient:              0.018701
    Center-of-mass size [Ang]:            1.066670
      Cartesian components [Ang]:       [  0.681782,   0.670970,   0.471972]

  Decomposition into state-averaged NTOs
    H- 1 -> L+ 0: -0.6618 ( 87.6%)
    H- 0 -> L+ 2: -0.1464 (  4.3%)
                   omega =  92.2%
  ----------------------------------------------------------------------------


  Excited state 3 (singlet, A)                                     [converged]
  ----------------------------------------------------------------------------
  Term symbol:  4 (1) A                                     R^2 =  6.43903e-13

  Total energy:                                            -77.9822670965 a.u.
  Excitation energy:                                               9.179072 eV

  Osc. strength:                                                      0.025403
  Trans. dip. moment [a.u.]:           [   0.015370,    0.020444,   -0.335120]
  <i|r^2|0> [a.u.]:                    [   0.091580,    0.000260,    0.005767]
  Two-photon absorption cross-section (SoS) [a.u.]:                   0.020004
  Two-photon absorption matrix (SoS) [a.u.]:
                                       |    0.021862    0.004494   -0.035893 |
                                       |    0.004494   -0.013803   -0.029082 |
                                       |   -0.035893   -0.029082   -0.001453 |
  Two-photon absorption cross-section [a.u.]:                         0.020240
  Two-photon absorption matrix [a.u.]:
                                       |    0.019395    0.003468   -0.042168 |
                                       |    0.003468   -0.007853   -0.022327 |
                                       |   -0.042168   -0.022327   -0.003322 |

  Dip. moment [a.u.]:                  [   0.014863,    0.043421,    0.002511]
  Total dipole [Debye]:                                               0.116825
  <r^2> [a.u.]:                        [ 181.095104,   40.616013,   11.031159]
  Total <r^2> [a.u.]:                                               232.742275

  V1^2 = 0.9587, V2^2 = 0.0413

  Important amplitudes:
      occ i     occ j     vir a      vir b          v   
    -----------------------------------------------------
     8 (A) A             10 (A) A                 0.6889
     8 (A) A             24 (A) A                 0.0507
     8 (A) A             18 (A) A                -0.0312
     4 (A) A              9 (A) A                -0.0237
     8 (A) A   8 (A) B    9 (A) A   12 (A) B      0.0219
     8 (A) A   8 (A) B   10 (A) A   17 (A) B      0.0173
     7 (A) A              9 (A) A                 0.0170
     5 (A) A   8 (A) B   11 (A) A   10 (A) B      0.0166
     8 (A) A             15 (A) A                 0.0165
     7 (A) A   8 (A) B   13 (A) A   10 (A) B     -0.0141
     4 (A) A   8 (A) B   12 (A) A   10 (A) B     -0.0111
     6 (A) A   8 (A) A   10 (A) A   15 (A) A     -0.0111
     7 (A) A   8 (A) B   22 (A) A   10 (A) B      0.0108
     6 (A) A   8 (A) B   15 (A) A   10 (A) B      0.0108
     4 (A) A   8 (A) A   10 (A) A   12 (A) A      0.0106
     7 (A) A   8 (A) A   10 (A) A   22 (A) A     -0.0099
     7 (A) A   8 (A) A   10 (A) A   13 (A) A      0.0098
     5 (A) A   8 (A) A   10 (A) A   11 (A) A     -0.0094
     5 (A) A   8 (A) B   21 (A) A   10 (A) B      0.0094
     6 (A) A   8 (A) A   10 (A) A   18 (A) A     -0.0087
     6 (A) A   8 (A) B   10 (A) A   10 (A) B     -0.0087
     7 (A) A   8 (A) A   12 (A) A   16 (A) A      0.0082
     5 (A) A   8 (A) A   10 (A) A   21 (A) A     -0.0080
     3 (A) A   4 (A) B   10 (A) A    9 (A) B      0.0079
     8 (A) A   8 (A) B    9 (A) A   23 (A) B      0.0075
     4 (A) A   8 (A) B   19 (A) A   10 (A) B      0.0075
     8 (A) A   8 (A) B   10 (A) A   28 (A) B     -0.0073
     3 (A) A   8 (A) B   10 (A) A   10 (A) B      0.0072
     5 (A) A   8 (A) B   10 (A) A   11 (A) B      0.0071
     3 (A) A   8 (A) A   10 (A) A   24 (A) A     -0.0071
     7 (A) A   8 (A) B   16 (A) A   12 (A) B     -0.0071
     3 (A) A   8 (A) B   10 (A) A   18 (A) B     -0.0069
     8 (A) A   8 (A) B    9 (A) A   19 (A) B     -0.0068
     6 (A) A   8 (A) B   18 (A) A   10 (A) B      0.0066
     3 (A) A   6 (A) B   10 (A) A   28 (A) B     -0.0062
     7 (A) A   8 (A) B   12 (A) A   11 (A) B      0.0057
     6 (A) A             28 (A) A                 0.0057
     3 (A) A   5 (A) B   10 (A) A   25 (A) B     -0.0056
     5 (A) A   8 (A) A   10 (A) A   16 (A) A      0.0056
     3 (A) A   8 (A) A   10 (A) A   18 (A) A     -0.0055
    -----------------------------------------------------

  Density matrix analysis:
  ------------------------
  NOs
    Occupation of frontier NOs:
       0.9820   0.9845
    Number of electrons: 16.000000
    Number of unpaired electrons: n_u =  2.28631, n_u,nl =  2.02464
    NO participation ratio (PR_NO):  2.694292
  
  
  Mulliken Population Analysis
  Atom      Charge (e)              h+              e-           Del q
  --------------------------------------------------------------------
   1 H       -0.161135        0.054087       -0.266281       -0.212194
   2 C        0.329502        0.539328       -0.109351        0.429977
   3 H       -0.171259        0.053572       -0.275574       -0.222001
   4 C        0.327913        0.536157       -0.107158        0.428999
   5 H       -0.158346        0.054237       -0.262198       -0.207961
   6 H       -0.166675        0.053881       -0.270701       -0.216820
  --------------------------------------------------------------------
  Sum:        0.000000        1.291263       -1.291263       -0.000000
  
  Multipole moment analysis of the density matrix
    Molecular charge:                      0.000000
    Number of electrons:                   16.000000
      Center of electronic charge [Ang]: [ -1.561693,  -0.067038,   0.001895]
    Total nuclear charge:                  16.000000
      Center of nuclear charge [Ang]:    [ -1.561201,  -0.065602,   0.001978]
    Dipole moment [D]:                     0.116825
      Cartesian components [D]:          [  0.037778,   0.110364,   0.006382]
    RMS size of the density [Ang]:         1.276723
      Cartesian components [Ang]:        [  0.854753,   0.840451,   0.439387]
  
  Exciton analysis of the difference density matrix
    <r_h> [Ang]:                  [ -1.560103,  -0.066836,   0.001778]
    <r_e> [Ang]:                  [ -1.566816,  -0.084083,   0.000989]
    |<r_e - r_h>| [Ang]:            0.018524
    Hole size [Ang]:                1.410631
      Cartesian components [Ang]: [  0.834522,   0.820016,   0.788051]
    Electron size [Ang]:            2.077799
      Cartesian components [Ang]: [  1.374718,   1.377835,   0.727301]

  Transition density matrix analysis:
  -----------------------------------
  
  CT numbers (Mulliken)
    omega =     0.9259
    <Phe> =    -0.0108
  
  Exciton analysis of the transition density matrix
    Trans. dipole moment [D]:             0.427133
      Cartesian components [D]:         [  0.019533,   0.025982,  -0.425895]
    <r_h> [Ang]:                        [ -1.559052,  -0.065321,   0.001760]
    <r_e> [Ang]:                        [ -1.568526,  -0.090372,   0.000680]
    |<r_e - r_h>| [Ang]:                  0.026805
    Hole size [Ang]:                      1.213143
      Cartesian components [Ang]:       [  0.636817,   0.623816,   0.822820]
    Electron size [Ang]:                  2.298036
      Cartesian components [Ang]:       [  1.519326,   1.525105,   0.804160]
    RMS electron-hole separation [Ang]:   2.588814
      Cartesian components [Ang]:       [  1.639918,   1.640950,   1.148873]
    Covariance(r_h, r_e) [Ang^2]:         0.025723
    Correlation coefficient:              0.009227
    Center-of-mass size [Ang]:            1.304236
      Cartesian components [Ang]:       [  0.827425,   0.827360,   0.576087]

  Decomposition into state-averaged NTOs
    H- 0 -> L+ 1:  0.6795 ( 92.3%)
                   omega =  92.6%
  ----------------------------------------------------------------------------


  Excited state 4 (singlet, A)                                     [converged]
  ----------------------------------------------------------------------------
  Term symbol:  5 (1) A                                     R^2 =  4.25684e-13

  Total energy:                                            -77.9581127203 a.u.
  Excitation energy:                                               9.836346 eV

  Osc. strength:                                                      0.000009
  Trans. dip. moment [a.u.]:           [  -0.001655,    0.002214,   -0.005421]
  <i|r^2|0> [a.u.]:                    [  -0.026820,   -0.018914,    0.036548]
  Two-photon absorption cross-section (SoS) [a.u.]:                 150.016394
  Two-photon absorption matrix (SoS) [a.u.]:
                                       |   -0.291075   -0.325539    3.000073 |
                                       |   -0.325539   -0.361264    3.053738 |
                                       |    3.000073    3.053738    0.652228 |
  Two-photon absorption cross-section [a.u.]:                        91.876313
  Two-photon absorption matrix [a.u.]:
                                       |   -0.230910   -0.254992    2.348403 |
                                       |   -0.254992   -0.279547    2.389254 |
                                       |    2.348403    2.389254    0.510403 |

  Dip. moment [a.u.]:                  [  -0.049058,   -0.034718,   -0.005227]
  Total dipole [Debye]:                                               0.153336
  <r^2> [a.u.]:                        [ 181.132482,   40.538961,   10.758504]
  Total <r^2> [a.u.]:                                               232.429947

  V1^2 = 0.9635, V2^2 = 0.0365

  Important amplitudes:
      occ i     occ j     vir a      vir b          v   
    -----------------------------------------------------
     8 (A) A             11 (A) A                 0.6701
     7 (A) A              9 (A) A                -0.1487
     8 (A) A             21 (A) A                 0.0782
     8 (A) A             16 (A) A                -0.0648
     8 (A) A   8 (A) B    9 (A) A   13 (A) B     -0.0167
     5 (A) A   8 (A) B   11 (A) A   11 (A) B      0.0156
     8 (A) A   8 (A) B   11 (A) A   17 (A) B      0.0140
     7 (A) A             20 (A) A                -0.0135
     7 (A) A   8 (A) B   13 (A) A   11 (A) B     -0.0128
     5 (A) A   8 (A) A   11 (A) A   21 (A) A     -0.0110
     4 (A) A   8 (A) B   12 (A) A   11 (A) B     -0.0110
     8 (A) A   8 (A) B    9 (A) A   22 (A) B      0.0108
     8 (A) A             12 (A) A                 0.0097
     7 (A) A   8 (A) A   11 (A) A   22 (A) A     -0.0096
     6 (A) A   8 (A) B   15 (A) A   11 (A) B      0.0090
     6 (A) A   8 (A) B   10 (A) A   11 (A) B     -0.0090
     7 (A) A   8 (A) B   22 (A) A   11 (A) B      0.0089
     3 (A) A   4 (A) B   11 (A) A    9 (A) B      0.0083
     3 (A) A   8 (A) B   11 (A) A   18 (A) B     -0.0081
     6 (A) A   8 (A) A   11 (A) A   15 (A) A     -0.0081
     7 (A) A   8 (A) A   13 (A) A   16 (A) A     -0.0078
     7 (A) A   8 (A) A   11 (A) A   13 (A) A      0.0077
     5 (A) A   8 (A) B   21 (A) A   11 (A) B      0.0071
     4 (A) A   8 (A) B   19 (A) A   11 (A) B      0.0070
     5 (A) A   8 (A) B    9 (A) A    9 (A) B      0.0067
     4 (A) A   8 (A) A   11 (A) A   12 (A) A      0.0062
     6 (A) A   8 (A) A   11 (A) A   18 (A) A     -0.0062
     3 (A) A   6 (A) B   11 (A) A   28 (A) B     -0.0060
     6 (A) A   8 (A) B   18 (A) A   11 (A) B      0.0059
     7 (A) A   8 (A) B   16 (A) A   13 (A) B      0.0057
     3 (A) A   8 (A) A   11 (A) A   18 (A) A     -0.0056
     5 (A) A   8 (A) B   10 (A) A   10 (A) B      0.0056
     3 (A) A   8 (A) B   11 (A) A   30 (A) B     -0.0055
     3 (A) A   5 (A) B   11 (A) A   25 (A) B     -0.0055
     6 (A) A   8 (A) B   11 (A) A   10 (A) B     -0.0054
     7 (A) A   8 (A) B   12 (A) A   10 (A) B      0.0054
     8 (A) A   8 (A) B   20 (A) A   22 (A) B      0.0053
     3 (A) A   8 (A) A   11 (A) A   24 (A) A     -0.0053
     8 (A) A             10 (A) A                 0.0050
     6 (A) A              9 (A) A                 0.0049
    -----------------------------------------------------

  Density matrix analysis:
  ------------------------
  NOs
    Occupation of frontier NOs:
       0.9418   1.0267
    Number of electrons: 16.000000
    Number of unpaired electrons: n_u =  2.31892, n_u,nl =  2.04836
    NO participation ratio (PR_NO):  2.908070
  
  
  Mulliken Population Analysis
  Atom      Charge (e)              h+              e-           Del q
  --------------------------------------------------------------------
   1 H       -0.152872        0.045835       -0.249766       -0.203930
   2 C        0.276020        0.498042       -0.121548        0.376495
   3 H       -0.124250        0.046431       -0.221424       -0.174993
   4 C        0.273030        0.497037       -0.122921        0.374116
   5 H       -0.137264        0.046755       -0.233633       -0.186879
   6 H       -0.134664        0.045905       -0.230713       -0.184809
  --------------------------------------------------------------------
  Sum:        0.000000        1.180005       -1.180005       -0.000000
  
  Multipole moment analysis of the density matrix
    Molecular charge:                      0.000000
    Number of electrons:                   16.000000
      Center of electronic charge [Ang]: [ -1.559579,  -0.064454,   0.002151]
    Total nuclear charge:                  16.000000
      Center of nuclear charge [Ang]:    [ -1.561201,  -0.065602,   0.001978]
    Dipole moment [D]:                     0.153336
      Cartesian components [D]:          [ -0.124693,  -0.088245,  -0.013285]
    RMS size of the density [Ang]:         1.277299
      Cartesian components [Ang]:        [  0.858985,   0.839851,   0.433922]
  
  Exciton analysis of the difference density matrix
    <r_h> [Ang]:                  [ -1.559423,  -0.064675,   0.001912]
    <r_e> [Ang]:                  [ -1.538104,  -0.048506,   0.004518]
    |<r_e - r_h>| [Ang]:            0.026884
    Hole size [Ang]:                1.394395
      Cartesian components [Ang]: [  0.818613,   0.805640,   0.790668]
    Electron size [Ang]:            2.123839
      Cartesian components [Ang]: [  1.440122,   1.406074,   0.678008]

  Transition density matrix analysis:
  -----------------------------------
  
  CT numbers (Mulliken)
    omega =     0.9298
    <Phe> =    -0.0135
  
  Exciton analysis of the transition density matrix
    Trans. dipole moment [D]:             0.007733
      Cartesian components [D]:         [ -0.002103,   0.002813,  -0.006890]
    <r_h> [Ang]:                        [ -1.560820,  -0.065625,   0.001681]
    <r_e> [Ang]:                        [ -1.533972,  -0.045032,   0.005009]
    |<r_e - r_h>| [Ang]:                  0.034000
    Hole size [Ang]:                      1.227606
      Cartesian components [Ang]:       [  0.658449,   0.648662,   0.807899]
    Electron size [Ang]:                  2.262258
      Cartesian components [Ang]:       [  1.534523,   1.498044,   0.720356]
    RMS electron-hole separation [Ang]:   2.563387
      Cartesian components [Ang]:       [  1.661445,   1.624795,   1.081940]
    Covariance(r_h, r_e) [Ang^2]:         0.027516
    Correlation coefficient:              0.009908
    Center-of-mass size [Ang]:            1.292271
      Cartesian components [Ang]:       [  0.839189,   0.820101,   0.541443]

  Decomposition into state-averaged NTOs
    H- 0 -> L+ 2: -0.6653 ( 88.5%)
    H- 1 -> L+ 0:  0.1467 (  4.3%)
                   omega =  93.0%
  ----------------------------------------------------------------------------


  Excited state 5 (singlet, A)                                     [converged]
  ----------------------------------------------------------------------------
  Term symbol:  6 (1) A                                     R^2 =  4.44783e-13

  Total energy:                                            -77.9440873794 a.u.
  Excitation energy:                                              10.217995 eV

  Osc. strength:                                                      0.000000
  Trans. dip. moment [a.u.]:           [   0.000222,    0.000331,    0.000047]
  <i|r^2|0> [a.u.]:                    [   0.088076,   -0.103401,    0.017006]
  Two-photon absorption cross-section (SoS) [a.u.]:                 190.315167
  Two-photon absorption matrix (SoS) [a.u.]:
                                       |    0.333829    0.043238   -3.474049 |
                                       |    0.043238   -0.401775    3.402813 |
                                       |   -3.474049    3.402813    0.076444 |
  Two-photon absorption cross-section [a.u.]:                        88.636578
  Two-photon absorption matrix [a.u.]:
                                       |    0.229775    0.030446   -2.363431 |
                                       |    0.030446   -0.272180    2.329799 |
                                       |   -2.363431    2.329799    0.053101 |

  Dip. moment [a.u.]:                  [   0.018362,   -0.025446,   -0.000415]
  Total dipole [Debye]:                                               0.079766
  <r^2> [a.u.]:                        [ 178.873557,   38.460989,   11.873164]
  Total <r^2> [a.u.]:                                               229.207709

  V1^2 = 0.9571, V2^2 = 0.0429

  Important amplitudes:
[...]
    16   -1.482054452247e-03
    17   -1.770936070574e-03
    18   -8.012221571179e-05
    19   -3.402189912698e-03
    20    1.128132025147e-02
    21    9.432455716894e-01
    22   -2.338833733130e-04
    23    1.412113924466e-02
    24    8.261064720478e-04
    25    7.002804664757e-02
    26   -5.190598100277e-02
    27   -1.398108569068e+00
    28    9.906911568224e-02
    29   -9.100924246321e-02
    30   -9.678375602172e-04
    31    3.918359819531e-01
    32   -3.614543664704e-01
    33   -3.940261197552e-03
    34    1.575953940916e-02
    35   -1.457439552029e-03
    36   -1.824470218062e-03
    37    1.492339342158e-04
    38   -2.975778855007e-03
    39    8.701822549548e-03
    40    9.293977178114e-01
    41    2.564102258057e-04
    42   -1.394185575555e-02
    43   -8.376880945849e-04
    44    9.750991704963e-03
    45    9.454684548002e-01
    46    1.412789085564e-02
    47    5.895657378952e-04
    48    6.965825353372e-04
Sym=X
Ene= 0.233152
Spin=Alpha
Occup=0
     1    2.629778715622e-02
     2    1.240613784147e+00
     3   -1.439660113353e-02
     4   -3.803124134126e-03
     5   -8.973205755014e-04
     6    3.052892105627e-03
     7   -3.129946464347e-03
     8   -5.464732835187e-02
     9   -1.558044204817e-01
    10   -1.583273676370e-01
    11   -1.665492961072e-02
    12   -5.596190062472e-01
    13   -5.603682314922e-01
    14   -5.923543302776e-02
    15    5.924869600239e-04
    16   -5.770211131368e-05
    17   -7.386247825851e-05
    18   -6.263882876647e-05
    19   -3.426337847407e-04
    20   -2.527061097737e-02
    21   -1.162704088856e+00
    22   -2.533148612101e-03
    23   -1.349630432308e-02
    24   -9.175940085482e-04
    25   -1.960194431809e-03
    26    2.257835261006e-03
    27    2.520734689299e-02
    28   -1.527385488491e-01
    29   -1.599376253751e-01
    30   -1.693396397341e-02
    31   -5.369483130739e-01
    32   -5.585327006584e-01
    33   -5.941470884961e-02
    34   -3.913845078775e-04
    35    5.225568565496e-05
    36    8.463313279488e-07
    37    3.722814078033e-04
    38    2.742462487410e-04
    39    2.521598441326e-02
    40    1.166979039178e+00
    41   -2.493281296509e-03
    42   -1.375255295594e-02
    43   -9.516274565311e-04
    44   -2.651728639160e-02
    45   -1.207701944778e+00
    46   -1.408094805461e-02
    47   -3.651732108429e-03
    48   -8.893449663939e-04
Sym=X
Ene= 0.239244
Spin=Alpha
Occup=0
     1   -1.621281430242e-02
     2   -1.058638399969e+00
     3    1.661593400121e-02
     4    9.099431974212e-03
     5    1.337050759765e-03
     6   -8.641993635792e-02
     7    7.996674289712e-02
     8    1.586350265263e+00
     9    5.382036939233e-02
    10   -5.931773257088e-02
    11   -8.138745110520e-04
    12    2.179551652226e-01
    13   -2.306727385241e-01
    14   -2.625825673825e-03
    15   -2.247907576641e-02
    16    2.621280781264e-03
    17    2.936501896712e-03
    18   -3.432922208932e-04
    19    1.278448696164e-02
    20   -1.686908534104e-02
    21   -1.113805047197e+00
    22   -8.537373235749e-03
    23   -1.756170341844e-02
    24   -1.437967423215e-03
    25    8.639989954118e-02
    26   -7.915127377255e-02
    27   -1.596805251194e+00
    28    5.420622152412e-02
    29   -6.064894119958e-02
    30   -1.360481978348e-03
    31    2.158999184147e-01
    32   -2.453887131940e-01
    33   -5.646621637839e-03
    34    2.269085327818e-02
    35   -2.564798490919e-03
    36   -3.051693788417e-03
    37    1.029368073735e-03
    38   -1.263118758395e-02
    39    1.651900636549e-02
    40    1.133946901772e+00
    41   -8.671005182219e-03
    42   -1.802509781550e-02
    43   -1.511152921529e-03
    44    1.522890378253e-02
    45    1.050611909746e+00
    46    1.635998731377e-02
    47    9.506619223664e-03
    48    1.323465361167e-03
Sym=X
Ene= 0.303326
Spin=Alpha
Occup=0
     1   -2.092064126644e-02
     2    1.683607269426e+00
     3   -2.284491684401e-02
     4    3.548669298886e-04
     5   -1.068518686430e-03
     6   -5.186451180488e-04
     7   -4.059816326256e-06
     8    1.696226383931e-02
     9   -1.330726172486e-01
    10   -1.396458940140e-01
    11   -1.453293252287e-02
    12   -1.145822241271e+00
    13   -1.189942296964e+00
    14   -1.249023692858e-01
    15   -3.397657368266e-04
    16   -1.647918465021e-03
    17    1.896309714201e-03
    18   -3.298988862049e-02
    19   -1.494997014994e-03
    20    2.031532546869e-02
    21   -1.690845902467e+00
    22    1.398421613820e-03
    23   -2.308495409824e-02
    24   -1.288198804972e-03
    25    4.218835640655e-04
    26    2.765302158802e-04
    27   -1.677639840526e-02
    28    1.349225793924e-01
    29    1.410406210653e-01
    30    1.489872382676e-02
    31    1.132532539060e+00
    32    1.203620884016e+00
    33    1.257413600599e-01
    34    2.540057501859e-04
    35   -1.632875768712e-03
    36    1.898558460960e-03
    37   -3.272443832044e-02
    38   -1.824968092099e-03
    39    1.980856170304e-02
    40   -1.695575871295e+00
    41   -1.844099895592e-03
    42    2.283712765191e-02
    43    1.290880535979e-03
    44   -1.952241020875e-02
    45    1.703186306297e+00
    46    2.324670487950e-02
    47   -4.933877703623e-04
    48    1.069251074487e-03
Sym=X
Ene= 0.462581
Spin=Alpha
Occup=0
     1   -1.179617286148e-01
     2   -7.139078100540e-01
     3   -1.578538840279e-02
     4   -1.049011857078e-02
     5   -1.359345368273e-03
     6    6.101766810263e-02
     7    1.741218795767e-02
     8   -3.600342347742e+00
     9    1.019779038712e-01
    10   -9.823354823094e-02
    11   -1.015110408753e-03
    12    2.434504817032e+00
    13   -2.312040548280e+00
    14   -2.105403302117e-02
    15    5.394958418384e-02
    16   -3.406941789505e-03
    17   -4.675914890369e-03
    18   -1.109275352230e-03
    19    1.762661084628e-02
    20   -1.222252003174e-01
    21   -7.045258818642e-01
    22    8.944917088805e-03
    23    1.625750023216e-02
    24    1.384721781199e-03
    25   -6.128927986040e-02
    26   -1.515162355793e-02
    27    3.597896685386e+00
    28    1.067104906672e-01
    29   -1.006661616431e-01
    30   -1.220372331525e-03
    31    2.428233444404e+00
    32   -2.302254047762e+00
    33   -2.206746153022e-02
    34   -5.195664864859e-02
    35    3.185120474081e-03
    36    4.429126696513e-03
    37    7.194788587872e-04
    38   -1.973260217679e-02
    39    1.089360138221e-01
    40    7.223197418409e-01
    41    8.784269075571e-03
    42    1.607137189527e-02
    43    1.377056905142e-03
    44    1.087413302569e-01
    45    7.194590595836e-01
    46   -1.530262258040e-02
    47   -9.541242010019e-03
    48   -1.312564703307e-03
Sym=X
Ene= 0.578013
Spin=Alpha
Occup=0
     1    2.420031033710e-01
     2    3.534796800218e-02
     3   -1.920017496965e-02
     4    2.588542277996e-02
     5    6.224183722400e-04
     6   -4.020427024538e-03
     7   -1.589222699965e-01
     8   -4.967561962608e-01
     9    3.012247073618e-01
    10   -2.899234797818e-01
    11   -2.938657704085e-03
    12   -7.000991882659e-01
    13    6.774682318402e-01
    14    7.194628420361e-03
    15   -4.936703336392e-03
    16    3.780678185920e-03
    17    3.646345962909e-03
    18   -4.634297571352e-03
    19    5.998499594733e-02
    20    2.561806748683e-01
    21    2.244194443326e-02
    22   -2.577523969834e-02
    23    1.653686643246e-02
    24   -2.430105853710e-04
    25   -6.459992086191e-03
    26   -1.602541852540e-01
    27   -3.814182667643e-01
    28   -2.991463901613e-01
    29    2.834015563969e-01
    30    2.595655135061e-03
    31    7.910685635753e-01
    32   -7.508826605072e-01
    33   -7.527311620754e-03
    34   -4.824481127979e-03
    35    3.873299269250e-03
    36    3.511562371262e-03
    37   -2.450553114953e-03
    38    5.997775893177e-02
    39    2.418015667200e-01
    40    7.005593058002e-02
    41    2.777560010002e-02
    42   -1.804837288394e-02
    43    2.240931665316e-04
    44    2.510335049212e-01
    45    6.289362743053e-02
    46    1.863008893952e-02
    47   -2.579565707288e-02
    48   -6.748075298133e-04
Sym=X
Ene= 0.614110
Spin=Alpha
Occup=0
     1   -5.219848748633e-01
     2    2.010255807910e-01
     3   -6.073758740335e-02
     4    3.728062232933e-02
     5   -6.956592370187e-04
     6   -5.414313088340e-04
     7   -5.417813284895e-04
     8    3.883047737765e-03
     9   -4.150726568613e-02
    10   -3.779617495300e-02
    11   -4.270930045705e-03
    12    2.986783005995e-01
    13    2.789345983738e-01
    14    3.036625709732e-02
    15    1.589394435705e-03
    16   -7.587178760379e-03
    17    8.161441428229e-03
    18   -1.468273862933e-01
    19   -7.366269031671e-03
    20    5.048158155242e-01
    21   -2.035965487767e-01
    22    4.209796531627e-02
    23   -5.832852952622e-02
    24   -1.464859454068e-03
    25    4.423202111218e-05
    26   -1.815075792066e-03
    27    2.351375130733e-02
    28   -3.873639680751e-02
    29   -4.390050175405e-02
    30   -4.405059394647e-03
    31    2.888768679503e-01
    32    3.115397577018e-01
    33    3.268785974676e-02
    34   -4.721912743309e-04
    35    7.373681477069e-03
    36   -8.676141706866e-03
    37    1.490519405787e-01
    38    6.892961819117e-03
    39   -5.219434737074e-01
    40    2.037432831303e-01
    41    3.977257345140e-02
    42   -5.842313500756e-02
    43   -1.630697194447e-03
    44    5.173312230050e-01
    45   -2.095761000546e-01
    46   -6.112228204786e-02
    47    3.770127909143e-02
    48   -5.932322328962e-04
Sym=X
Ene= 0.689143
Spin=Alpha
Occup=0
     1    4.822956345153e-04
     2    2.033502892092e-04
     3    1.075878730610e-03
     4    1.279771558346e-03
     5   -2.100434465930e-02
     6    3.494341908108e-05
     7    3.802470147558e-04
     8    1.096452429547e-05
     9    3.149774090598e-02
    10    3.988073445481e-02
    11   -6.704630822601e-01
    12   -2.936571413254e-02
    13   -3.584719792236e-02
    14    6.137853942333e-01
    15   -1.419627129122e-03
    16    8.263328601808e-02
    17   -7.827203551629e-02
    18   -8.651376696338e-03
    19   -1.080912432616e-03
    20    5.631923791762e-04
    21   -1.308807295042e-04
    22    9.101900065025e-04
    23    1.127894032719e-03
    24   -2.093704510460e-02
    25    1.390536531919e-05
    26    5.905788090396e-04
    27   -6.097030818055e-04
    28    3.201681702823e-02
    29    4.002245137876e-02
    30   -6.699063814971e-01
    31   -2.998871669921e-02
    32   -3.612997818187e-02
    33    6.131301729858e-01
    34    1.108030331351e-03
    35   -8.282747918179e-02
    36    7.857413983501e-02
    37    8.549108510002e-03
    38    1.192306849403e-03
    39    1.974048733681e-04
    40   -7.666582567477e-04
    41    1.049194138826e-03
    42    1.446361697425e-03
    43   -2.145696475983e-02
    44    1.309746310038e-04
    45   -4.384283519342e-04
    46    8.680544038804e-04
    47    1.274162972507e-03
    48   -2.106088944205e-02
Sym=X
Ene= 0.709592
Spin=Alpha
Occup=0
     1   -4.788172309536e-01
     2    1.621350125457e-01
     3   -8.062326443656e-02
     4   -4.481399309545e-02
     5   -6.516413552702e-03
     6   -4.860568048825e-02
     7   -3.188107127045e-01
     8    5.437275391021e-01
     9    2.006113628752e-01
    10   -1.907984947238e-01
    11   -2.426138493962e-03
    12   -1.085597488649e-01
    13    9.419357445841e-02
    14    6.894839169130e-04
    15    1.949403911676e-01
    16   -2.056126872082e-02
    17   -2.414372860883e-02
    18    4.173456691881e-03
    19   -7.855936067962e-02
    20   -4.848496844912e-01
    21    1.593363831128e-01
    22    4.124134601597e-02
    23    8.264996238395e-02
    24    6.806303541243e-03
    25   -4.595516500857e-02
    26   -3.224235896324e-01
    27    4.444917885425e-01
    28   -2.031194094626e-01
    29    1.891311454122e-01
    30    1.055759064713e-03
    31    3.794433900566e-02
    32   -2.874418046679e-02
    33    1.215246139098e-03
    34    1.932254646695e-01
    35   -2.039100245296e-02
    36   -2.381331409800e-02
    37    2.233758148691e-03
    38   -7.460773687097e-02
    39   -4.678290967710e-01
    40    1.216156179698e-01
    41   -4.046422119028e-02
    42   -8.058078247594e-02
    43   -6.744488627507e-03
    44   -4.754537922853e-01
    45    1.360424672078e-01
    46    7.995319056415e-02
    47    4.433267697633e-02
    48    6.457561980644e-03
Sym=X
Ene= 0.784638
Spin=Alpha
Occup=0
     1    5.251104103442e-01
     2   -4.670655877896e-01
     3    1.107832787422e-01
     4    2.531612817903e-02
     5    6.749489031466e-03
     6    9.052386199287e-02
     7   -2.184660382979e-01
     8   -6.131221329463e-01
     9    1.102197391365e-01
    10   -1.084629065790e-01
    11   -1.826218250534e-04
    12    3.064429049602e-01
    13   -2.797123724872e-01
    14   -3.968831776721e-03
    15   -2.054369710847e-01
    16    1.743420786217e-02
    17    2.143737318222e-02
    18    5.961943952425e-04
    19    7.723816926571e-03
    20    5.299191618489e-01
    21   -4.597185506973e-01
    22   -1.997308791339e-02
    23   -1.110178621831e-01
    24   -7.493568585832e-03
    25   -9.167418890083e-02
    26    2.095188335952e-01
    27    6.488188917729e-01
    28    1.119765829105e-01
    29   -1.067604880193e-01
    30   -1.893130622942e-03
    31    2.899501991963e-01
    32   -2.686334610878e-01
    33   -3.191573264135e-04
    34    2.094332544520e-01
    35   -1.760165929724e-02
    36   -2.248987679526e-02
    37    1.645350490481e-03
    38   -7.297858322946e-03
    39   -5.433293420754e-01
    40    4.548854616641e-01
    41   -2.030270678320e-02
    42   -1.130409740887e-01
    43   -7.759243804852e-03
    44   -5.375952250765e-01
    45    4.580227803427e-01
    46    1.103071853632e-01
    47    2.746040195629e-02
    48    6.885026111787e-03
Sym=X
Ene= 0.807949
Spin=Alpha
Occup=0
     1    6.075498633178e-04
     2   -1.137021203862e-03
     3    1.820884197017e-03
     4    2.029757944280e-03
     5   -3.379315024883e-02
     6    1.216123354579e-04
     7   -4.169386697878e-04
     8   -7.194057007897e-05
     9    3.628084895617e-02
    10    4.473673064838e-02
    11   -7.628852669423e-01
    12   -5.287233269888e-02
    13   -6.665606498181e-02
    14    1.126901014855e+00
    15    6.618311984771e-04
    16   -6.521802246782e-02
    17    6.184483785613e-02
    18    6.907790252530e-03
    19    8.495177705214e-04
    20    5.887687554121e-04
    21   -1.982421182672e-04
    22    1.691022197219e-03
    23    1.929331045620e-03
    24   -3.447557485024e-02
    25   -1.055433344456e-04
    26    5.455543827661e-05
    27    2.961336402824e-04
    28   -3.616257180602e-02
    29   -4.612058549222e-02
    30    7.633267595512e-01
    31    5.419167118680e-02
    32    6.748065697460e-02
    33   -1.127079644451e+00
    34    1.356002405475e-03
    35   -6.519689239416e-02
    36    6.178646619579e-02
    37    6.649693696985e-03
    38    9.882751709878e-04
    39   -5.951481025943e-04
    40    2.843696990236e-04
    41   -1.530686386325e-03
    42   -2.239822409755e-03
    43    3.409267990867e-02
    44   -5.995002134011e-04
    45    1.223597776851e-03
    46   -1.301535470363e-03
    47   -2.022327352023e-03
    48    3.381188972859e-02
Sym=X
Ene= 0.862286
Spin=Alpha
Occup=0
     1    1.529176331340e-02
     2   -1.099361786183e+00
     3    1.484958386227e-01
     4    5.631755130930e-02
     5    1.035480665201e-02
     6    1.321650941546e-05
     7    2.724661034876e-03
     8   -1.319563739247e-03
     9   -4.086416219283e-01
    10   -4.280318467540e-01
    11   -4.436571859563e-02
    12    9.507889608793e-01
    13    9.943058066446e-01
    14    1.031829891537e-01
    15   -4.482728792161e-04
    16    1.178472252117e-02
    17   -1.354279722285e-02
    18    2.356194082285e-01
    19    1.026246697118e-02
    20   -1.650169115369e-02
    21    1.104403322863e+00
    22    5.014362257649e-02
    23    1.518793768741e-01
    24    1.139472021585e-02
    25    3.629601664674e-04
    26    3.538313481171e-03
    27   -1.968176982794e-03
    28   -4.061011492991e-01
    29   -4.280291260675e-01
    30   -4.527068996742e-02
    31    9.435469769161e-01
    32    1.001398195077e+00
    33    1.055434005910e-01
    34   -1.100204861369e-03
    35   -1.185119160703e-02
    36    1.376111892490e-02
    37   -2.376285012880e-01
    38   -1.257070681653e-02
    39    1.234324969403e-02
    40   -1.100239958488e+00
    41    4.680540238549e-02
    42    1.518767846081e-01
    43    1.139094085551e-02
    44   -9.616553792602e-03
    45    1.095045224589e+00
    46    1.486548171850e-01
    47    5.515021247923e-02
    48    1.028449351335e-02
Sym=X
Ene= 0.936071
Spin=Alpha
Occup=0
     1   -1.128296176451e-01
     2    1.267685817312e+00
     3   -1.807000641391e-01
     4    6.111118436994e-03
     5   -8.248994620552e-03
     6   -1.866035952656e-04
     7   -1.211920196491e-03
     8   -1.039519559596e-02
     9    4.680743384629e-01
    10    5.027654516719e-01
    11    5.198093802791e-02
    12   -1.447587090697e+00
    13   -1.550724750249e+00
    14   -1.605505589153e-01
    15   -6.563422851112e-04
    16   -5.737761743231e-03
    17    7.043332597035e-03
    18   -1.207534244802e-01
    19    1.327743451562e-04
    20    1.179953924324e-01
    21   -1.291233587566e+00
    22    1.105223907090e-02
    23   -1.834484259073e-01
    24   -1.025823693793e-02
    25    3.718418264540e-04
    26    5.999268010657e-03
    27    5.230327625440e-04
    28   -4.795142351162e-01
    29   -4.932588539989e-01
    30   -5.228625438466e-02
    31    1.479058572325e+00
    32    1.517816099480e+00
    33    1.610222408260e-01
    34   -7.457402056648e-04
    35   -6.323874993214e-03
    36    7.066474262666e-03
    37   -1.223862053215e-01
    38   -1.038908898801e-02
    39    1.160266153691e-01
    40   -1.271150946967e+00
    41   -1.656730529292e-02
    42    1.806511697800e-01
    43    1.006363090217e-02
    44   -1.181288582708e-01
    45    1.299996166023e+00
    46    1.841097429499e-01
    47   -4.370187496837e-03
    48    8.480935675006e-03
Sym=X
Ene= 0.972809
Spin=Alpha
Occup=0
     1   -6.342703167114e-02
     2    9.489690962529e-01
     3   -9.427426472653e-02
     4   -9.919868777022e-02
     5   -1.038323060825e-02
     6    2.527419243460e-02
     7    2.674653637471e-01
     8    4.922633218392e-01
     9    4.868539428298e-01
    10   -4.502397117231e-01
    11   -3.412601807270e-03
    12   -1.519298651371e+00
    13    1.388895631998e+00
    14    9.716590889300e-03
    15   -5.334716350216e-02
    16   -1.298361220556e-02
    17   -9.778520571179e-03
    18    1.326061438361e-02
    19   -3.023583499485e-01
    20   -6.501601324357e-02
    21    9.047536273812e-01
    22    9.587142854332e-02
    23    9.325825086797e-02
    24    1.007409718462e-02
    25   -2.482185083181e-02
    26   -2.280335063677e-01
    27   -5.577825471058e-01
    28    4.709341459283e-01
    29   -4.590741748970e-01
    30   -5.409810875804e-03
    31   -1.460446088247e+00
    32    1.439923922681e+00
    33    1.751979897943e-02
    34    5.088096311524e-02
    35    1.257960188076e-02
    36    1.000529363487e-02
    37   -1.717588206417e-02
    38    2.962576307312e-01
    39    6.300388414645e-02
    40   -9.272599785452e-01
    41    9.297248111703e-02
    42    9.573814786936e-02
    43    1.024737103834e-02
    44    6.707583083280e-02
    45   -8.853460752148e-01
    46   -8.581926992532e-02
    47   -9.779425004899e-02
    48   -9.782119132423e-03
[5D]

======= END OF MOLDEN-FORMATTED INPUT FILE =======


        *************************************************************
        *                                                           *
        *  Thank you very much for using Q-Chem.  Have a nice day.  *
        *                                                           *
        *************************************************************


