                  Welcome to Q-Chem
     A Quantum Leap Into The Future Of Chemistry


 Q-Chem 5.4 (devel), Q-Chem, Inc., Pleasanton, CA (2021)

 E. Epifanovsky,  A. T. B. Gilbert,  Xintian Feng,  Joonho Lee,  Yuezhi Mao,  
 N. Mardirossian,  P. Pokhilko,  A. White,  M. Wormit,  M. P. Coons,  
 A. L. Dempwolff,  Zhengting Gan,  D. Hait,  P. R. Horn,  L. D. Jacobson,  
 I. Kaliman,  J. Kussmann,  A. W. Lange,  Ka Un Lao,  D. S. Levine,  Jie Liu,  
 S. C. McKenzie,  A. F. Morrison,  K. Nanda,  F. Plasser,  D. R. Rehn,  
 M. L. Vidal,  Zhi-Qiang You,  Ying Zhu,  B. Alam,  B. Albrecht,  
 A. Aldossary,  E. Alguire,  J. H. Andersen,  D. Barton,  K. Begam,  A. Behn,  
 Y. A. Bernard,  E. J. Berquist,  H. Burton,  A. Carreras,  K. Carter-Fenk,  
 R. Chakraborty,  A. D. Chien,  K. D. Closser,  V. Cofer-Shabica,  
 S. Dasgupta,  Jia Deng,  M. de Wergifosse,  M. Diedenhofen,  Hainam Do,  
 S. Ehlert,  Po-Tung Fang,  S. Fatehi,  Qingguo Feng,  T. Friedhoff,  
 J. Gayvert,  Qinghui Ge,  G. Gidofalvi,  M. Goldey,  J. Gomes,  
 C. Gonzalez-Espinoza,  S. Gulania,  A. Gunina,  M. W. D. Hanson-Heine,  
 P. H. P. Harbach,  A. W. Hauser,  M. F. Herbst,  M. Hernandez Vera,  
 M. Hodecker,  Z. C. Holden,  S. Houck,  Xunkun Huang,  Kerwin Hui,  
 B. C. Huynh,  M. Ivanov,  Hyunjun Ji,  Hanjie Jiang,  B. Kaduk,  S. Kaehler,  
 K. Khistyaev,  Jaehoon Kim,  P. Klunzinger,  Z. Koczor-Benda,  
 Joong Hoon Koh,  D. Kosenkov,  L. Koulias,  T. Kowalczyk,  C. M. Krauter,  
 K. Kue,  A. Kunitsa,  T. Kus,  A. Landau,  K. V. Lawler,  D. Lefrancois,  
 S. Lehtola,  Rain Li,  Yi-Pei Li,  Jiashu Liang,  M. Liebenthal,  
 Hung-Hsuan Lin,  You-Sheng Lin,  Fenglai Liu,  Kuan-Yu Liu,  
 M. Loipersberger,  A. Luenser,  A. Manjanath,  P. Manohar,  E. Mansoor,  
 S. F. Manzer,  Shan-Ping Mao,  A. V. Marenich,  T. Markovich,  S. Mason,  
 S. A. Maurer,  P. F. McLaughlin,  M. F. S. J. Menger,  J.-M. Mewes,  
 S. A. Mewes,  P. Morgante,  J. W. Mullinax,  K. J. Oosterbaan,  G. Paran,  
 Alexander C. Paul,  Suranjan K. Paul,  F. Pavosevic,  Zheng Pei,  S. Prager,  
 E. I. Proynov,  E. Ramos,  B. Rana,  A. E. Rask,  A. Rettig,  R. M. Richard,  
 F. Rob,  E. Rossomme,  T. Scheele,  M. Scheurer,  M. Schneider,  
 N. Sergueev,  S. M. Sharada,  W. Skomorowski,  D. W. Small,  C. J. Stein,  
 Yu-Chuan Su,  E. J. Sundstrom,  Zhen Tao,  J. Thirman,  T. Tsuchimochi,  
 N. M. Tubman,  S. P. Veccham,  O. Vydrov,  J. Wenzel,  J. Witte,  A. Yamada,  
 Kun Yao,  S. Yeganeh,  S. R. Yost,  A. Zech,  Igor Ying Zhang,  Xing Zhang,  
 Yu Zhang,  D. Zuev,  A. Aspuru-Guzik,  A. T. Bell,  N. A. Besley,  
 K. B. Bravaya,  B. R. Brooks,  D. Casanova,  Jeng-Da Chai,  S. Coriani,  
 C. J. Cramer,  A. E. DePrince, III,  R. A. DiStasio Jr.,  A. Dreuw,  
 B. D. Dunietz,  T. R. Furlani,  W. A. Goddard III,  S. Grimme,  
 S. Hammes-Schiffer,  T. Head-Gordon,  W. J. Hehre,  Chao-Ping Hsu,  
 T.-C. Jagau,  Yousung Jung,  A. Klamt,  Jing Kong,  D. S. Lambrecht,  
 WanZhen Liang,  N. J. Mayhall,  C. W. McCurdy,  J. B. Neaton,  
 C. Ochsenfeld,  J. A. Parkhill,  R. Peverati,  V. A. Rassolov,  Yihan Shao,  
 L. V. Slipchenko,  T. Stauch,  R. P. Steele,  J. E. Subotnik,  
 A. J. W. Thom,  A. Tkatchenko,  D. G. Truhlar,  T. Van Voorhis,  
 T. A. Wesolowski,  K. B. Whaley,  H. L. Woodcock III,  P. M. Zimmerman,  
 S. Faraji,  P. M. W. Gill,  M. Head-Gordon,  J. M. Herbert,  A. I. Krylov

 Additional authors for Version 5.4.1: 
 S. Kotaru,  Shaozhi Li,  Xiangyuan Li,  F. Matz,  A. Molle,  Haisheng Ren,  
 Yingli Su,  Hung-Yi Tsai,  C. Utku,  Fang Wang

 Contributors to earlier versions of Q-Chem not listed above: 
 R. D. Adamson,  B. Austin,  R. Baer,  J. Baker,  G. J. O. Beran,  
 K. Brandhorst,  S. T. Brown,  E. F. C. Byrd,  A. K. Chakraborty,  
 G. K. L. Chan,  Chun-Min Chang,  Yunqing Chen,  C.-L. Cheng,  
 Siu Hung Chien,  D. M. Chipman,  D. L. Crittenden,  H. Dachsel,  
 R. J. Doerksen,  A. D. Dutoi,  R. G. Edgar,  J. Fosso-Tande,  
 L. Fusti-Molnar,  D. Ghosh,  A. Ghysels,  A. Golubeva-Zadorozhnaya,  
 J. Gonthier,  M. S. Gordon,  S. R. Gwaltney,  G. Hawkins,  J. E. Herr,  
 A. Heyden,  S. Hirata,  E. G. Hohenstein,  G. Kedziora,  F. J. Keil,  
 C. Kelley,  Jihan Kim,  R. A. King,  R. Z. Khaliullin,  P. P. Korambath,  
 W. Kurlancheek,  A. Laurent,  A. M. Lee,  M. S. Lee,  S. V. Levchenko,  
 Ching Yeh Lin,  D. Liotard,  E. Livshits,  R. C. Lochan,  I. Lotan,  
 L. A. Martinez-Martinez,  P. E. Maslen,  N. Nair,  D. P. O'Neill,  
 D. Neuhauser,  E. Neuscamman,  C. M. Oana,  R. Olivares-Amaya,  R. Olson,  
 T. M. Perrine,  B. Peters,  P. A. Pieniazek,  A. Prociuk,  Y. M. Rhee,  
 J. Ritchie,  M. A. Rohrdanz,  E. Rosta,  N. J. Russ,  H. F. Schaefer III,  
 M. W. Schmidt,  N. E. Schultz,  S. Sharma,  N. Shenvi,  C. D. Sherrill,  
 A. C. Simmonett,  A. Sodt,  T. Stein,  D. Stuck,  K. S. Thanthiriwatte,  
 V. Vanovschi,  L. Vogt,  Tao Wang,  A. Warshel,  M. A. Watson,  
 C. F. Williams,  Q. Wu,  X. Xu,  Jun Yang,  W. Zhang,  Yan Zhao

 Please cite Q-Chem as follows:
 Y. Shao et al., Mol. Phys. 113, 184-215 (2015)
 DOI: 10.1080/00268976.2014.952696

 Q-Chem 5.4.1 for Intel X86 EM64T Linux

 Parts of Q-Chem use Armadillo 9.800.1 (Horizon Scraper).
 http://arma.sourceforge.net/

 Q-Chem begins on Thu Nov 17 00:23:29 2022  

 Host: cpu285.baobab
0

     Scratch files written to /scratch/fum/qchem75996//
 Processing $rem in /home/share/wesolowski/qc5.aug2021.FDE/config/preferences:
 Processing $rem in /home/fum/.qchemrc:

 Checking the input file for inconsistencies... 	...done.

--------------------------------------------------------------
User input:
--------------------------------------------------------------
$comment
generated from CCJob.Templates
$end

$rem
sym_ignore = true
method = adc(2)
ee_states = 10
basis = cc-pVDZ
mem_static = 1024
mem_total = 30000
adc_davidson_maxiter = 900
adc_davidson_conv = 6
adc_print = 3
adc_prop_es = true
adc_prop_es2es = true
adc_prop_tpa = true
molden_format = True
state_analysis = true
print_orbitals = 15
gen_scfman = false
fde_export_density = true
fde_details = 3
$end

$molecule
0 1
H -0.0348278765 -0.2442097827 0.0636489606
C -1.0765972949 -0.5242748755 -0.0023551776
H -1.313264467 -1.5767591607 -0.0757276926
C -2.048634118 0.3926884087 0.0061254933
H -1.8137616575 1.4459188338 0.0804456828
H -3.085977293 0.114931858 -0.0593381042                     
$end
--------------------------------------------------------------
 ----------------------------------------------------------------
             Standard Nuclear Orientation (Angstroms)
    I     Atom           X                Y                Z
 ----------------------------------------------------------------
    1      H      -0.0348278765    -0.2442097827     0.0636489606
    2      C      -1.0765972949    -0.5242748755    -0.0023551776
    3      H      -1.3132644670    -1.5767591607    -0.0757276926
    4      C      -2.0486341180     0.3926884087     0.0061254933
    5      H      -1.8137616575     1.4459188338     0.0804456828
    6      H      -3.0859772930     0.1149318580    -0.0593381042
 ----------------------------------------------------------------
 Nuclear Repulsion Energy =          33.39039332 hartrees
 There are        8 alpha and        8 beta electrons
 Requested basis set is cc-pVDZ
 There are 24 shells and 48 basis functions
 Total memory of 30000 MB is distributed as follows: 
   MEM_STATIC is set to 1024 MB
   QALLOC/CCMAN JOB total memory use is  28976 MB
 Warning: actual memory use might exceed 30000 MB

 Total QAlloc Memory Limit  30000 MB
 Mega-Array Size      1001 MB
 MEM_STATIC part      1024 MB

                       Distance Matrix (Angstroms)
             H (  1)   C (  2)   H (  3)   C (  4)   H (  5)
   C (  2)  1.080776
   H (  3)  1.851895  1.081258
   C (  4)  2.112904  1.336319  2.103852
   H (  5)  2.453859  2.105215  3.067812  1.081657
   H (  6)  3.074674  2.109370  2.450428  1.075879  1.846510

 A cutoff of  1.0D-11 yielded    300 shell pairs
 There are      1220 function pairs (      1329 Cartesian)
 Smallest overlap matrix eigenvalue = 4.86E-03

 Scale SEOQF with 1.000000e-01/1.000000e-01/1.000000e+00

 Standard Electronic Orientation quadrupole field applied
 Nucleus-field energy     =     0.0000000022 hartrees
 Guess from superposition of atomic densities
 Warning:  Energy on first SCF cycle will be non-variational
 SAD guess density has 16.000000 electrons
 A restricted Hartree-Fock SCF calculation will be
 performed using Pulay DIIS extrapolation
 SCF converges when DIIS error is below 1.0E-08
 using 8 threads for integral computing
 -------------------------------------------------------
 OpenMP Integral computing Module                
 Release: version 1.0, May 2013, Q-Chem Inc. Pittsburgh 
 -------------------------------------------------------
 ---------------------------------------
  Cycle       Energy         DIIS Error
 ---------------------------------------
    1     -78.4342125788      1.01E-01
    2     -78.0175473953      7.20E-03
    3     -78.0381551194      1.84E-03
    4     -78.0396341475      5.67E-04
    5     -78.0397534571      5.81E-05
    6     -78.0397553361      9.73E-06
    7     -78.0397553984      3.03E-06
    8     -78.0397554023      1.12E-06
    9     -78.0397554028      1.10E-07
   10     -78.0397554028      2.72E-08
   11     -78.0397554028      7.40E-09 Convergence criterion met
 ---------------------------------------
 SCF time:  CPU 2.67 s  wall 2.18 s
 SCF   energy in the final basis set = -78.03975540
 Total energy in the final basis set = -78.03975540
Exporting Density Matrix to file 'Densmat_SCF.txt'.
Export successful
================================================================================
|                                                                              |
|                                 A D C  M A N                                 |
|                                                                              |
 ------------------------------------------------------------------------------ 
|                                                                              |
| Components:                                                                  |
|                                                                              |
| - libvmm - 1.3-trunk                                                         |
|   Authors:                                                                   |
|   Evgeny Epifanovsky, Ilya Kaliman                                           |
|                                                                              |
| - libtensor - 2.5-trunk                                                      |
|   Authors:                                                                   |
|   Evgeny Epifanovsky, Michael Wormit, Dmitry Zuev, Sam Manzer,               |
|   Ilya Kaliman                                                               |
|                                                                              |
| - libwfa - 1.1-trunk                                                         |
|   Authors:                                                                   |
|   Felix Plasser, Stefanie Mewes (Baeppler), Benjamin Thomitzni,              |
|   Michael Wormit, Feng Chen, Anna I. Krylov, Pavel Pokhilko                  |
|                                                                              |
| - libadc - 1.1-trunk                                                         |
|   Authors:                                                                   |
|   Michael Wormit, Adrian L. Dempwolff, Philipp H. P. Harbach,                |
|   Caroline Krauter, Dirk Rehn, Matthias Schneider, Jan Wenzel                |
|                                                                              |
| - adcman - 2.6-trunk                                                         |
|   Authors:                                                                   |
|   Michael Wormit, Adrian L. Dempwolff, Philipp H. P. Harbach,                |
|   Caroline Krauter, Daniel Lefrancois, Jan-Michael Mewes, Dirk Rehn,         |
|   Matthias Schneider, Jan Wenzel, Andreas Dreuw                              |
|                                                                              |
| Authors of earlier versions of ADCMAN:                                       |
| Andreas Dreuw, Jan Hendrik Starcke, Dirk Rehn, Michael Wormit                |
|                                                                              |
================================================================================

 Created directory /scratch/fum/qchem75996/plots
  Import QC data ...  CPU 0.00 s  wall 0.00 s

 Alpha MOs, Restricted
 -- Occupied --                  
-11.235 -11.234  -1.031  -0.790  -0.641  -0.581  -0.506  -0.373
  1 A     2 A     3 A     4 A     5 A     6 A     7 A     8 A                  
 -- Virtual --                   
  0.168   0.204   0.233   0.240   0.303   0.461   0.578   0.615
  9 A    10 A    11 A    12 A    13 A    14 A    15 A    16 A                  
  0.690   0.709   0.784   0.808   0.863   0.936   0.971   1.010
 17 A    18 A    19 A    20 A    21 A    22 A    23 A    24 A                  
  1.131   1.234   1.254   1.265   1.293   1.603   1.726   1.750
 25 A    26 A    27 A    28 A    29 A    30 A    31 A    32 A                  
  1.819   1.858   1.866   1.922   1.977   1.979   2.219   2.255
 33 A    34 A    35 A    36 A    37 A    38 A    39 A    40 A                  
  2.376   2.455   2.505   2.630   2.724   2.822   3.142   3.396
 41 A    42 A    43 A    44 A    45 A    46 A    47 A    48 A                  

 Beta MOs, Restricted
 -- Occupied --                  
-11.235 -11.234  -1.031  -0.790  -0.641  -0.581  -0.506  -0.373
  1 A     2 A     3 A     4 A     5 A     6 A     7 A     8 A                  
 -- Virtual --                   
  0.168   0.204   0.233   0.240   0.303   0.461   0.578   0.615
  9 A    10 A    11 A    12 A    13 A    14 A    15 A    16 A                  
  0.690   0.709   0.784   0.808   0.863   0.936   0.971   1.010
 17 A    18 A    19 A    20 A    21 A    22 A    23 A    24 A                  
  1.131   1.234   1.254   1.265   1.293   1.603   1.726   1.750
 25 A    26 A    27 A    28 A    29 A    30 A    31 A    32 A                  
  1.819   1.858   1.866   1.922   1.977   1.979   2.219   2.255
 33 A    34 A    35 A    36 A    37 A    38 A    39 A    40 A                  
  2.376   2.455   2.505   2.630   2.724   2.822   3.142   3.396
 41 A    42 A    43 A    44 A    45 A    46 A    47 A    48 A                  
  Import AO data ...  CPU 0.00 s  wall 0.00 s
  Using point group: C1
  Irreducible representations in point group: A
  Molecular orbitals: 
  Occupied MOs:
  Block   0:   1 (  A) A   2 (  A) A   3 (  A) A   4 (  A) A   5 (  A) A
                  -11.24      -11.23      -1.031     -0.7904     -0.6413
               6 (  A) A   7 (  A) A   8 (  A) A
                 -0.5811     -0.5056     -0.3731
  Block   1:   1 (  A) B   2 (  A) B   3 (  A) B   4 (  A) B   5 (  A) B
                  -11.24      -11.23      -1.031     -0.7904     -0.6413
               6 (  A) B   7 (  A) B   8 (  A) B
                 -0.5811     -0.5056     -0.3731
  Virtual MOs:
  Block   0:   9 (  A) A  10 (  A) A  11 (  A) A  12 (  A) A  13 (  A) A
                  0.1676      0.2036      0.2333      0.2395       0.303
              14 (  A) A  15 (  A) A  16 (  A) A  17 (  A) A  18 (  A) A
                  0.4612       0.578      0.6153      0.6899      0.7092
              19 (  A) A  20 (  A) A  21 (  A) A  22 (  A) A
                  0.7838      0.8076      0.8631      0.9358
  Block   1:  23 (  A) A  24 (  A) A  25 (  A) A  26 (  A) A  27 (  A) A
                  0.9707        1.01       1.131       1.234       1.254
              28 (  A) A  29 (  A) A  30 (  A) A  31 (  A) A  32 (  A) A
                   1.265       1.293       1.603       1.726        1.75
              33 (  A) A  34 (  A) A  35 (  A) A  36 (  A) A
                   1.819       1.858       1.866       1.922
  Block   2:  37 (  A) A  38 (  A) A  39 (  A) A  40 (  A) A  41 (  A) A
                   1.977       1.979       2.219       2.255       2.376
              42 (  A) A  43 (  A) A  44 (  A) A  45 (  A) A  46 (  A) A
                   2.455       2.505        2.63       2.724       2.822
              47 (  A) A  48 (  A) A
                   3.142       3.396
  Block   3:   9 (  A) B  10 (  A) B  11 (  A) B  12 (  A) B  13 (  A) B
                  0.1676      0.2036      0.2333      0.2395       0.303
              14 (  A) B  15 (  A) B  16 (  A) B  17 (  A) B  18 (  A) B
                  0.4612       0.578      0.6153      0.6899      0.7092
              19 (  A) B  20 (  A) B  21 (  A) B  22 (  A) B
                  0.7838      0.8076      0.8631      0.9358
  Block   4:  23 (  A) B  24 (  A) B  25 (  A) B  26 (  A) B  27 (  A) B
                  0.9707        1.01       1.131       1.234       1.254
              28 (  A) B  29 (  A) B  30 (  A) B  31 (  A) B  32 (  A) B
                   1.265       1.293       1.603       1.726        1.75
              33 (  A) B  34 (  A) B  35 (  A) B  36 (  A) B
                   1.819       1.858       1.866       1.922
  Block   5:  37 (  A) B  38 (  A) B  39 (  A) B  40 (  A) B  41 (  A) B
                   1.977       1.979       2.219       2.255       2.376
              42 (  A) B  43 (  A) B  44 (  A) B  45 (  A) B  46 (  A) B
                   2.455       2.505        2.63       2.724       2.822
              47 (  A) B  48 (  A) B
                   3.142       3.396
  Import MO data ...  CPU 0.45 s  wall 0.14 s
  Import HF data ...  CPU 0.73 s  wall 0.25 s
  Import 2e integrals ...  CPU 1.94 s  wall 0.32 s

--------------------------------------------------------------------------------
                                   HF Summary                                   
--------------------------------------------------------------------------------
  Energy:                                                  -78.0397554028 a.u.
  Dip. moment [a.u.]:                  [  -0.001125,    0.000019,    0.000273]
  Total dipole [Debye]:                                               0.002944
  <r^2> [a.u.]:                        [ 175.742641,   34.927540,   11.633233]
  Total <r^2> [a.u.]:                                               222.303414
--------------------------------------------------------------------------------
  HF properties ...  CPU 0.01 s  wall 0.01 s
  MP(1) calculation ...  CPU 0.01 s  wall 0.00 s
  N^6 prerequesite intermediates ...  CPU 0.40 s  wall 0.07 s
  Difference density matrix of state mp2_gs printed to ASCII file 'State_mp2_gs_Difference.txt'
Exporting MP density matrix to file 'Densmat_MP.txt'.
Export successful
  Total density matrix of state mp2_gs printed to ASCII file 'State_mp2_gs_Total.txt'
Exporting MP density matrix to file 'Densmat_MP.txt'.
Export successful

--------------------------------------------------------------------------------
                                 MP(2) Summary                                  
--------------------------------------------------------------------------------
  MP energy contribution:                                   -0.2798651855 a.u.
  Total energy:                                            -78.3196205884 a.u.
  Dip. moment [a.u.]:                  [  -0.001016,    0.000075,    0.000278]
  Total dipole [Debye]:                                               0.002684
  <r^2> [a.u.]:                        [ 175.790766,   34.966727,   11.462854]
  Total <r^2> [a.u.]:                                               222.220347

  Density matrix analysis:
  ------------------------
  NOs
    Occupation of frontier NOs:
       0.0456   1.9380
    Number of electrons: 16.000000
    Number of unpaired electrons: n_u =  0.40413, n_u,nl =  0.04534
    NO participation ratio (PR_NO): 13.823688
  
  
  Mulliken Population Analysis
  Atom      Charge (e)              h+              e-           Del q
  --------------------------------------------------------------------
   1 H        0.051317        0.014017       -0.011210        0.002807
   2 C       -0.102412        0.093582       -0.099213       -0.005631
   3 H        0.050624        0.014088       -0.011192        0.002896
   4 C       -0.099985        0.093172       -0.099100       -0.005928
   5 H        0.050511        0.014111       -0.011180        0.002931
   6 H        0.049945        0.014112       -0.011187        0.002925
  --------------------------------------------------------------------
  Sum:       -0.000000        0.243083       -0.243083       -0.000000
  
  Multipole moment analysis of the density matrix
    Molecular charge:                      -0.000000
    Number of electrons:                   16.000000
      Center of electronic charge [Ang]: [ -1.562418,  -0.065605,   0.001969]
    Total nuclear charge:                  16.000000
      Center of nuclear charge [Ang]:    [ -1.562451,  -0.065602,   0.001978]
    Dipole moment [D]:                     0.002684
      Cartesian components [D]:          [ -0.002583,   0.000191,   0.000705]
    RMS size of the density [Ang]:         1.201580
      Cartesian components [Ang]:        [  0.797184,   0.779536,   0.447902]
  
  Exciton analysis of the difference density matrix
    <r_h> [Ang]:                  [ -1.561660,  -0.065790,   0.001942]
    <r_e> [Ang]:                  [ -1.561898,  -0.065912,   0.001932]
    |<r_e - r_h>| [Ang]:            0.000267
    Hole size [Ang]:                1.394805
      Cartesian components [Ang]: [  0.846717,   0.834571,   0.729412]
    Electron size [Ang]:            1.359790
      Cartesian components [Ang]: [  0.878423,   0.861183,   0.579454]
--------------------------------------------------------------------------------
  MP(2) calculation ...  CPU 0.41 s  wall 0.16 s
  Start ADC(2)-s ...  CPU 0.01 s  wall 0.00 s
  ADC(2) intermediates ...  CPU 0.15 s  wall 0.04 s
  Starting Davidson for singlet states of irrep A ... 
--------------------------------------------------------------------------------
   It NVec Conv  Avg. Norm  Max. Norm  Conv. states           Remark
--------------------------------------------------------------------------------
        10    0  1.330e-01  4.682e-01  0.4112 n n n n n n n n Guess.
    1   20    0  2.318e-02  1.113e-01  0.3251 n n n n n n n n 
    2   30    0  5.992e-03  2.841e-02  0.3203 n n n n n n n n 
    3   40    0  2.171e-03  1.603e-02  0.3199 n n n n n n n n 
    4   50    0  6.531e-04  5.046e-03  0.3199 n n n n n n n n 
    5   20    0  2.862e-04  2.178e-03  0.3199 n n n n n n n n Subspace collapsed.
    6   30    0  2.302e-04  2.159e-03  0.3199 n n n n n n n n 
    7   40    0  1.248e-04  1.199e-03  0.3199 n n n n n n n n 
    8   50    0  1.557e-04  1.523e-03  0.3199 n n n n n n n n 
    9   20    2  1.319e-04  1.280e-03  0.3199 n y n y n n n n Subspace collapsed.
   10   30    5  1.586e-04  1.578e-03  0.3199 n y y y y y n n 
   11   40    5  1.579e-04  1.577e-03  0.3199 n y y y y y n n 
   12   50    5  1.702e-04  1.702e-03  0.3199 n y y y y y n n 
   13   20    6  9.548e-05  9.547e-04  0.3199 y y y y y y n n Subspace collapsed.
   14   30    7  8.013e-05  8.012e-04  0.3199 y y y y y y n y 
   15   40    8  4.926e-05  4.926e-04  0.3199 y y y y y y n y 
   16   50    8  6.791e-05  6.791e-04  0.3199 y y y y y y n y 
   17   20    8  2.959e-05  2.959e-04  0.3199 y y y y y y n y Subspace collapsed.
   18   30    8  3.844e-05  3.844e-04  0.3199 y y y y y y n y 
   19   40    9  4.225e-05  4.225e-04  0.3199 y y y y y y y y 
   20   50    9  4.560e-05  4.560e-04  0.3199 y y y y y y y y 
   21   20    9  2.321e-05  2.321e-04  0.3199 y y y y y y y y Subspace collapsed.
   22   30    9  1.957e-05  1.957e-04  0.3199 y y y y y y y y 
   23   38    9  1.307e-05  1.307e-04  0.3199 y y y y y y y y 
   24   39    9  1.345e-05  1.345e-04  0.3199 y y y y y y y y 
   25   40    9  1.378e-05  1.378e-04  0.3199 y y y y y y y y 
   26   41    9  1.313e-05  1.313e-04  0.3199 y y y y y y y y 
   27   42    9  1.320e-05  1.320e-04  0.3199 y y y y y y y y 
   28   42    9  1.320e-05  1.320e-04  0.3199 y y y y y y y y 
   29   50    9  1.669e-05  1.669e-04  0.3199 y y y y y y y y 
   30   16    9  1.128e-05  1.128e-04  0.3199 y y y y y y y y Subspace collapsed.
   31   22    9  1.263e-05  1.263e-04  0.3199 y y y y y y y y 
   32   27    9  1.104e-05  1.104e-04  0.3199 y y y y y y y y 
   33   31    9  1.288e-05  1.288e-04  0.3199 y y y y y y y y 
   34   35    9  1.098e-05  1.098e-04  0.3199 y y y y y y y y 
   35   39    9  7.601e-06  7.601e-05  0.3199 y y y y y y y y 
   36   43    9  3.330e-06  3.330e-05  0.3199 y y y y y y y y 
   37   47    9  2.045e-06  2.045e-05  0.3199 y y y y y y y y 
   38   50    9  1.060e-06  1.060e-05  0.3199 y y y y y y y y 
   39   14    9  6.372e-07  6.372e-06  0.3199 y y y y y y y y Subspace collapsed.
   40   18    9  5.029e-07  5.029e-06  0.3199 y y y y y y y y 
   41   22    9  3.406e-07  3.406e-06  0.3199 y y y y y y y y 
   42   26    9  2.035e-07  2.035e-06  0.3199 y y y y y y y y 
   43   30    9  1.186e-07  1.186e-06  0.3199 y y y y y y y y 
   44   34   10  6.032e-08  6.032e-07  0.3199 y y y y y y y y Converged.
--------------------------------------------------------------------------------
  Davidson Summary: 
 ------------------------------------------------------------
  State  0: excitation energy =   0.3199 a.u.   (converged)
  State  1: excitation energy =   0.3328 a.u.   (converged)
  State  2: excitation energy =   0.3365 a.u.   (converged)
  State  3: excitation energy =   0.3613 a.u.   (converged)
  State  4: excitation energy =   0.3744 a.u.   (converged)
  State  5: excitation energy =   0.3862 a.u.   (converged)
  State  6: excitation energy =   0.4255 a.u.   (converged)
  State  7: excitation energy =   0.4464 a.u.   (converged)
  State  8: excitation energy =   0.4556 a.u.   (converged)
  State  9: excitation energy =   0.4659 a.u.   (converged)
 ------------------------------------------------------------

  Singlet states of irrep A ...  CPU 159.53 s  wall 54.80 s
  TDMs ...  CPU 2.16 s  wall 0.78 s
  SDMs ...  CPU 3.96 s  wall 1.12 s
  Starting TPA DIIS iterations ... 
------------------------------------ 
   It     Res. Norm  Remark
------------------------------------
                       Guess.
    1     4.466e+00  
    2     5.933e+00  
    3     1.084e+00  
    4     2.580e-01  
    5     6.684e-02  
    6     2.685e-02  
    7     8.293e-03  
    8     1.421e-03  
    9     5.274e-04  
   10     8.922e-05  
   11     2.771e-05  
   12     4.342e-06  
   13     1.376e-06  
   14     4.300e-07  Converged.
   ... Converged in 14 steps (norm: 4.29952e-07)
------------------------------------
  Starting TPA DIIS iterations ... 
------------------------------------ 
   It     Res. Norm  Remark
------------------------------------
                       Guess.
    1     4.214e+00  
    2     5.595e+00  
    3     1.035e+00  
    4     2.589e-01  
    5     6.649e-02  
    6     2.710e-02  
    7     8.197e-03  
    8     1.460e-03  
    9     5.372e-04  
   10     9.023e-05  
   11     2.841e-05  
   12     4.353e-06  
   13     1.414e-06  
   14     4.284e-07  Converged.
   ... Converged in 14 steps (norm: 4.28404e-07)
------------------------------------
  Starting TPA DIIS iterations ... 
------------------------------------ 
   It     Res. Norm  Remark
------------------------------------
                       Guess.
    1     6.882e-01  
    2     4.837e-01  
    3     1.707e-01  
    4     6.152e-02  
    5     1.833e-02  
    6     6.610e-03  
    7     1.034e-03  
    8     4.440e-04  
    9     1.233e-04  
   10     2.871e-05  
   11     5.809e-06  
   12     1.650e-06  
   13     1.083e-06  
   14     4.185e-07  Converged.
   ... Converged in 14 steps (norm: 4.18535e-07)
------------------------------------
  Starting TPA DIIS iterations ... 
------------------------------------ 
   It     Res. Norm  Remark
------------------------------------
                       Guess.
    1     4.790e+00  
    2     6.517e+00  
    3     1.174e+00  
    4     2.900e-01  
    5     7.625e-02  
    6     3.090e-02  
    7     9.524e-03  
    8     1.628e-03  
    9     6.097e-04  
   10     1.038e-04  
   11     3.259e-05  
   12     5.156e-06  
   13     1.647e-06  
   14     5.157e-07  Converged.
   ... Converged in 14 steps (norm: 5.15748e-07)
------------------------------------
  Starting TPA DIIS iterations ... 
------------------------------------ 
   It     Res. Norm  Remark
------------------------------------
                       Guess.
    1     4.519e+00  
    2     6.145e+00  
    3     1.121e+00  
    4     2.907e-01  
    5     7.587e-02  
    6     3.123e-02  
    7     9.420e-03  
    8     1.676e-03  
    9     6.212e-04  
   10     1.050e-04  
   11     3.340e-05  
   12     5.163e-06  
   13     1.691e-06  
   14     5.138e-07  Converged.
   ... Converged in 14 steps (norm: 5.13784e-07)
------------------------------------
  Starting TPA DIIS iterations ... 
------------------------------------ 
   It     Res. Norm  Remark
------------------------------------
                       Guess.
    1     7.015e-01  
    2     5.030e-01  
    3     1.817e-01  
    4     7.060e-02  
    5     1.988e-02  
    6     7.295e-03  
    7     1.183e-03  
    8     5.318e-04  
    9     1.518e-04  
   10     3.320e-05  
   11     6.719e-06  
   12     1.982e-06  
   13     1.392e-06  
   14     5.385e-07  Converged.
   ... Converged in 14 steps (norm: 5.38462e-07)
------------------------------------
  Starting TPA DIIS iterations ... 
------------------------------------ 
   It     Res. Norm  Remark
------------------------------------
                       Guess.
    1     4.890e+00  
    2     6.701e+00  
    3     1.202e+00  
    4     3.002e-01  
    5     7.925e-02  
    6     3.220e-02  
    7     9.918e-03  
    8     1.694e-03  
    9     6.361e-04  
   10     1.084e-04  
   11     3.418e-05  
   12     5.420e-06  
   13     1.736e-06  
   14     5.439e-07  Converged.
   ... Converged in 14 steps (norm: 5.43861e-07)
------------------------------------
  Starting TPA DIIS iterations ... 
------------------------------------ 
   It     Res. Norm  Remark
------------------------------------
                       Guess.
    1     4.613e+00  
    2     6.318e+00  
    3     1.148e+00  
    4     3.009e-01  
    5     7.887e-02  
    6     3.256e-02  
    7     9.811e-03  
    8     1.744e-03  
    9     6.481e-04  
   10     1.097e-04  
   11     3.502e-05  
   12     5.427e-06  
   13     1.781e-06  
   14     5.418e-07  Converged.
   ... Converged in 14 steps (norm: 5.41807e-07)
------------------------------------
  Starting TPA DIIS iterations ... 
------------------------------------ 
   It     Res. Norm  Remark
------------------------------------
                       Guess.
    1     7.054e-01  
    2     5.088e-01  
    3     1.850e-01  
    4     7.354e-02  
    5     2.035e-02  
    6     7.513e-03  
    7     1.231e-03  
    8     5.608e-04  
    9     1.612e-04  
   10     3.435e-05  
   11     7.009e-06  
   12     2.091e-06  
   13     1.498e-06  
   14     5.801e-07  Converged.
   ... Converged in 14 steps (norm: 5.80125e-07)
------------------------------------
  Starting TPA DIIS iterations ... 
------------------------------------ 
   It     Res. Norm  Remark
------------------------------------
                       Guess.
    1     5.668e+00  
    2     8.156e+00  
    3     1.418e+00  
    4     3.837e-01  
    5     1.038e-01  
    6     4.294e-02  
    7     1.314e-02  
    8     2.234e-03  
    9     8.543e-04  
   10     1.470e-04  
   11     4.755e-05  
   12     7.654e-06  
   13     2.503e-06  
   14     7.869e-07  Converged.
   ... Converged in 14 steps (norm: 7.8686e-07)
------------------------------------
  Starting TPA DIIS iterations ... 
------------------------------------ 
   It     Res. Norm  Remark
------------------------------------
                       Guess.
    1     5.344e+00  
    2     7.689e+00  
    3     1.353e+00  
    4     3.839e-01  
    5     1.034e-01  
    6     4.352e-02  
    7     1.301e-02  
    8     2.305e-03  
    9     8.702e-04  
   10     1.488e-04  
   11     4.861e-05  
   12     7.645e-06  
   13     2.562e-06  
   14     7.852e-07  Converged.
   ... Converged in 14 steps (norm: 7.85158e-07)
------------------------------------
  Starting TPA DIIS iterations ... 
------------------------------------ 
   It     Res. Norm  Remark
------------------------------------
                       Guess.
    1     7.330e-01  
    2     5.515e-01  
    3     2.103e-01  
    4     9.841e-02  
    5     2.399e-02  
    6     9.309e-03  
    7     1.642e-03  
    8     8.037e-04  
    9     2.387e-04  
   10     3.951e-05  
   11     9.408e-06  
   12     3.048e-06  
   13     2.490e-06  
   14     9.780e-07  Converged.
   ... Converged in 14 steps (norm: 9.7796e-07)
------------------------------------
  Starting TPA DIIS iterations ... 
------------------------------------ 
   It     Res. Norm  Remark
------------------------------------
                       Guess.
    1     6.161e+00  
    2     9.112e+00  
    3     1.555e+00  
    4     4.406e-01  
    5     1.206e-01  
    6     5.033e-02  
    7     1.533e-02  
    8     2.600e-03  
    9     1.005e-03  
   10     1.737e-04  
   11     5.697e-05  
   12     9.227e-06  
   13     3.057e-06  
   14     9.656e-07  Converged.
   ... Converged in 14 steps (norm: 9.65595e-07)
------------------------------------
  Starting TPA DIIS iterations ... 
------------------------------------ 
   It     Res. Norm  Remark
------------------------------------
                       Guess.
    1     5.808e+00  
    2     8.590e+00  
    3     1.483e+00  
    4     4.404e-01  
    5     1.201e-01  
    6     5.108e-02  
    7     1.519e-02  
    8     2.686e-03  
    9     1.023e-03  
   10     1.758e-04  
   11     5.814e-05  
   12     9.205e-06  
   13     3.123e-06  
   14     9.655e-07  Converged.
   ... Converged in 14 steps (norm: 9.65522e-07)
------------------------------------
  Starting TPA DIIS iterations ... 
------------------------------------ 
   It     Res. Norm  Remark
------------------------------------
                       Guess.
    1     7.484e-01  
    2     5.767e-01  
    3     2.257e-01  
    4     1.159e-01  
    5     2.635e-02  
    6     1.054e-02  
    7     1.938e-03  
    8     9.645e-04  
    9     2.893e-04  
   10     4.050e-05  
   11     1.111e-05  
   12     3.751e-06  
   13     3.278e-06  
   14     1.302e-06  
   15     5.068e-07  Converged.
   ... Converged in 15 steps (norm: 5.06821e-07)
------------------------------------
  Starting TPA DIIS iterations ... 
------------------------------------ 
   It     Res. Norm  Remark
------------------------------------
                       Guess.
    1     6.669e+00  
    2     1.012e+01  
    3     1.694e+00  
    4     5.021e-01  
    5     1.386e-01  
    6     5.838e-02  
    7     1.770e-02  
    8     2.995e-03  
    9     1.168e-03  
   10     2.026e-04  
   11     6.732e-05  
   12     1.096e-05  
   13     3.678e-06  
   14     1.171e-06  
   15     4.038e-07  Converged.
   ... Converged in 15 steps (norm: 4.03845e-07)
------------------------------------
  Starting TPA DIIS iterations ... 
------------------------------------ 
   It     Res. Norm  Remark
------------------------------------
                       Guess.
    1     6.286e+00  
    2     9.540e+00  
    3     1.615e+00  
    4     5.014e-01  
    5     1.381e-01  
    6     5.933e-02  
    7     1.755e-02  
    8     3.096e-03  
    9     1.189e-03  
   10     2.051e-04  
   11     6.858e-05  
   12     1.092e-05  
   13     3.747e-06  
   14     1.174e-06  
   15     3.834e-07  Converged.
   ... Converged in 15 steps (norm: 3.83368e-07)
------------------------------------
  Starting TPA DIIS iterations ... 
------------------------------------ 
   It     Res. Norm  Remark
------------------------------------
                       Guess.
    1     7.629e-01  
    2     6.015e-01  
    3     2.412e-01  
    4     1.352e-01  
    5     2.883e-02  
    6     1.188e-02  
    7     2.270e-03  
    8     1.125e-03  
    9     3.405e-04  
   10     4.107e-05  
   11     1.302e-05  
   12     4.550e-06  
   13     4.216e-06  
   14     1.693e-06  
   15     6.702e-07  Converged.
   ... Converged in 15 steps (norm: 6.70171e-07)
------------------------------------
  Starting TPA DIIS iterations ... 
------------------------------------ 
   It     Res. Norm  Remark
------------------------------------
                       Guess.
    1     8.957e+00  
    2     1.494e+01  
    3     2.310e+00  
    4     8.089e-01  
    5     2.291e-01  
    6     9.951e-02  
    7     2.956e-02  
    8     4.955e-03  
    9     2.001e-03  
   10     3.494e-04  
   11     1.199e-04  
   12     1.984e-05  
   13     6.915e-06  
   14     2.410e-06  
   15     8.463e-07  Converged.
   ... Converged in 15 steps (norm: 8.46345e-07)
------------------------------------
  Starting TPA DIIS iterations ... 
------------------------------------ 
   It     Res. Norm  Remark
------------------------------------
                       Guess.
    1     8.439e+00  
    2     1.408e+01  
    3     2.200e+00  
    4     8.049e-01  
    5     2.285e-01  
    6     1.015e-01  
    7     2.934e-02  
    8     5.136e-03  
    9     2.033e-03  
   10     3.535e-04  
   11     1.212e-04  
   12     1.973e-05  
   13     6.941e-06  
   14     2.451e-06  
   15     7.856e-07  Converged.
   ... Converged in 15 steps (norm: 7.85635e-07)
------------------------------------
  Starting TPA DIIS iterations ... 
------------------------------------ 
   It     Res. Norm  Remark
------------------------------------
                       Guess.
    1     8.156e-01  
    2     7.011e-01  
    3     3.068e-01  
    4     2.323e-01  
    5     4.097e-02  
    6     1.849e-02  
    7     4.051e-03  
    8     1.659e-03  
    9     5.510e-04  
   10     5.395e-05  
   11     2.381e-05  
   12     9.028e-06  
   13     9.961e-06  
   14     4.186e-06  
   15     2.010e-06  
   16     9.408e-07  Converged.
   ... Converged in 16 steps (norm: 9.40773e-07)
------------------------------------
  Starting TPA DIIS iterations ... 
------------------------------------ 
   It     Res. Norm  Remark
------------------------------------
                       Guess.
    1     1.073e+01  
    2     1.896e+01  
    3     2.776e+00  
    4     1.073e+00  
    5     3.079e-01  
    6     1.362e-01  
    7     3.987e-02  
    8     6.650e-03  
    9     2.740e-03  
   10     4.784e-04  
   11     1.647e-04  
   12     2.777e-05  
   13     9.740e-06  
   14     3.771e-06  
   15     1.326e-06  
   16     7.216e-07  Converged.
   ... Converged in 16 steps (norm: 7.21646e-07)
------------------------------------
  Starting TPA DIIS iterations ... 
------------------------------------ 
   It     Res. Norm  Remark
------------------------------------
                       Guess.
    1     1.011e+01  
    2     1.787e+01  
    3     2.642e+00  
    4     1.066e+00  
    5     3.073e-01  
    6     1.392e-01  
    7     3.961e-02  
    8     6.899e-03  
    9     2.781e-03  
   10     4.837e-04  
   11     1.656e-04  
   12     2.768e-05  
   13     9.680e-06  
   14     3.866e-06  
   15     1.237e-06  
   16     8.350e-07  Converged.
   ... Converged in 16 steps (norm: 8.34955e-07)
------------------------------------
  Starting TPA DIIS iterations ... 
------------------------------------ 
   It     Res. Norm  Remark
------------------------------------
                       Guess.
    1     8.473e-01  
    2     7.688e-01  
    3     3.538e-01  
    4     3.111e-01  
    5     5.122e-02  
    6     2.389e-02  
    7     5.658e-03  
    8     1.852e-03  
    9     6.964e-04  
   10     7.477e-05  
   11     3.448e-05  
   12     1.353e-05  
   13     1.616e-05  
   14     6.913e-06  
   15     3.718e-06  
   16     1.644e-06  
   17     6.541e-07  Converged.
   ... Converged in 17 steps (norm: 6.54067e-07)
------------------------------------
  Starting TPA DIIS iterations ... 
------------------------------------ 
   It     Res. Norm  Remark
------------------------------------
                       Guess.
    1     1.170e+01  
    2     2.124e+01  
    3     3.026e+00  
    4     1.225e+00  
    5     3.535e-01  
    6     1.576e-01  
    7     4.585e-02  
    8     7.628e-03  
    9     3.172e-03  
   10     5.533e-04  
   11     1.899e-04  
   12     3.247e-05  
   13     1.140e-05  
   14     4.667e-06  
   15     1.663e-06  
   16     9.613e-07  Converged.
   ... Converged in 16 steps (norm: 9.61337e-07)
------------------------------------
  Starting TPA DIIS iterations ... 
------------------------------------ 
   It     Res. Norm  Remark
------------------------------------
                       Guess.
    1     1.102e+01  
    2     2.002e+01  
    3     2.880e+00  
    4     1.215e+00  
    5     3.530e-01  
    6     1.614e-01  
    7     4.556e-02  
    8     7.917e-03  
    9     3.218e-03  
   10     5.592e-04  
   11     1.906e-04  
   12     3.245e-05  
   13     1.129e-05  
   14     4.801e-06  
   15     1.568e-06  
   16     1.123e-06  
   17     3.629e-07  Converged.
   ... Converged in 17 steps (norm: 3.62919e-07)
------------------------------------
  Starting TPA DIIS iterations ... 
------------------------------------ 
   It     Res. Norm  Remark
------------------------------------
                       Guess.
    1     8.622e-01  
    2     8.032e-01  
    3     3.783e-01  
    4     3.525e-01  
    5     5.702e-02  
    6     2.678e-02  
    7     6.582e-03  
    8     1.908e-03  
    9     7.717e-04  
   10     8.765e-05  
   11     4.109e-05  
   12     1.645e-05  
   13     2.032e-05  
   14     8.684e-06  
   15     4.869e-06  
   16     2.105e-06  
   17     8.958e-07  Converged.
   ... Converged in 17 steps (norm: 8.95759e-07)
------------------------------------
  Starting TPA DIIS iterations ... 
------------------------------------ 
   It     Res. Norm  Remark
------------------------------------
                       Guess.
    1     1.295e+01  
    2     2.427e+01  
    3     3.342e+00  
    4     1.425e+00  
    5     4.145e-01  
    6     1.866e-01  
    7     5.383e-02  
    8     8.934e-03  
    9     3.755e-03  
   10     6.535e-04  
   11     2.230e-04  
   12     3.892e-05  
   13     1.371e-05  
   14     5.979e-06  
   15     2.198e-06  
   16     1.337e-06  
   17     3.232e-07  Converged.
   ... Converged in 17 steps (norm: 3.23154e-07)
------------------------------------
  Starting TPA DIIS iterations ... 
------------------------------------ 
   It     Res. Norm  Remark
------------------------------------
                       Guess.
    1     1.220e+01  
    2     2.287e+01  
    3     3.180e+00  
    4     1.412e+00  
    5     4.140e-01  
    6     1.912e-01  
    7     5.351e-02  
    8     9.275e-03  
    9     3.805e-03  
   10     6.601e-04  
   11     2.235e-04  
   12     3.907e-05  
   13     1.354e-05  
   14     6.172e-06  
   15     2.109e-06  
   16     1.578e-06  
   17     5.193e-07  Converged.
   ... Converged in 17 steps (norm: 5.19289e-07)
------------------------------------
  Starting TPA DIIS iterations ... 
------------------------------------ 
   It     Res. Norm  Remark
------------------------------------
                       Guess.
    1     8.796e-01  
    2     8.454e-01  
    3     4.087e-01  
    4     4.023e-01  
    5     6.463e-02  
    6     3.034e-02  
    7     7.798e-03  
    8     1.962e-03  
    9     8.656e-04  
   10     1.048e-04  
   11     5.038e-05  
   12     2.079e-05  
   13     2.670e-05  
   14     1.125e-05  
   15     6.564e-06  
   16     2.763e-06  
   17     1.256e-06  
   18     4.722e-07  Converged.
   ... Converged in 18 steps (norm: 4.72232e-07)
------------------------------------
  Two-photon absorbption ...  CPU 134.21 s  wall 37.37 s
  Transition density matrix of state singlet_A_1 printed to ASCII file 'State_singlet_A_1_Transition.txt'
  Transition density matrix of state singlet_A_2 printed to ASCII file 'State_singlet_A_2_Transition.txt'
  Transition density matrix of state singlet_A_3 printed to ASCII file 'State_singlet_A_3_Transition.txt'
  Transition density matrix of state singlet_A_4 printed to ASCII file 'State_singlet_A_4_Transition.txt'
  Transition density matrix of state singlet_A_5 printed to ASCII file 'State_singlet_A_5_Transition.txt'
  Transition density matrix of state singlet_A_6 printed to ASCII file 'State_singlet_A_6_Transition.txt'
  Transition density matrix of state singlet_A_7 printed to ASCII file 'State_singlet_A_7_Transition.txt'
  Transition density matrix of state singlet_A_8 printed to ASCII file 'State_singlet_A_8_Transition.txt'
  Transition density matrix of state singlet_A_9 printed to ASCII file 'State_singlet_A_9_Transition.txt'
  Transition density matrix of state singlet_A_10 printed to ASCII file 'State_singlet_A_10_Transition.txt'
  Transition properties ...  CPU 0.15 s  wall 0.42 s
  Difference density matrix of state singlet_A_1 printed to ASCII file 'State_singlet_A_1_Difference.txt'
  Total density matrix of state singlet_A_1 printed to ASCII file 'State_singlet_A_1_Total.txt'
  Difference density matrix of state singlet_A_2 printed to ASCII file 'State_singlet_A_2_Difference.txt'
  Total density matrix of state singlet_A_2 printed to ASCII file 'State_singlet_A_2_Total.txt'
  Difference density matrix of state singlet_A_3 printed to ASCII file 'State_singlet_A_3_Difference.txt'
  Total density matrix of state singlet_A_3 printed to ASCII file 'State_singlet_A_3_Total.txt'
  Difference density matrix of state singlet_A_4 printed to ASCII file 'State_singlet_A_4_Difference.txt'
  Total density matrix of state singlet_A_4 printed to ASCII file 'State_singlet_A_4_Total.txt'
  Difference density matrix of state singlet_A_5 printed to ASCII file 'State_singlet_A_5_Difference.txt'
  Total density matrix of state singlet_A_5 printed to ASCII file 'State_singlet_A_5_Total.txt'
  Difference density matrix of state singlet_A_6 printed to ASCII file 'State_singlet_A_6_Difference.txt'
  Total density matrix of state singlet_A_6 printed to ASCII file 'State_singlet_A_6_Total.txt'
  Difference density matrix of state singlet_A_7 printed to ASCII file 'State_singlet_A_7_Difference.txt'
  Total density matrix of state singlet_A_7 printed to ASCII file 'State_singlet_A_7_Total.txt'
  Difference density matrix of state singlet_A_8 printed to ASCII file 'State_singlet_A_8_Difference.txt'
  Total density matrix of state singlet_A_8 printed to ASCII file 'State_singlet_A_8_Total.txt'
  Difference density matrix of state singlet_A_9 printed to ASCII file 'State_singlet_A_9_Difference.txt'
  Total density matrix of state singlet_A_9 printed to ASCII file 'State_singlet_A_9_Total.txt'
  Difference density matrix of state singlet_A_10 printed to ASCII file 'State_singlet_A_10_Difference.txt'
  Total density matrix of state singlet_A_10 printed to ASCII file 'State_singlet_A_10_Total.txt'
  Properties ...  CPU 0.73 s  wall 0.72 s
  ISR TDMS ...  CPU 31.69 s  wall 9.31 s
  ISR transition properties ...  CPU 0.31 s  wall 0.12 s
  Sum-over-states TPA ...  CPU 0.00 s  wall 0.00 s

--------------------------------------------------------------------------------
                   State-averaged natural transition orbitals
--------------------------------------------------------------------------------
--------------------------------------------------------------------------------
  SA-NTO decomposition ...  CPU 0.01 s  wall 0.02 s

--------------------------------------------------------------------------------
                             Excited State Summary
--------------------------------------------------------------------------------
--------------------------------------------------------------------------------

  Excited state 1 (singlet, A)                                     [converged]
  ----------------------------------------------------------------------------
  Term symbol:  2 (1) A                                     R^2 =  2.61235e-13

  Total energy:                                            -77.9996960204 a.u.
  Excitation energy:                                               8.705590 eV

  Osc. strength:                                                      0.444019
  Trans. dip. moment [a.u.]:           [  -1.046425,    0.993345,    0.009474]
  <i|r^2|0> [a.u.]:                    [  -6.175810,    0.245313,    0.000403]
  Two-photon absorption cross-section (SoS) [a.u.]:                   0.000568
  Two-photon absorption matrix (SoS) [a.u.]:
                                       |    0.002921    0.006226    0.000963 |
                                       |    0.006226   -0.000851    0.000413 |
                                       |    0.000963    0.000413   -0.006561 |
  Two-photon absorption cross-section [a.u.]:                         0.000446
  Two-photon absorption matrix [a.u.]:
                                       |    0.002855    0.004505   -0.000181 |
                                       |    0.004505   -0.000322   -0.001458 |
                                       |   -0.000181   -0.001458   -0.006963 |

  Dip. moment [a.u.]:                  [  -0.000899,    0.000057,    0.000359]
  Total dipole [Debye]:                                               0.002465
  <r^2> [a.u.]:                        [ 176.547790,   35.651464,   11.867472]
  Total <r^2> [a.u.]:                                               224.066726

  V1^2 = 0.9715, V2^2 = 0.0285

  Important amplitudes:
      occ i     occ j     vir a      vir b          v   
    -----------------------------------------------------
     8 (A) A              9 (A) A                 0.6811
     6 (A) A             14 (A) A                -0.0631
     4 (A) A             10 (A) A                 0.0603
     7 (A) A             16 (A) A                -0.0567
     5 (A) A             13 (A) A                 0.0511
     6 (A) A             23 (A) A                -0.0486
     8 (A) A             20 (A) A                -0.0351
     6 (A) A             19 (A) A                -0.0315
     3 (A) A             12 (A) A                -0.0282
     5 (A) A             22 (A) A                 0.0214
     7 (A) A             11 (A) A                 0.0213
     4 (A) A             24 (A) A                 0.0187
     3 (A) A             26 (A) A                -0.0185
     8 (A) A   8 (A) B   17 (A) A   20 (A) B      0.0184
     8 (A) A   8 (A) B    9 (A) A   28 (A) B     -0.0168
     6 (A) A             26 (A) A                 0.0162
     7 (A) A             21 (A) A                -0.0148
     3 (A) A             14 (A) A                 0.0139
     3 (A) A   4 (A) B    9 (A) A    9 (A) B     -0.0129
     6 (A) A             12 (A) A                -0.0125
     3 (A) A             19 (A) A                 0.0120
     8 (A) A   8 (A) B   18 (A) A   19 (A) B     -0.0113
     7 (A) A             32 (A) A                -0.0096
     7 (A) A             36 (A) A                 0.0086
     3 (A) A             23 (A) A                 0.0080
     8 (A) A   8 (A) B   25 (A) A   29 (A) B     -0.0076
     6 (A) A             35 (A) A                -0.0073
     6 (A) A             40 (A) A                 0.0068
     3 (A) A   6 (A) B    9 (A) A   28 (A) B      0.0065
     6 (A) A   8 (A) A   19 (A) A   28 (A) A     -0.0061
     5 (A) A   7 (A) B    9 (A) A    9 (A) B      0.0060
     5 (A) A   8 (A) B   11 (A) A   20 (A) B     -0.0059
     7 (A) A   8 (A) B   13 (A) A   20 (A) B     -0.0059
     5 (A) A   8 (A) B   16 (A) A    9 (A) B     -0.0059
     3 (A) A   5 (A) B    9 (A) A   25 (A) B     -0.0058
     5 (A) A   8 (A) B   11 (A) A    9 (A) B     -0.0058
     6 (A) A   8 (A) A    9 (A) A   18 (A) A      0.0057
     7 (A) A   8 (A) B   22 (A) A   20 (A) B     -0.0057
     3 (A) A             40 (A) A                -0.0057
     8 (A) A   8 (A) B   19 (A) A   30 (A) B     -0.0056
    -----------------------------------------------------

  Density matrix analysis:
  ------------------------
  NOs
    Occupation of frontier NOs:
       0.9495   1.0217
    Number of electrons: 16.000000
    Number of unpaired electrons: n_u =  2.31352, n_u,nl =  2.03275
    NO participation ratio (PR_NO):  2.864382
  
  
  Mulliken Population Analysis
  Atom      Charge (e)              h+              e-           Del q
  --------------------------------------------------------------------
   1 H        0.058995        0.020176       -0.012499        0.007677
   2 C       -0.117482        0.490607       -0.505677       -0.015070
   3 H        0.058021        0.019997       -0.012600        0.007397
   4 C       -0.115096        0.490526       -0.505637       -0.015111
   5 H        0.057966        0.020036       -0.012581        0.007455
   6 H        0.057597        0.020165       -0.012514        0.007652
  --------------------------------------------------------------------
  Sum:       -0.000000        1.061508       -1.061508        0.000000
  
  Multipole moment analysis of the density matrix
    Molecular charge:                      -0.000000
    Number of electrons:                   16.000000
      Center of electronic charge [Ang]: [ -1.562421,  -0.065604,   0.001966]
    Total nuclear charge:                  16.000000
      Center of nuclear charge [Ang]:    [ -1.562451,  -0.065602,   0.001978]
    Dipole moment [D]:                     0.002465
      Cartesian components [D]:          [ -0.002286,   0.000146,   0.000912]
    RMS size of the density [Ang]:         1.214948
      Cartesian components [Ang]:        [  0.805444,   0.787185,   0.455739]
  
  Exciton analysis of the difference density matrix
    <r_h> [Ang]:                  [ -1.562517,  -0.065750,   0.001790]
    <r_e> [Ang]:                  [ -1.562575,  -0.065741,   0.001750]
    |<r_e - r_h>| [Ang]:            0.000071
    Hole size [Ang]:                1.285899
      Cartesian components [Ang]: [  0.729293,   0.712242,   0.783824]
    Electron size [Ang]:            1.463022
      Cartesian components [Ang]: [  0.855214,   0.829412,   0.849187]

  Transition density matrix analysis:
  -----------------------------------
  
  CT numbers (Mulliken)
    omega =     0.9535
    <Phe> =    -0.1616
  
  Exciton analysis of the transition density matrix
    Trans. dipole moment [D]:             1.833685
      Cartesian components [D]:         [ -1.329873,   1.262415,   0.012040]
    <r_h> [Ang]:                        [ -1.562589,  -0.065792,   0.001818]
    <r_e> [Ang]:                        [ -1.562553,  -0.065729,   0.001727]
    |<r_e - r_h>| [Ang]:                  0.000116
    Hole size [Ang]:                      1.215524
      Cartesian components [Ang]:       [  0.651188,   0.636826,   0.804926]
    Electron size [Ang]:                  1.485408
      Cartesian components [Ang]:       [  0.865482,   0.838030,   0.868957]
    RMS electron-hole separation [Ang]:   1.937713
      Cartesian components [Ang]:       [  1.109360,   1.074463,   1.170291]
    Covariance(r_h, r_e) [Ang^2]:        -0.035398
    Correlation coefficient:             -0.019605
    Center-of-mass size [Ang]:            0.950413
      Cartesian components [Ang]:       [  0.528093,   0.515076,   0.599250]

  Decomposition into state-averaged NTOs
    H- 0 -> L+ 0: -0.6698 ( 89.7%)
    H- 2 -> L+ 5: -0.0844 (  1.4%)
                   omega =  95.4%
  ----------------------------------------------------------------------------


  Excited state 2 (singlet, A)                                     [converged]
  ----------------------------------------------------------------------------
  Term symbol:  3 (1) A                                     R^2 =  4.44382e-14

  Total energy:                                            -77.9868564490 a.u.
  Excitation energy:                                               9.054973 eV

  Osc. strength:                                                      0.000017
  Trans. dip. moment [a.u.]:           [  -0.003180,    0.002519,    0.007801]
  <i|r^2|0> [a.u.]:                    [   0.043283,    0.089138,   -0.150618]
  Two-photon absorption cross-section (SoS) [a.u.]:                   4.958197
  Two-photon absorption matrix (SoS) [a.u.]:
                                       |    0.050982    0.058940   -0.535065 |
                                       |    0.058940    0.067545   -0.565144 |
                                       |   -0.535065   -0.565144   -0.118636 |
  Two-photon absorption cross-section [a.u.]:                         0.080951
  Two-photon absorption matrix [a.u.]:
                                       |   -0.003369   -0.006747    0.041856 |
                                       |   -0.006747   -0.011492    0.090228 |
                                       |    0.041856    0.090228    0.014737 |

  Dip. moment [a.u.]:                  [  -0.007507,   -0.010390,   -0.000236]
  Total dipole [Debye]:                                               0.032586
  <r^2> [a.u.]:                        [ 174.994471,   33.917031,   13.174173]
  Total <r^2> [a.u.]:                                               222.085675

  V1^2 = 0.9541, V2^2 = 0.0459

  Important amplitudes:
      occ i     occ j     vir a      vir b          v   
    -----------------------------------------------------
     7 (A) A              9 (A) A                 0.6690
     8 (A) A             11 (A) A                 0.1481
     7 (A) A             20 (A) A                -0.0758
     5 (A) A   8 (A) B    9 (A) A    9 (A) B      0.0318
     8 (A) A             16 (A) A                 0.0272
     8 (A) A             21 (A) A                -0.0176
     5 (A) A             28 (A) A                 0.0150
     8 (A) A             10 (A) A                -0.0146
     4 (A) A   7 (A) B    9 (A) A   19 (A) B     -0.0135
     5 (A) A   7 (A) B    9 (A) A   16 (A) B      0.0133
     7 (A) A   8 (A) B   20 (A) A   17 (A) B      0.0105
     7 (A) A   8 (A) A    9 (A) A   28 (A) A      0.0098
     5 (A) A   8 (A) B    9 (A) A   20 (A) B     -0.0096
     4 (A) A   6 (A) B    9 (A) A   16 (A) B     -0.0091
     5 (A) A   6 (A) A    9 (A) A   23 (A) A      0.0091
     5 (A) A   6 (A) A    9 (A) A   14 (A) A      0.0090
     5 (A) A   6 (A) B    9 (A) A   19 (A) B      0.0087
     8 (A) A   7 (A) B    9 (A) A   28 (A) B     -0.0085
     4 (A) A   5 (A) A    9 (A) A   10 (A) A      0.0085
     6 (A) A   7 (A) B    9 (A) A   18 (A) B      0.0083
     5 (A) A   6 (A) B    9 (A) A   23 (A) B      0.0080
     3 (A) A   7 (A) B    9 (A) A   18 (A) B      0.0080
     5 (A) A   7 (A) A    9 (A) A   16 (A) A      0.0079
     4 (A) A   8 (A) B    9 (A) A   25 (A) B      0.0077
     7 (A) A   8 (A) B   17 (A) A   20 (A) B      0.0074
     4 (A) A   7 (A) B   19 (A) A    9 (A) B     -0.0074
     5 (A) A   5 (A) B    9 (A) A   13 (A) B     -0.0072
     7 (A) A   8 (A) B   19 (A) A   18 (A) B     -0.0072
     5 (A) A   8 (A) A    9 (A) A   20 (A) A     -0.0069
     4 (A) A   5 (A) B    9 (A) A   18 (A) B     -0.0067
     7 (A) A   8 (A) B   17 (A) A    9 (A) B     -0.0065
     7 (A) A   7 (A) B   20 (A) A   22 (A) B     -0.0065
     5 (A) A   6 (A) B    9 (A) A   14 (A) B      0.0064
     8 (A) A             12 (A) A                -0.0063
     4 (A) A   7 (A) A    9 (A) A   19 (A) A     -0.0061
     6 (A) A              9 (A) A                 0.0061
     4 (A) A   5 (A) B   10 (A) A    9 (A) B     -0.0061
     5 (A) A   7 (A) B   11 (A) A   20 (A) B     -0.0060
     4 (A) A   7 (A) B    9 (A) A   14 (A) B      0.0060
     6 (A) A   7 (A) A   19 (A) A   28 (A) A     -0.0057
    -----------------------------------------------------

  Density matrix analysis:
  ------------------------
  NOs
    Occupation of frontier NOs:
       0.9578   1.0542
    Number of electrons: 16.000000
    Number of unpaired electrons: n_u =  2.35570, n_u,nl =  2.06310
    NO participation ratio (PR_NO):  3.030088
  
  
  Mulliken Population Analysis
  Atom      Charge (e)              h+              e-           Del q
  --------------------------------------------------------------------
   1 H        0.145077        0.120354       -0.026594        0.093760
   2 C       -0.302722        0.272641       -0.472951       -0.200310
   3 H        0.157831        0.129660       -0.022454        0.107206
   4 C       -0.300617        0.271961       -0.472593       -0.200632
   5 H        0.153744        0.130730       -0.027497        0.103233
   6 H        0.146688        0.118311       -0.021568        0.096743
  --------------------------------------------------------------------
  Sum:       -0.000000        1.043656       -1.043656       -0.000000
  
  Multipole moment analysis of the density matrix
    Molecular charge:                      -0.000000
    Number of electrons:                   16.000000
      Center of electronic charge [Ang]: [ -1.562203,  -0.065259,   0.001986]
    Total nuclear charge:                  16.000000
      Center of nuclear charge [Ang]:    [ -1.562451,  -0.065602,   0.001978]
    Dipole moment [D]:                     0.032586
      Cartesian components [D]:          [ -0.019080,  -0.026410,  -0.000600]
    RMS size of the density [Ang]:         1.200897
      Cartesian components [Ang]:        [  0.788820,   0.767691,   0.480175]
  
  Exciton analysis of the difference density matrix
    <r_h> [Ang]:                  [ -1.559066,  -0.064196,   0.002268]
    <r_e> [Ang]:                  [ -1.555775,  -0.058889,   0.002529]
    |<r_e - r_h>| [Ang]:            0.006250
    Hole size [Ang]:                1.485966
      Cartesian components [Ang]: [  0.990078,   1.010538,   0.454591]
    Electron size [Ang]:            1.477452
      Cartesian components [Ang]: [  0.881390,   0.860344,   0.815981]

  Transition density matrix analysis:
  -----------------------------------
  
  CT numbers (Mulliken)
    omega =     0.9215
    <Phe> =    -0.0122
  
  Exciton analysis of the transition density matrix
    Trans. dipole moment [D]:             0.011174
      Cartesian components [D]:         [ -0.004041,   0.003201,   0.009914]
    <r_h> [Ang]:                        [ -1.559000,  -0.064380,   0.002302]
    <r_e> [Ang]:                        [ -1.555489,  -0.058321,   0.002526]
    |<r_e - r_h>| [Ang]:                  0.007006
    Hole size [Ang]:                      1.514283
      Cartesian components [Ang]:       [  1.011444,   1.035798,   0.444024]
    Electron size [Ang]:                  1.474592
      Cartesian components [Ang]:       [  0.872379,   0.849480,   0.831721]
    RMS electron-hole separation [Ang]:   2.093864
      Cartesian components [Ang]:       [  1.319866,   1.324654,   0.942079]
    Covariance(r_h, r_e) [Ang^2]:         0.041628
    Correlation coefficient:              0.018643
    Center-of-mass size [Ang]:            1.066622
      Cartesian components [Ang]:       [  0.675665,   0.677185,   0.471784]

  Decomposition into state-averaged NTOs
    H- 1 -> L+ 0: -0.6614 ( 87.5%)
    H- 0 -> L+ 2: -0.1483 (  4.4%)
                   omega =  92.2%
  ----------------------------------------------------------------------------


  Excited state 3 (singlet, A)                                     [converged]
  ----------------------------------------------------------------------------
  Term symbol:  4 (1) A                                     R^2 =  1.27519e-13

  Total energy:                                            -77.9831672938 a.u.
  Excitation energy:                                               9.155360 eV

  Osc. strength:                                                      0.025275
  Trans. dip. moment [a.u.]:           [  -0.015648,   -0.020096,    0.334715]
  <i|r^2|0> [a.u.]:                    [  -0.094898,   -0.004995,    0.000384]
  Two-photon absorption cross-section (SoS) [a.u.]:                   0.001075
  Two-photon absorption matrix (SoS) [a.u.]:
                                       |   -0.010879   -0.000430   -0.003071 |
                                       |   -0.000430    0.010476    0.001681 |
                                       |   -0.003071    0.001681   -0.003113 |
  Two-photon absorption cross-section [a.u.]:                         0.001525
  Two-photon absorption matrix [a.u.]:
                                       |   -0.008679    0.000800   -0.006073 |
                                       |    0.000800    0.007677   -0.008650 |
                                       |   -0.006073   -0.008650   -0.003487 |

  Dip. moment [a.u.]:                  [  -0.026548,    0.000615,   -0.001655]
  Total dipole [Debye]:                                               0.067627
  <r^2> [a.u.]:                        [ 181.114045,   40.622190,   11.032115]
  Total <r^2> [a.u.]:                                               232.768350

  V1^2 = 0.9588, V2^2 = 0.0412

  Important amplitudes:
      occ i     occ j     vir a      vir b          v   
    -----------------------------------------------------
     8 (A) A             10 (A) A                -0.6890
     8 (A) A             24 (A) A                -0.0507
     8 (A) A             18 (A) A                 0.0312
     4 (A) A              9 (A) A                -0.0237
     8 (A) A   8 (A) B    9 (A) A   12 (A) B      0.0220
     8 (A) A   8 (A) B   10 (A) A   17 (A) B     -0.0172
     8 (A) A             15 (A) A                -0.0171
     5 (A) A   8 (A) B   11 (A) A   10 (A) B      0.0165
     7 (A) A              9 (A) A                -0.0148
     7 (A) A   8 (A) B   13 (A) A   10 (A) B      0.0141
     4 (A) A   8 (A) B   12 (A) A   10 (A) B      0.0111
     6 (A) A   8 (A) A   10 (A) A   15 (A) A     -0.0109
     7 (A) A   8 (A) B   22 (A) A   10 (A) B      0.0108
     6 (A) A   8 (A) B   15 (A) A   10 (A) B      0.0107
     4 (A) A   8 (A) A   10 (A) A   12 (A) A     -0.0106
     7 (A) A   8 (A) A   10 (A) A   22 (A) A     -0.0099
     7 (A) A   8 (A) A   10 (A) A   13 (A) A     -0.0097
     5 (A) A   8 (A) B   21 (A) A   10 (A) B     -0.0094
     5 (A) A   8 (A) A   10 (A) A   11 (A) A     -0.0093
     6 (A) A   8 (A) A   10 (A) A   18 (A) A     -0.0088
     6 (A) A   8 (A) B   10 (A) A   10 (A) B     -0.0086
     7 (A) A   8 (A) A   12 (A) A   16 (A) A     -0.0081
     5 (A) A   8 (A) A   10 (A) A   21 (A) A      0.0079
     3 (A) A   4 (A) B   10 (A) A    9 (A) B      0.0079
     8 (A) A   8 (A) B    9 (A) A   23 (A) B      0.0075
     4 (A) A   8 (A) B   19 (A) A   10 (A) B     -0.0075
     8 (A) A   8 (A) B   10 (A) A   28 (A) B      0.0073
     3 (A) A   8 (A) B   10 (A) A   10 (A) B     -0.0072
     5 (A) A   8 (A) B   10 (A) A   11 (A) B      0.0071
     3 (A) A   8 (A) A   10 (A) A   24 (A) A      0.0071
     7 (A) A   8 (A) B   16 (A) A   12 (A) B      0.0070
     3 (A) A   8 (A) B   10 (A) A   18 (A) B      0.0069
     8 (A) A   8 (A) B    9 (A) A   19 (A) B     -0.0068
     6 (A) A   8 (A) B   18 (A) A   10 (A) B      0.0067
     3 (A) A   6 (A) B   10 (A) A   28 (A) B     -0.0062
     7 (A) A   8 (A) B   12 (A) A   11 (A) B      0.0057
     6 (A) A             28 (A) A                 0.0057
     3 (A) A   5 (A) B   10 (A) A   25 (A) B      0.0056
     3 (A) A   8 (A) A   10 (A) A   18 (A) A      0.0056
     5 (A) A   8 (A) A   10 (A) A   16 (A) A     -0.0056
    -----------------------------------------------------

  Density matrix analysis:
  ------------------------
  NOs
    Occupation of frontier NOs:
       0.9818   0.9845
    Number of electrons: 16.000000
    Number of unpaired electrons: n_u =  2.28614, n_u,nl =  2.02462
    NO participation ratio (PR_NO):  2.694191
  
  
  Mulliken Population Analysis
  Atom      Charge (e)              h+              e-           Del q
  --------------------------------------------------------------------
   1 H       -0.166079        0.053472       -0.270869       -0.217397
   2 C        0.327064        0.538992       -0.109516        0.429476
   3 H       -0.164784        0.053965       -0.269374       -0.215408
   4 C        0.327750        0.536464       -0.108729        0.427736
   5 H       -0.164293        0.053661       -0.268464       -0.214804
   6 H       -0.159657        0.053914       -0.263516       -0.209602
  --------------------------------------------------------------------
  Sum:       -0.000000        1.290468       -1.290468        0.000000
  
  Multipole moment analysis of the density matrix
    Molecular charge:                      -0.000000
    Number of electrons:                   16.000000
      Center of electronic charge [Ang]: [ -1.561573,  -0.065623,   0.002033]
    Total nuclear charge:                  16.000000
      Center of nuclear charge [Ang]:    [ -1.562451,  -0.065602,   0.001978]
    Dipole moment [D]:                     0.067627
      Cartesian components [D]:          [ -0.067478,   0.001564,  -0.004207]
    RMS size of the density [Ang]:         1.277122
      Cartesian components [Ang]:        [  0.855165,   0.840627,   0.439406]
  
  Exciton analysis of the difference density matrix
    <r_h> [Ang]:                  [ -1.561664,  -0.066689,   0.001851]
    <r_e> [Ang]:                  [ -1.551195,  -0.066911,   0.002644]
    |<r_e - r_h>| [Ang]:            0.010502
    Hole size [Ang]:                1.411120
      Cartesian components [Ang]: [  0.834834,   0.820018,   0.788596]
    Electron size [Ang]:            2.076707
      Cartesian components [Ang]: [  1.372836,   1.378268,   0.726919]

  Transition density matrix analysis:
  -----------------------------------
  
  CT numbers (Mulliken)
    omega =     0.9259
    <Phe> =    -0.0109
  
  Exciton analysis of the transition density matrix
    Trans. dipole moment [D]:             0.426610
      Cartesian components [D]:         [ -0.019886,  -0.025540,   0.425380]
    <r_h> [Ang]:                        [ -1.563134,  -0.066721,   0.001692]
    <r_e> [Ang]:                        [ -1.547559,  -0.067492,   0.002863]
    |<r_e - r_h>| [Ang]:                  0.015638
    Hole size [Ang]:                      1.214614
      Cartesian components [Ang]:       [  0.638450,   0.624206,   0.823429]
    Electron size [Ang]:                  2.296181
      Cartesian components [Ang]:       [  1.516437,   1.525532,   0.803504]
    RMS electron-hole separation [Ang]:   2.587711
      Cartesian components [Ang]:       [  1.637850,   1.641287,   1.148856]
    Covariance(r_h, r_e) [Ang^2]:         0.025866
    Correlation coefficient:              0.009274
    Center-of-mass size [Ang]:            1.303789
      Cartesian components [Ang]:       [  0.826452,   0.827638,   0.576073]

  Decomposition into state-averaged NTOs
    H- 0 -> L+ 1:  0.6795 ( 92.3%)
                   omega =  92.6%
  ----------------------------------------------------------------------------


  Excited state 4 (singlet, A)                                     [converged]
  ----------------------------------------------------------------------------
  Term symbol:  5 (1) A                                     R^2 =  3.12674e-13

  Total energy:                                            -77.9583046045 a.u.
  Excitation energy:                                               9.831908 eV

  Osc. strength:                                                      0.000007
  Trans. dip. moment [a.u.]:           [   0.001404,   -0.000859,   -0.005024]
  <i|r^2|0> [a.u.]:                    [   0.026581,    0.018141,   -0.036620]
  Two-photon absorption cross-section (SoS) [a.u.]:                 151.968011
  Two-photon absorption matrix (SoS) [a.u.]:
                                       |    0.290026    0.327192   -3.036351 |
                                       |    0.327192    0.364800   -3.057204 |
                                       |   -3.036351   -3.057204   -0.654865 |
  Two-photon absorption cross-section [a.u.]:                        94.007159
  Two-photon absorption matrix [a.u.]:
                                       |    0.226896    0.257114   -2.369006 |
                                       |    0.257114    0.288597   -2.423293 |
                                       |   -2.369006   -2.423293   -0.515487 |

  Dip. moment [a.u.]:                  [   0.019862,    0.033110,    0.002441]
  Total dipole [Debye]:                                               0.098334
  <r^2> [a.u.]:                        [ 181.800242,   40.618761,   10.771341]
  Total <r^2> [a.u.]:                                               233.190344

  V1^2 = 0.9635, V2^2 = 0.0365

  Important amplitudes:
      occ i     occ j     vir a      vir b          v   
    -----------------------------------------------------
     8 (A) A             11 (A) A                 0.6697
     7 (A) A              9 (A) A                -0.1500
     8 (A) A             21 (A) A                -0.0781
     8 (A) A             16 (A) A                 0.0641
     8 (A) A   8 (A) B    9 (A) A   13 (A) B     -0.0168
     5 (A) A   8 (A) B   11 (A) A   11 (A) B     -0.0155
     8 (A) A   8 (A) B   11 (A) A   17 (A) B      0.0140
     7 (A) A             20 (A) A                 0.0137
     7 (A) A   8 (A) B   13 (A) A   11 (A) B     -0.0127
     8 (A) A             12 (A) A                -0.0116
     6 (A) A              9 (A) A                -0.0112
     5 (A) A   8 (A) A   11 (A) A   21 (A) A     -0.0110
     4 (A) A   8 (A) B   12 (A) A   11 (A) B     -0.0110
     8 (A) A   8 (A) B    9 (A) A   22 (A) B     -0.0108
     7 (A) A   8 (A) A   11 (A) A   22 (A) A      0.0097
     6 (A) A   8 (A) B   15 (A) A   11 (A) B     -0.0090
     6 (A) A   8 (A) B   10 (A) A   11 (A) B      0.0089
     7 (A) A   8 (A) B   22 (A) A   11 (A) B     -0.0089
     3 (A) A   4 (A) B   11 (A) A    9 (A) B     -0.0083
     3 (A) A   8 (A) B   11 (A) A   18 (A) B     -0.0081
     6 (A) A   8 (A) A   11 (A) A   15 (A) A      0.0080
     7 (A) A   8 (A) A   13 (A) A   16 (A) A      0.0078
     7 (A) A   8 (A) A   11 (A) A   13 (A) A      0.0077
     5 (A) A   8 (A) B   21 (A) A   11 (A) B      0.0071
     4 (A) A   8 (A) B   19 (A) A   11 (A) B      0.0069
     5 (A) A   8 (A) B    9 (A) A    9 (A) B     -0.0068
     6 (A) A   8 (A) A   11 (A) A   18 (A) A      0.0063
     4 (A) A   8 (A) A   11 (A) A   12 (A) A      0.0062
     3 (A) A   6 (A) B   11 (A) A   28 (A) B      0.0061
     6 (A) A   8 (A) B   18 (A) A   11 (A) B     -0.0060
     7 (A) A   8 (A) B   16 (A) A   13 (A) B     -0.0057
     3 (A) A   8 (A) A   11 (A) A   18 (A) A     -0.0056
     5 (A) A   8 (A) B   10 (A) A   10 (A) B     -0.0056
     3 (A) A   8 (A) B   11 (A) A   30 (A) B     -0.0055
     3 (A) A   5 (A) B   11 (A) A   25 (A) B     -0.0054
     6 (A) A   8 (A) B   11 (A) A   10 (A) B      0.0054
     7 (A) A   8 (A) B   12 (A) A   10 (A) B     -0.0054
     8 (A) A   8 (A) B   20 (A) A   22 (A) B      0.0053
     3 (A) A   8 (A) A   11 (A) A   24 (A) A     -0.0053
     5 (A) A   8 (A) A   11 (A) A   16 (A) A      0.0048
    -----------------------------------------------------

  Density matrix analysis:
  ------------------------
  NOs
    Occupation of frontier NOs:
       0.9407   1.0277
    Number of electrons: 16.000000
    Number of unpaired electrons: n_u =  2.31938, n_u,nl =  2.04917
    NO participation ratio (PR_NO):  2.914891
  
  
  Mulliken Population Analysis
  Atom      Charge (e)              h+              e-           Del q
  --------------------------------------------------------------------
   1 H       -0.137991        0.045427       -0.234735       -0.189308
   2 C        0.274094        0.497420       -0.120913        0.376507
   3 H       -0.137955        0.047332       -0.235912       -0.188580
   4 C        0.276121        0.496512       -0.120406        0.376106
   5 H       -0.126020        0.047301       -0.223832       -0.176531
   6 H       -0.148250        0.045528       -0.243723       -0.198195
  --------------------------------------------------------------------
  Sum:       -0.000000        1.179520       -1.179520        0.000000
  
  Multipole moment analysis of the density matrix
    Molecular charge:                      -0.000000
    Number of electrons:                   16.000000
      Center of electronic charge [Ang]: [ -1.563108,  -0.066697,   0.001897]
    Total nuclear charge:                  16.000000
      Center of nuclear charge [Ang]:    [ -1.562451,  -0.065602,   0.001978]
    Dipole moment [D]:                     0.098334
      Cartesian components [D]:          [  0.050483,   0.084158,   0.006205]
    RMS size of the density [Ang]:         1.278080
      Cartesian components [Ang]:        [  0.859373,   0.840507,   0.434182]
  
  Exciton analysis of the difference density matrix
    <r_h> [Ang]:                  [ -1.562904,  -0.066747,   0.001775]
    <r_e> [Ang]:                  [ -1.572271,  -0.081568,   0.000804]
    |<r_e - r_h>| [Ang]:            0.017559
    Hole size [Ang]:                1.396019
      Cartesian components [Ang]: [  0.818268,   0.808468,   0.791003]
    Electron size [Ang]:            2.126425
      Cartesian components [Ang]: [  1.437672,   1.411831,   0.679350]

  Transition density matrix analysis:
  -----------------------------------
  
  CT numbers (Mulliken)
    omega =     0.9297
    <Phe> =    -0.0133
  
  Exciton analysis of the transition density matrix
    Trans. dipole moment [D]:             0.006719
      Cartesian components [D]:         [  0.001784,  -0.001092,  -0.006385]
    <r_h> [Ang]:                        [ -1.562531,  -0.065717,   0.001794]
    <r_e> [Ang]:                        [ -1.574009,  -0.084653,   0.000588]
    |<r_e - r_h>| [Ang]:                  0.022176
    Hole size [Ang]:                      1.229287
      Cartesian components [Ang]:       [  0.657903,   0.652091,   0.808139]
    Electron size [Ang]:                  2.264642
      Cartesian components [Ang]:       [  1.531358,   1.504183,   0.721790]
    RMS electron-hole separation [Ang]:   2.566168
      Cartesian components [Ang]:       [  1.658214,   1.631715,   1.083074]
    Covariance(r_h, r_e) [Ang^2]:         0.027514
    Correlation coefficient:              0.009883
    Center-of-mass size [Ang]:            1.293714
      Cartesian components [Ang]:       [  0.837593,   0.823627,   0.542008]

  Decomposition into state-averaged NTOs
    H- 0 -> L+ 2: -0.6648 ( 88.4%)
    H- 1 -> L+ 0:  0.1480 (  4.4%)
                   omega =  93.0%
  ----------------------------------------------------------------------------


  Excited state 5 (singlet, A)                                     [converged]
  ----------------------------------------------------------------------------
  Term symbol:  6 (1) A                                     R^2 =  2.56385e-13

  Total energy:                                            -77.9452286941 a.u.
  Excitation energy:                                              10.187722 eV

  Osc. strength:                                                      0.000000
  Trans. dip. moment [a.u.]:           [  -0.000207,   -0.000236,    0.001245]
  <i|r^2|0> [a.u.]:                    [  -0.090815,    0.103571,   -0.014096]
  Two-photon absorption cross-section (SoS) [a.u.]:                 164.207101
  Two-photon absorption matrix (SoS) [a.u.]:
                                       |   -0.306395   -0.042048    3.229635 |
                                       |   -0.042048    0.375199   -3.158128 |
                                       |    3.229635   -3.158128   -0.070420 |
  Two-photon absorption cross-section [a.u.]:                        69.656076
  Two-photon absorption matrix [a.u.]:
[...]
    16   -1.491923134754e-03
    17   -1.765436814140e-03
    18   -1.025834148656e-04
    19   -3.358570570295e-03
    20    1.034544470837e-02
    21    9.301978794747e-01
    22   -2.651015278511e-04
    23    1.391852918898e-02
    24    8.100969261235e-04
    25    7.001164073664e-02
    26   -5.206711043361e-02
    27   -1.398211068399e+00
    28    9.587759646980e-02
    29   -9.394482176459e-02
    30   -1.130985683278e-03
    31    3.782970921616e-01
    32   -3.626240680071e-01
    33   -3.986101557067e-03
    34    1.566829588325e-02
    35   -1.497289779960e-03
    36   -1.771841726232e-03
    37   -3.451067891673e-04
    38   -3.197957263666e-03
    39    1.036096523991e-02
    40    9.330895022572e-01
    41    1.955923206329e-04
    42   -1.391309777306e-02
    43   -8.266600085410e-04
    44    9.696250756951e-03
    45    9.335998922678e-01
    46    1.418823754039e-02
    47    2.455338470493e-04
    48    6.843318550258e-04
Sym=X
Ene= 0.233258
Spin=Alpha
Occup=0
     1   -2.547098464818e-02
     2   -1.222283607384e+00
     3    1.411665177995e-02
     4    3.841520994118e-03
     5    8.907657522009e-04
     6   -2.224003145439e-03
     7    3.148825849029e-03
     8    2.614642214526e-02
     9    1.536058112578e-01
    10    1.599414443967e-01
    11    1.668304903165e-02
    12    5.547775230034e-01
    13    5.608481482171e-01
    14    5.919970086440e-02
    15   -1.500908769837e-04
    16    5.279396878763e-05
    17   -7.516561784452e-06
    18    6.570758981058e-04
    19    2.103270998057e-04
    20    2.453739954450e-02
    21    1.172607880182e+00
    22    2.520314126576e-03
    23    1.390546132668e-02
    24    9.408890510527e-04
    25    2.842138962807e-03
    26   -3.510529653905e-03
    27   -4.527849778580e-02
    28    1.532841946544e-01
    29    1.586809286669e-01
    30    1.679360355602e-02
    31    5.553817600108e-01
    32    5.540480603149e-01
    33    5.965795271861e-02
    34    5.121400463734e-04
    35   -9.105145715931e-05
    36   -2.609718811113e-05
    37   -5.770964646735e-04
    38   -4.040993815560e-04
    39   -2.512284355256e-02
    40   -1.158889408006e+00
    41    2.430049160508e-03
    42    1.365188379439e-02
    43    9.339839614331e-04
    44    2.512057226164e-02
    45    1.232183856457e+00
    46    1.440214025596e-02
    47    3.898112066687e-03
    48    9.178260856028e-04
Sym=X
Ene= 0.239503
Spin=Alpha
Occup=0
     1   -1.594538876001e-02
     2   -1.053120287770e+00
     3    1.651380279036e-02
     4    9.142886377690e-03
     5    1.331287448253e-03
     6   -8.640142337439e-02
     7    7.942589484006e-02
     8    1.593329457761e+00
     9    5.357261386279e-02
    10   -5.945847855733e-02
    11   -8.829052226624e-04
    12    2.093254410308e-01
    13   -2.306311906889e-01
    14   -3.299160951579e-03
    15   -2.248201609648e-02
    16    2.607075324415e-03
    17    2.953524207924e-03
    18   -4.673347949701e-04
    19    1.284258757213e-02
    20   -1.717078176160e-02
    21   -1.116748224151e+00
    22   -8.534853585874e-03
    23   -1.767122486258e-02
    24   -1.445430044108e-03
    25    8.676616859395e-02
    26   -7.957590146377e-02
    27   -1.606914619738e+00
    28    5.322713139631e-02
    29   -6.061286764151e-02
    30   -1.234533508997e-03
    31    2.111175092332e-01
    32   -2.354318218385e-01
    33   -4.622133488390e-03
    34    2.274797981500e-02
    35   -2.612160243612e-03
    36   -3.020793029584e-03
    37    5.365750794346e-04
    38   -1.289055324069e-02
    39    1.650752190638e-02
    40    1.124763621554e+00
    41   -8.636063890255e-03
    42   -1.781816446955e-02
    43   -1.480804315498e-03
    44    1.567477723406e-02
    45    1.061918645408e+00
    46    1.675421108096e-02
    47    9.218858390470e-03
    48    1.333101669466e-03
Sym=X
Ene= 0.303046
Spin=Alpha
Occup=0
     1   -2.036201312050e-02
     2    1.691989700501e+00
     3   -2.288931137721e-02
     4    1.618771611685e-04
     5   -1.076260015206e-03
     6   -1.420107382996e-04
     7    2.315069221413e-04
     8   -3.310040722829e-03
     9   -1.341971801936e-01
    10   -1.394962042956e-01
    11   -1.458871441125e-02
    12   -1.139588721860e+00
    13   -1.191789377571e+00
    14   -1.246230211688e-01
    15   -8.048863900514e-05
    16   -1.645810980503e-03
    17    1.832969010793e-03
    18   -3.241949919299e-02
    19   -1.721803547468e-03
    20    1.905912622593e-02
    21   -1.686583709189e+00
    22    1.443903907135e-03
    23   -2.281694252565e-02
    24   -1.277441193374e-03
    25    2.285202837297e-05
    26    3.912823712754e-04
    27   -1.824634783540e-02
    28    1.346279967893e-01
    29    1.400317734980e-01
    30    1.476260348213e-02
    31    1.141150736020e+00
    32    1.195159418884e+00
    33    1.253092122874e-01
    34    2.001468849006e-04
    35   -1.649408045070e-03
    36    1.854815914525e-03
    37   -3.255493110444e-02
    38   -1.941370456107e-03
    39    1.886555547629e-02
    40   -1.688878548596e+00
    41   -1.609459708145e-03
    42    2.278151341119e-02
    43    1.289846640370e-03
    44   -2.100112753356e-02
    45    1.707762997893e+00
    46    2.302700349180e-02
    47   -1.870499953426e-04
    48    1.076907666688e-03
Sym=X
Ene= 0.461197
Spin=Alpha
Occup=0
     1   -1.120048340393e-01
     2   -7.158561238564e-01
     3   -1.520154078712e-02
     4   -1.053204518730e-02
     5   -1.336441732009e-03
     6    6.092844116946e-02
     7    1.634249391499e-02
     8   -3.545775924521e+00
     9    1.048944057786e-01
    10   -1.007099699354e-01
    11   -9.735199468444e-04
    12    2.412651141055e+00
    13   -2.281586224754e+00
    14   -2.105173213193e-02
    15    5.284117249159e-02
    16   -3.282682252610e-03
    17   -4.572552653645e-03
    18   -5.747734129347e-04
    19    1.797651424125e-02
    20   -1.212328688274e-01
    21   -6.990116130077e-01
    22    8.451819327397e-03
    23    1.617310561678e-02
    24    1.357960993729e-03
    25   -6.087831220174e-02
    26   -1.607327788098e-02
    27    3.540672314498e+00
    28    1.052540923462e-01
    29   -1.009914903716e-01
    30   -1.132689355118e-03
    31    2.417314012295e+00
    32   -2.276420295842e+00
    33   -2.124440398634e-02
    34   -5.240320823979e-02
    35    3.273652169691e-03
    36    4.555346391162e-03
    37    3.342241549181e-04
    38   -1.822634942597e-02
    39    1.192916263584e-01
    40    6.958798069647e-01
    41    8.365155096622e-03
    42    1.618801468328e-02
    43    1.362001110237e-03
    44    1.093211877866e-01
    45    7.278415973725e-01
    46   -1.514923398772e-02
    47   -1.038057913164e-02
    48   -1.344838224543e-03
Sym=X
Ene= 0.577974
Spin=Alpha
Occup=0
     1    2.476024220174e-01
     2    4.868145359468e-02
     3   -1.849947371944e-02
     4    2.591567070239e-02
     5    6.584314703642e-04
     6   -4.509132493934e-03
     7   -1.542019934207e-01
     8   -4.487489740748e-01
     9    2.967605040898e-01
    10   -2.871698538342e-01
    11   -3.030863064818e-03
    12   -7.295961701439e-01
    13    7.090465573201e-01
    14    7.594107227397e-03
    15   -6.397507003750e-03
    16    3.911198702363e-03
    17    3.909988465354e-03
    18   -5.663133009741e-03
    19    6.111769841698e-02
    20    2.603749327521e-01
    21    2.986323336280e-02
    22   -2.678463820292e-02
    23    1.595659932885e-02
    24   -3.234351527696e-04
    25   -4.803771784321e-03
    26   -1.541393678464e-01
    27   -4.354241777604e-01
    28   -2.966984652606e-01
    29    2.860004939605e-01
    30    2.946224169585e-03
    31    7.473360126066e-01
    32   -7.170304393818e-01
    33   -7.399316742254e-03
    34   -6.257620376466e-03
    35    3.939481714370e-03
    36    3.853499696025e-03
    37   -4.856429748820e-03
    38    6.111824567977e-02
    39    2.559452724076e-01
    40    3.617291442337e-02
    41    2.728367758161e-02
    42   -1.648065319609e-02
    43    3.035813656613e-04
    44    2.514212989524e-01
    45    5.719223853638e-02
    46    1.771629139703e-02
    47   -2.534916544095e-02
    48   -6.794282973001e-04
Sym=X
Ene= 0.615292
Spin=Alpha
Occup=0
     1   -5.274432981601e-01
     2    1.962124300453e-01
     3   -6.172734826081e-02
     4    3.721869645946e-02
     5   -7.321830707108e-04
     6   -8.890393929714e-04
     7    4.835778485247e-04
     8   -3.520028371417e-02
     9   -4.196176181468e-02
    10   -3.822955502776e-02
    11   -4.289345215667e-03
    12    3.227263933939e-01
    13    2.671827461109e-01
    14    3.091749593824e-02
    15    3.131183007549e-03
    16   -7.706229767880e-03
    17    8.146793979747e-03
    18   -1.484051111553e-01
    19   -6.468952998059e-03
    20    5.047829025005e-01
    21   -2.068736458011e-01
    22    4.212328276731e-02
    23   -5.799100842230e-02
    24   -1.444619791399e-03
    25    7.231040681741e-04
    26    6.457420771298e-04
    27    3.391722053350e-02
    28   -4.257049094566e-02
    29   -4.038170866484e-02
    30   -4.388067011193e-03
    31    3.271926798285e-01
    32    2.793243314833e-01
    33    3.235481743191e-02
    34   -1.745722530453e-03
    35    7.413255573738e-03
    36   -8.470110875761e-03
    37    1.482821752706e-01
    38    5.390063380387e-03
    39   -5.117640890144e-01
    40    2.056612848261e-01
    41    4.139335060373e-02
    42   -5.814271584416e-02
    43   -1.515163441600e-03
    44    5.206192017986e-01
    45   -1.841489840104e-01
    46   -6.138189952216e-02
    47    3.741553841849e-02
    48   -6.505554690536e-04
Sym=X
Ene= 0.689930
Spin=Alpha
Occup=0
     1    1.948560999381e-04
     2    8.120755880708e-06
     3    1.052857584277e-03
     4    1.263392770615e-03
     5   -2.116044460320e-02
     6    1.511392425950e-05
     7    2.411388058095e-04
     8   -1.043620160916e-04
     9    3.160792330549e-02
    10    3.987016901191e-02
    11   -6.712872972744e-01
    12   -2.895607875897e-02
    13   -3.628208014553e-02
    14    6.135570899738e-01
    15   -1.338138084020e-03
    16    8.280981338718e-02
    17   -7.803247783827e-02
    18   -8.601825848877e-03
    19   -1.184556774582e-03
    20    2.431287784364e-04
    21   -1.954007002791e-04
    22    9.589364066354e-04
    23    1.178901854429e-03
    24   -2.106991170084e-02
    25    1.012948043620e-05
    26    2.843939676274e-04
    27   -2.112982414101e-04
    28    3.191144176519e-02
    29    3.998110460066e-02
    30   -6.709730693984e-01
    31   -2.934412395750e-02
    32   -3.650040952390e-02
    33    6.135949231709e-01
    34    1.160945114339e-03
    35   -8.296889293427e-02
    36    7.813287681086e-02
    37    8.538037289154e-03
    38    1.250250238857e-03
    39    1.652856409303e-04
    40   -3.151362040563e-04
    41    1.020081786346e-03
    42    1.328811661999e-03
    43   -2.094797627046e-02
    44    1.220776328277e-04
    45   -1.106075705092e-04
    46    9.813451910329e-04
    47    1.315470486652e-03
    48   -2.202730593972e-02
Sym=X
Ene= 0.709226
Spin=Alpha
Occup=0
     1   -4.736447203687e-01
     2    1.618816664679e-01
     3   -8.165499175267e-02
     4   -4.438344890976e-02
     5   -6.506639173316e-03
     6   -4.801566950858e-02
     7   -3.197206349837e-01
     8    4.944332254234e-01
     9    2.069045327967e-01
    10   -1.931006960248e-01
    11   -1.997814953637e-03
    12   -1.010597028554e-01
    13    7.571548329890e-02
    14   -6.624127152179e-07
    15    1.953154911701e-01
    16   -2.049636004197e-02
    17   -2.402026761375e-02
    18    3.101495222801e-03
    19   -7.651823813610e-02
    20   -4.806470027191e-01
    21    1.487836290518e-01
    22    4.065272283478e-02
    23    8.231580171316e-02
    24    6.787297187794e-03
    25   -4.670524724071e-02
    26   -3.238285529707e-01
    27    4.726101849456e-01
    28   -2.055982333945e-01
    29    1.960476542614e-01
    30    1.623464751977e-03
    31    7.238328403707e-02
    32   -6.599451784517e-02
    33   -4.845232864466e-05
    34    1.930045910185e-01
    35   -2.036584709665e-02
    36   -2.377310711067e-02
    37    2.112757134330e-03
    38   -7.554492055974e-02
    39   -4.686502470414e-01
    40    1.403280103613e-01
    41   -4.094311895269e-02
    42   -8.066489817594e-02
    43   -6.759691879571e-03
    44   -4.690170233337e-01
    45    1.389333736017e-01
    46    8.085448125392e-02
    47    4.363221442442e-02
    48    6.428824915536e-03
Sym=X
Ene= 0.783752
Spin=Alpha
Occup=0
     1    5.231200773409e-01
     2   -4.604628969494e-01
     3    1.086579401289e-01
     4    2.538804776710e-02
     5    6.642290729206e-03
     6    9.073496319851e-02
     7   -2.187891700641e-01
     8   -6.212483122834e-01
     9    1.168198010297e-01
    10   -1.101655680643e-01
    11   -4.850823101130e-04
    12    3.021100776616e-01
    13   -2.747141451225e-01
    14   -3.059424049071e-03
    15   -2.052962311223e-01
    16    1.724281100018e-02
    17    2.162466242259e-02
    18   -2.402092683095e-03
    19    7.364477853658e-03
    20    5.360147889299e-01
    21   -4.630372716681e-01
    22   -1.975898502357e-02
    23   -1.119084256764e-01
    24   -7.552225100369e-03
    25   -9.166879604107e-02
    26    2.088491840771e-01
    27    6.423564341144e-01
    28    1.197196331592e-01
    29   -1.034436210476e-01
    30   -9.801914455154e-04
    31    2.862735542427e-01
    32   -2.848693235654e-01
    33   -2.363148481391e-03
    34    2.088278958351e-01
    35   -1.752631316816e-02
    36   -2.240684668663e-02
    37    3.633432437653e-03
    38   -8.110581601477e-03
    39   -5.462331377846e-01
    40    4.733466303731e-01
    41   -2.026441636320e-02
    42   -1.142475144420e-01
    43   -7.794273757882e-03
    44   -5.263315886859e-01
    45    4.429352895266e-01
    46    1.087621567778e-01
    47    2.619534846756e-02
    48    6.717675182588e-03
Sym=X
Ene= 0.807588
Spin=Alpha
Occup=0
     1    3.247507225430e-04
     2   -6.498906721107e-04
     3    1.720534876267e-03
     4    1.999263166743e-03
     5   -3.351448176413e-02
     6    6.326483643267e-05
     7   -1.697357711659e-04
     8   -5.090785350906e-05
     9    3.614893343968e-02
    10    4.498666858190e-02
    11   -7.630317286194e-01
    12   -5.289751505866e-02
    13   -6.664720118483e-02
    14    1.125108556659e+00
    15    7.879385785967e-04
    16   -6.440322821475e-02
    17    6.072384320556e-02
    18    6.734884025559e-03
    19    9.086884616225e-04
    20    3.206486127617e-04
    21   -1.027899462778e-04
    22    1.673371986767e-03
    23    1.972497692685e-03
    24   -3.454824696051e-02
    25   -6.063531272069e-05
    26    9.101236096954e-05
    27    1.022591877576e-04
    28   -3.608905424570e-02
    29   -4.576944701334e-02
    30    7.630296096307e-01
    31    5.363590233459e-02
    32    6.717152724076e-02
    33   -1.125300553376e+00
    34    1.173694432771e-03
    35   -6.438953736261e-02
    36    6.073061268936e-02
    37    6.588809502652e-03
    38    9.841012581190e-04
    39   -3.264904842858e-04
    40    1.317537361518e-04
    41   -1.580359565792e-03
    42   -2.142425498995e-03
    43    3.430772203777e-02
    44   -3.233535494593e-04
    45    6.546775951287e-04
    46   -1.477663067312e-03
    47   -2.045792985729e-03
    48    3.440813990806e-02
Sym=X
Ene= 0.863052
Spin=Alpha
Occup=0
     1    1.760209139605e-02
     2   -1.099904857475e+00
     3    1.501486210766e-01
     4    5.622243191404e-02
     5    1.043964412048e-02
     6    7.821584934669e-04
     7   -5.865984972263e-03
     8    9.660834908832e-03
     9   -4.059046160889e-01
    10   -4.350682110626e-01
    11   -4.478345288762e-02
    12    9.464869321515e-01
    13    1.009944962740e+00
    14    1.041765898607e-01
    15   -1.971345159722e-03
    16    1.184910579455e-02
    17   -1.351915116704e-02
    18    2.369697787030e-01
    19    8.110185158386e-03
    20   -1.398874677586e-02
    21    1.108601581505e+00
    22    5.045695361560e-02
    23    1.521793024354e-01
    24    1.140358678014e-02
    25   -1.120927496343e-03
    26   -1.550773674792e-03
    27   -2.924730922751e-03
    28   -3.997991750282e-01
    29   -4.306359692847e-01
    30   -4.484696345468e-02
    31    9.357336692683e-01
    32    1.003545614035e+00
    33    1.046798778459e-01
    34    3.596156034959e-03
    35   -1.197984032204e-02
    36    1.333263517063e-02
    37   -2.366427930176e-01
    38   -8.638653895458e-03
    39    9.221718280826e-03
    40   -1.101951396788e+00
    41    5.011717706518e-02
    42    1.506155789673e-01
    43    1.138582601764e-02
    44   -1.453223707662e-02
    45    1.091287475181e+00
    46    1.488148532516e-01
    47    5.581004081736e-02
    48    1.035591626478e-02
Sym=X
Ene= 0.935810
Spin=Alpha
Occup=0
     1    1.110844418213e-01
     2   -1.280259017805e+00
     3    1.796174042803e-01
     4   -4.880453128172e-03
     5    8.222239864422e-03
     6   -5.762859335847e-04
     7    1.143632641904e-02
     8   -2.524460650655e-02
     9   -4.762069709477e-01
    10   -4.917802540882e-01
    11   -5.168908590939e-02
    12    1.477986869373e+00
    13    1.519339495154e+00
    14    1.600398017185e-01
    15    2.602728632915e-03
    16    5.723872376287e-03
    17   -6.984698147791e-03
    18    1.188074494519e-01
    19    4.881153866255e-03
    20   -1.175939704754e-01
    21    1.277346498818e+00
    22   -1.227900990434e-02
    23    1.824781720608e-01
    24    1.019844320840e-02
    25    1.024663126567e-03
    26    1.551373716628e-02
    27   -8.131376246814e-03
    28    4.659645845177e-01
    29    5.077574851103e-01
    30    5.236554760875e-02
    31   -1.452745123782e+00
    32   -1.561444959049e+00
    33   -1.619458981590e-01
    34   -2.002803156611e-03
    35    5.868804048381e-03
    36   -7.301032241386e-03
    37    1.229291373242e-01
    38   -1.459529783688e-03
    39   -1.158698607935e-01
    40    1.306668173001e+00
    41    1.046417127246e-02
    42   -1.848322395389e-01
    43   -1.056386072260e-02
    44    1.142685685596e-01
    45   -1.279303499771e+00
    46   -1.808326565730e-01
    47    7.044258536548e-03
    48   -8.142004529219e-03
Sym=X
Ene= 0.970660
Spin=Alpha
Occup=0
     1   -7.124799492598e-02
     2    9.175196099759e-01
     3   -9.029036988242e-02
     4   -9.834158349982e-02
     5   -1.014253112736e-02
     6    2.411409743414e-02
     7    2.504160237315e-01
     8    5.365077044171e-01
     9    4.773784600120e-01
    10   -4.598174817584e-01
    11   -4.563632288102e-03
    12   -1.487650902010e+00
    13    1.437360062118e+00
    14    1.454045412062e-02
    15   -5.170630254653e-02
    16   -1.309117013026e-02
    17   -9.881255637208e-03
    18    1.420193050743e-02
    19   -3.018170596728e-01
    20   -6.675232834263e-02
    21    9.281402000688e-01
    22    9.520702356858e-02
    23    9.554556647663e-02
    24    1.015173632237e-02
    25   -2.381981905862e-02
    26   -2.283888179719e-01
    27   -5.728356035847e-01
    28    4.858006703629e-01
    29   -4.449481719270e-01
    30   -3.678157497827e-03
    31   -1.523690161189e+00
    32    1.387151952881e+00
    33    1.093417718722e-02
    34    5.053912432313e-02
    35    1.318921844689e-02
    36    9.705868403361e-03
    37   -1.071083913163e-02
    38    2.995156787749e-01
    39    6.554859665517e-02
    40   -8.786983798355e-01
    41    9.431542413443e-02
    42    8.879868418947e-02
    43    9.802495755306e-03
    44    7.140025580318e-02
    45   -9.424843370985e-01
    46   -9.301340301962e-02
    47   -9.760532483299e-02
    48   -1.016778396061e-02
[5D]

======= END OF MOLDEN-FORMATTED INPUT FILE =======


        *************************************************************
        *                                                           *
        *  Thank you very much for using Q-Chem.  Have a nice day.  *
        *                                                           *
        *************************************************************


