                  Welcome to Q-Chem
     A Quantum Leap Into The Future Of Chemistry


 Q-Chem 5.4 (devel), Q-Chem, Inc., Pleasanton, CA (2021)

 E. Epifanovsky,  A. T. B. Gilbert,  Xintian Feng,  Joonho Lee,  Yuezhi Mao,  
 N. Mardirossian,  P. Pokhilko,  A. White,  M. Wormit,  M. P. Coons,  
 A. L. Dempwolff,  Zhengting Gan,  D. Hait,  P. R. Horn,  L. D. Jacobson,  
 I. Kaliman,  J. Kussmann,  A. W. Lange,  Ka Un Lao,  D. S. Levine,  Jie Liu,  
 S. C. McKenzie,  A. F. Morrison,  K. Nanda,  F. Plasser,  D. R. Rehn,  
 M. L. Vidal,  Zhi-Qiang You,  Ying Zhu,  B. Alam,  B. Albrecht,  
 A. Aldossary,  E. Alguire,  J. H. Andersen,  D. Barton,  K. Begam,  A. Behn,  
 Y. A. Bernard,  E. J. Berquist,  H. Burton,  A. Carreras,  K. Carter-Fenk,  
 R. Chakraborty,  A. D. Chien,  K. D. Closser,  V. Cofer-Shabica,  
 S. Dasgupta,  Jia Deng,  M. de Wergifosse,  M. Diedenhofen,  Hainam Do,  
 S. Ehlert,  Po-Tung Fang,  S. Fatehi,  Qingguo Feng,  T. Friedhoff,  
 J. Gayvert,  Qinghui Ge,  G. Gidofalvi,  M. Goldey,  J. Gomes,  
 C. Gonzalez-Espinoza,  S. Gulania,  A. Gunina,  M. W. D. Hanson-Heine,  
 P. H. P. Harbach,  A. W. Hauser,  M. F. Herbst,  M. Hernandez Vera,  
 M. Hodecker,  Z. C. Holden,  S. Houck,  Xunkun Huang,  Kerwin Hui,  
 B. C. Huynh,  M. Ivanov,  Hyunjun Ji,  Hanjie Jiang,  B. Kaduk,  S. Kaehler,  
 K. Khistyaev,  Jaehoon Kim,  P. Klunzinger,  Z. Koczor-Benda,  
 Joong Hoon Koh,  D. Kosenkov,  L. Koulias,  T. Kowalczyk,  C. M. Krauter,  
 K. Kue,  A. Kunitsa,  T. Kus,  A. Landau,  K. V. Lawler,  D. Lefrancois,  
 S. Lehtola,  Rain Li,  Yi-Pei Li,  Jiashu Liang,  M. Liebenthal,  
 Hung-Hsuan Lin,  You-Sheng Lin,  Fenglai Liu,  Kuan-Yu Liu,  
 M. Loipersberger,  A. Luenser,  A. Manjanath,  P. Manohar,  E. Mansoor,  
 S. F. Manzer,  Shan-Ping Mao,  A. V. Marenich,  T. Markovich,  S. Mason,  
 S. A. Maurer,  P. F. McLaughlin,  M. F. S. J. Menger,  J.-M. Mewes,  
 S. A. Mewes,  P. Morgante,  J. W. Mullinax,  K. J. Oosterbaan,  G. Paran,  
 Alexander C. Paul,  Suranjan K. Paul,  F. Pavosevic,  Zheng Pei,  S. Prager,  
 E. I. Proynov,  E. Ramos,  B. Rana,  A. E. Rask,  A. Rettig,  R. M. Richard,  
 F. Rob,  E. Rossomme,  T. Scheele,  M. Scheurer,  M. Schneider,  
 N. Sergueev,  S. M. Sharada,  W. Skomorowski,  D. W. Small,  C. J. Stein,  
 Yu-Chuan Su,  E. J. Sundstrom,  Zhen Tao,  J. Thirman,  T. Tsuchimochi,  
 N. M. Tubman,  S. P. Veccham,  O. Vydrov,  J. Wenzel,  J. Witte,  A. Yamada,  
 Kun Yao,  S. Yeganeh,  S. R. Yost,  A. Zech,  Igor Ying Zhang,  Xing Zhang,  
 Yu Zhang,  D. Zuev,  A. Aspuru-Guzik,  A. T. Bell,  N. A. Besley,  
 K. B. Bravaya,  B. R. Brooks,  D. Casanova,  Jeng-Da Chai,  S. Coriani,  
 C. J. Cramer,  A. E. DePrince, III,  R. A. DiStasio Jr.,  A. Dreuw,  
 B. D. Dunietz,  T. R. Furlani,  W. A. Goddard III,  S. Grimme,  
 S. Hammes-Schiffer,  T. Head-Gordon,  W. J. Hehre,  Chao-Ping Hsu,  
 T.-C. Jagau,  Yousung Jung,  A. Klamt,  Jing Kong,  D. S. Lambrecht,  
 WanZhen Liang,  N. J. Mayhall,  C. W. McCurdy,  J. B. Neaton,  
 C. Ochsenfeld,  J. A. Parkhill,  R. Peverati,  V. A. Rassolov,  Yihan Shao,  
 L. V. Slipchenko,  T. Stauch,  R. P. Steele,  J. E. Subotnik,  
 A. J. W. Thom,  A. Tkatchenko,  D. G. Truhlar,  T. Van Voorhis,  
 T. A. Wesolowski,  K. B. Whaley,  H. L. Woodcock III,  P. M. Zimmerman,  
 S. Faraji,  P. M. W. Gill,  M. Head-Gordon,  J. M. Herbert,  A. I. Krylov

 Additional authors for Version 5.4.1: 
 S. Kotaru,  Shaozhi Li,  Xiangyuan Li,  F. Matz,  A. Molle,  Haisheng Ren,  
 Yingli Su,  Hung-Yi Tsai,  C. Utku,  Fang Wang

 Contributors to earlier versions of Q-Chem not listed above: 
 R. D. Adamson,  B. Austin,  R. Baer,  J. Baker,  G. J. O. Beran,  
 K. Brandhorst,  S. T. Brown,  E. F. C. Byrd,  A. K. Chakraborty,  
 G. K. L. Chan,  Chun-Min Chang,  Yunqing Chen,  C.-L. Cheng,  
 Siu Hung Chien,  D. M. Chipman,  D. L. Crittenden,  H. Dachsel,  
 R. J. Doerksen,  A. D. Dutoi,  R. G. Edgar,  J. Fosso-Tande,  
 L. Fusti-Molnar,  D. Ghosh,  A. Ghysels,  A. Golubeva-Zadorozhnaya,  
 J. Gonthier,  M. S. Gordon,  S. R. Gwaltney,  G. Hawkins,  J. E. Herr,  
 A. Heyden,  S. Hirata,  E. G. Hohenstein,  G. Kedziora,  F. J. Keil,  
 C. Kelley,  Jihan Kim,  R. A. King,  R. Z. Khaliullin,  P. P. Korambath,  
 W. Kurlancheek,  A. Laurent,  A. M. Lee,  M. S. Lee,  S. V. Levchenko,  
 Ching Yeh Lin,  D. Liotard,  E. Livshits,  R. C. Lochan,  I. Lotan,  
 L. A. Martinez-Martinez,  P. E. Maslen,  N. Nair,  D. P. O'Neill,  
 D. Neuhauser,  E. Neuscamman,  C. M. Oana,  R. Olivares-Amaya,  R. Olson,  
 T. M. Perrine,  B. Peters,  P. A. Pieniazek,  A. Prociuk,  Y. M. Rhee,  
 J. Ritchie,  M. A. Rohrdanz,  E. Rosta,  N. J. Russ,  H. F. Schaefer III,  
 M. W. Schmidt,  N. E. Schultz,  S. Sharma,  N. Shenvi,  C. D. Sherrill,  
 A. C. Simmonett,  A. Sodt,  T. Stein,  D. Stuck,  K. S. Thanthiriwatte,  
 V. Vanovschi,  L. Vogt,  Tao Wang,  A. Warshel,  M. A. Watson,  
 C. F. Williams,  Q. Wu,  X. Xu,  Jun Yang,  W. Zhang,  Yan Zhao

 Please cite Q-Chem as follows:
 Y. Shao et al., Mol. Phys. 113, 184-215 (2015)
 DOI: 10.1080/00268976.2014.952696

 Q-Chem 5.4.1 for Intel X86 EM64T Linux

 Parts of Q-Chem use Armadillo 9.800.1 (Horizon Scraper).
 http://arma.sourceforge.net/

 Q-Chem begins on Wed Mar 15 17:57:17 2023  

 Host: cpu121.yggdrasil
0

     Scratch files written to /srv/beegfs/scratch/users/f/fum/qchem94850//
 Processing $rem in /home/share/wesolowski/qc5.aug2021.FDE/config/preferences:
 Processing $rem in /home/fum/.qchemrc:

 Checking the input file for inconsistencies... 	...done.

--------------------------------------------------------------
User input:
--------------------------------------------------------------
$comment
generated from CCJob.Templates
$end

$rem
sym_ignore = true
method = adc(2)
ee_states = 10
basis = cc-pVDZ
mem_static = 1024
mem_total = 40000
adc_davidson_maxiter = 900
adc_davidson_conv = 6
adc_print = 3
adc_prop_es = true
adc_prop_es2es = true
adc_prop_tpa = true
molden_format = True
state_analysis = true
print_orbitals = 15
gen_scfman = false
fde_export_density = true
fde_details = 3
$end

$molecule
0 1
H -0.0348278765 -0.2442097827 0.0636489606
C -1.0765972949 -0.5242748755 -0.0023551776
H -1.313264467 -1.5767591607 -0.0757276926
C -2.043634118 0.43268840869999997 0.0061254933
H -1.8137616575 1.4459188338 0.0804456828
H -3.085977293 0.114931858 -0.0593381042                     
$end
--------------------------------------------------------------
 ----------------------------------------------------------------
             Standard Nuclear Orientation (Angstroms)
    I     Atom           X                Y                Z
 ----------------------------------------------------------------
    1      H      -0.0348278765    -0.2442097827     0.0636489606
    2      C      -1.0765972949    -0.5242748755    -0.0023551776
    3      H      -1.3132644670    -1.5767591607    -0.0757276926
    4      C      -2.0436341180     0.4326884087     0.0061254933
    5      H      -1.8137616575     1.4459188338     0.0804456828
    6      H      -3.0859772930     0.1149318580    -0.0593381042
 ----------------------------------------------------------------
 Nuclear Repulsion Energy =          33.17627170 hartrees
 There are        8 alpha and        8 beta electrons
 Requested basis set is cc-pVDZ
 There are 24 shells and 48 basis functions
 Total memory of 40000 MB is distributed as follows: 
   MEM_STATIC is set to 1024 MB
   QALLOC/CCMAN JOB total memory use is  38976 MB
 Warning: actual memory use might exceed 40000 MB

 Total QAlloc Memory Limit  40000 MB
 Mega-Array Size      1001 MB
 MEM_STATIC part      1024 MB

                       Distance Matrix (Angstroms)
             H (  1)   C (  2)   H (  3)   C (  4)   H (  5)
   C (  2)  1.080776
   H (  3)  1.851895  1.081258
   C (  4)  2.120567  1.360519  2.139631
   H (  5)  2.453859  2.105215  3.067812  1.041634
   H (  6)  3.074674  2.109370  2.450428  1.091666  1.846510

 A cutoff of  1.0D-11 yielded    300 shell pairs
 There are      1220 function pairs (      1329 Cartesian)
 Smallest overlap matrix eigenvalue = 5.29E-03

 Scale SEOQF with 1.000000e-01/1.000000e-01/1.000000e+00

 Standard Electronic Orientation quadrupole field applied
 Nucleus-field energy     =     0.0000000022 hartrees
 Guess from superposition of atomic densities
 Warning:  Energy on first SCF cycle will be non-variational
 SAD guess density has 16.000000 electrons
 A restricted Hartree-Fock SCF calculation will be
 performed using Pulay DIIS extrapolation
 SCF converges when DIIS error is below 1.0E-08
 using 10 threads for integral computing
 -------------------------------------------------------
 OpenMP Integral computing Module                
 Release: version 1.0, May 2013, Q-Chem Inc. Pittsburgh 
 -------------------------------------------------------
 ---------------------------------------
  Cycle       Energy         DIIS Error
 ---------------------------------------
    1     -78.4038194675      9.91E-02
    2     -78.0145168513      7.12E-03
    3     -78.0350216418      1.81E-03
    4     -78.0364853695      5.37E-04
    5     -78.0365923374      6.51E-05
    6     -78.0365943766      1.93E-05
    7     -78.0365945348      6.66E-06
    8     -78.0365945529      1.28E-06
    9     -78.0365945544      4.14E-07
   10     -78.0365945545      1.01E-07
   11     -78.0365945545      6.87E-09 Convergence criterion met
 ---------------------------------------
 SCF time:  CPU 2.06 s  wall 3.17 s
 SCF   energy in the final basis set = -78.03659455
 Total energy in the final basis set = -78.03659455
Exporting Density Matrix to file 'Densmat_SCF.txt'.
Export successful
================================================================================
|                                                                              |
|                                 A D C  M A N                                 |
|                                                                              |
 ------------------------------------------------------------------------------ 
|                                                                              |
| Components:                                                                  |
|                                                                              |
| - libvmm - 1.3-trunk                                                         |
|   Authors:                                                                   |
|   Evgeny Epifanovsky, Ilya Kaliman                                           |
|                                                                              |
| - libtensor - 2.5-trunk                                                      |
|   Authors:                                                                   |
|   Evgeny Epifanovsky, Michael Wormit, Dmitry Zuev, Sam Manzer,               |
|   Ilya Kaliman                                                               |
|                                                                              |
| - libwfa - 1.1-trunk                                                         |
|   Authors:                                                                   |
|   Felix Plasser, Stefanie Mewes (Baeppler), Benjamin Thomitzni,              |
|   Michael Wormit, Feng Chen, Anna I. Krylov, Pavel Pokhilko                  |
|                                                                              |
| - libadc - 1.1-trunk                                                         |
|   Authors:                                                                   |
|   Michael Wormit, Adrian L. Dempwolff, Philipp H. P. Harbach,                |
|   Caroline Krauter, Dirk Rehn, Matthias Schneider, Jan Wenzel                |
|                                                                              |
| - adcman - 2.6-trunk                                                         |
|   Authors:                                                                   |
|   Michael Wormit, Adrian L. Dempwolff, Philipp H. P. Harbach,                |
|   Caroline Krauter, Daniel Lefrancois, Jan-Michael Mewes, Dirk Rehn,         |
|   Matthias Schneider, Jan Wenzel, Andreas Dreuw                              |
|                                                                              |
| Authors of earlier versions of ADCMAN:                                       |
| Andreas Dreuw, Jan Hendrik Starcke, Dirk Rehn, Michael Wormit                |
|                                                                              |
================================================================================

 Created directory /srv/beegfs/scratch/users/f/fum/qchem94850/plots
  Import QC data ...  CPU 0.00 s  wall 0.01 s

 Alpha MOs, Restricted
 -- Occupied --                  
-11.239 -11.236  -1.026  -0.795  -0.643  -0.576  -0.512  -0.367
  1 A     2 A     3 A     4 A     5 A     6 A     7 A     8 A                  
 -- Virtual --                   
  0.162   0.203   0.235   0.240   0.302   0.455   0.581   0.616
  9 A    10 A    11 A    12 A    13 A    14 A    15 A    16 A                  
  0.695   0.712   0.778   0.805   0.868   0.934   0.961   1.012
 17 A    18 A    19 A    20 A    21 A    22 A    23 A    24 A                  
  1.133   1.226   1.256   1.257   1.290   1.611   1.718   1.746
 25 A    26 A    27 A    28 A    29 A    30 A    31 A    32 A                  
  1.818   1.849   1.862   1.924   1.969   1.992   2.205   2.241
 33 A    34 A    35 A    36 A    37 A    38 A    39 A    40 A                  
  2.378   2.462   2.500   2.610   2.738   2.838   3.156   3.385
 41 A    42 A    43 A    44 A    45 A    46 A    47 A    48 A                  

 Beta MOs, Restricted
 -- Occupied --                  
-11.239 -11.236  -1.026  -0.795  -0.643  -0.576  -0.512  -0.367
  1 A     2 A     3 A     4 A     5 A     6 A     7 A     8 A                  
 -- Virtual --                   
  0.162   0.203   0.235   0.240   0.302   0.455   0.581   0.616
  9 A    10 A    11 A    12 A    13 A    14 A    15 A    16 A                  
  0.695   0.712   0.778   0.805   0.868   0.934   0.961   1.012
 17 A    18 A    19 A    20 A    21 A    22 A    23 A    24 A                  
  1.133   1.226   1.256   1.257   1.290   1.611   1.718   1.746
 25 A    26 A    27 A    28 A    29 A    30 A    31 A    32 A                  
  1.818   1.849   1.862   1.924   1.969   1.992   2.205   2.241
 33 A    34 A    35 A    36 A    37 A    38 A    39 A    40 A                  
  2.378   2.462   2.500   2.610   2.738   2.838   3.156   3.385
 41 A    42 A    43 A    44 A    45 A    46 A    47 A    48 A                  
  Import AO data ...  CPU 0.01 s  wall 0.06 s
  Using point group: C1
  Irreducible representations in point group: A
  Molecular orbitals: 
  Occupied MOs:
  Block   0:   1 (  A) A   2 (  A) A   3 (  A) A   4 (  A) A   5 (  A) A
                  -11.24      -11.24      -1.026     -0.7948     -0.6428
               6 (  A) A   7 (  A) A   8 (  A) A
                 -0.5763     -0.5116     -0.3673
  Block   1:   1 (  A) B   2 (  A) B   3 (  A) B   4 (  A) B   5 (  A) B
                  -11.24      -11.24      -1.026     -0.7948     -0.6428
               6 (  A) B   7 (  A) B   8 (  A) B
                 -0.5763     -0.5116     -0.3673
  Virtual MOs:
  Block   0:   9 (  A) A  10 (  A) A  11 (  A) A  12 (  A) A  13 (  A) A
                   0.162      0.2032       0.235      0.2401      0.3015
              14 (  A) A  15 (  A) A  16 (  A) A  17 (  A) A  18 (  A) A
                  0.4552       0.581      0.6163      0.6948      0.7116
              19 (  A) A  20 (  A) A  21 (  A) A  22 (  A) A
                  0.7776       0.805      0.8683      0.9339
  Block   1:  23 (  A) A  24 (  A) A  25 (  A) A  26 (  A) A  27 (  A) A
                  0.9605       1.012       1.133       1.226       1.256
              28 (  A) A  29 (  A) A  30 (  A) A  31 (  A) A  32 (  A) A
                   1.257        1.29       1.611       1.718       1.746
              33 (  A) A  34 (  A) A  35 (  A) A  36 (  A) A
                   1.818       1.849       1.862       1.924
  Block   2:  37 (  A) A  38 (  A) A  39 (  A) A  40 (  A) A  41 (  A) A
                   1.969       1.992       2.205       2.241       2.378
              42 (  A) A  43 (  A) A  44 (  A) A  45 (  A) A  46 (  A) A
                   2.462         2.5        2.61       2.738       2.838
              47 (  A) A  48 (  A) A
                   3.156       3.385
  Block   3:   9 (  A) B  10 (  A) B  11 (  A) B  12 (  A) B  13 (  A) B
                   0.162      0.2032       0.235      0.2401      0.3015
              14 (  A) B  15 (  A) B  16 (  A) B  17 (  A) B  18 (  A) B
                  0.4552       0.581      0.6163      0.6948      0.7116
              19 (  A) B  20 (  A) B  21 (  A) B  22 (  A) B
                  0.7776       0.805      0.8683      0.9339
  Block   4:  23 (  A) B  24 (  A) B  25 (  A) B  26 (  A) B  27 (  A) B
                  0.9605       1.012       1.133       1.226       1.256
              28 (  A) B  29 (  A) B  30 (  A) B  31 (  A) B  32 (  A) B
                   1.257        1.29       1.611       1.718       1.746
              33 (  A) B  34 (  A) B  35 (  A) B  36 (  A) B
                   1.818       1.849       1.862       1.924
  Block   5:  37 (  A) B  38 (  A) B  39 (  A) B  40 (  A) B  41 (  A) B
                   1.969       1.992       2.205       2.241       2.378
              42 (  A) B  43 (  A) B  44 (  A) B  45 (  A) B  46 (  A) B
                   2.462         2.5        2.61       2.738       2.838
              47 (  A) B  48 (  A) B
                   3.156       3.385
  Import MO data ...  CPU 0.01 s  wall 0.03 s
  Import HF data ...  CPU 0.07 s  wall 0.03 s
  Import 2e integrals ...  CPU 0.79 s  wall 0.13 s

--------------------------------------------------------------------------------
                                   HF Summary                                   
--------------------------------------------------------------------------------
  Energy:                                                  -78.0365945545 a.u.
  Dip. moment [a.u.]:                  [   0.004664,    0.002427,    0.002152]
  Total dipole [Debye]:                                               0.014439
  <r^2> [a.u.]:                        [ 175.428547,   35.519688,   11.680665]
  Total <r^2> [a.u.]:                                               222.628900
--------------------------------------------------------------------------------
  HF properties ...  CPU 0.01 s  wall 0.01 s
  MP(1) calculation ...  CPU 0.01 s  wall 0.01 s
  N^6 prerequesite intermediates ...  CPU 0.42 s  wall 0.08 s
  Difference density matrix of state mp2_gs printed to ASCII file 'State_mp2_gs_Difference.txt'
Exporting MP density matrix to file 'Densmat_MP.txt'.
Export successful
  Total density matrix of state mp2_gs printed to ASCII file 'State_mp2_gs_Total.txt'
Exporting MP density matrix to file 'Densmat_MP.txt'.
Export successful

--------------------------------------------------------------------------------
                                 MP(2) Summary                                  
--------------------------------------------------------------------------------
  MP energy contribution:                                   -0.2809868042 a.u.
  Total energy:                                            -78.3175813587 a.u.
  Dip. moment [a.u.]:                  [   0.003314,    0.001696,    0.002020]
  Total dipole [Debye]:                                               0.010765
  <r^2> [a.u.]:                        [ 175.455063,   35.566969,   11.495165]
  Total <r^2> [a.u.]:                                               222.517197

  Density matrix analysis:
  ------------------------
  NOs
    Occupation of frontier NOs:
       0.0477   1.9361
    Number of electrons: 16.000000
    Number of unpaired electrons: n_u =  0.40914, n_u,nl =  0.04720
    NO participation ratio (PR_NO): 13.589106
  
  
  Mulliken Population Analysis
  Atom      Charge (e)              h+              e-           Del q
  --------------------------------------------------------------------
   1 H        0.051621        0.014147       -0.011216        0.002930
   2 C       -0.112969        0.095938       -0.101738       -0.005800
   3 H        0.053499        0.013959       -0.011259        0.002700
   4 C       -0.089393        0.094692       -0.100606       -0.005914
   5 H        0.043215        0.014451       -0.011149        0.003303
   6 H        0.054027        0.013966       -0.011185        0.002781
  --------------------------------------------------------------------
  Sum:        0.000000        0.247153       -0.247153        0.000000
  
  Multipole moment analysis of the density matrix
    Molecular charge:                      0.000000
    Number of electrons:                   16.000000
      Center of electronic charge [Ang]: [ -1.560686,  -0.050658,   0.001911]
    Total nuclear charge:                  16.000000
      Center of nuclear charge [Ang]:    [ -1.560576,  -0.050602,   0.001978]
    Dipole moment [D]:                     0.010765
      Cartesian components [D]:          [  0.008423,   0.004310,   0.005135]
    RMS size of the density [Ang]:         1.206705
      Cartesian components [Ang]:        [  0.796892,   0.787349,   0.448533]
  
  Exciton analysis of the difference density matrix
    <r_h> [Ang]:                  [ -1.561586,  -0.055024,   0.001317]
    <r_e> [Ang]:                  [ -1.558696,  -0.053458,   0.001600]
    |<r_e - r_h>| [Ang]:            0.003299
    Hole size [Ang]:                1.402565
      Cartesian components [Ang]: [  0.850430,   0.834787,   0.739654]
    Electron size [Ang]:            1.360079
      Cartesian components [Ang]: [  0.873093,   0.866377,   0.580441]
--------------------------------------------------------------------------------
  MP(2) calculation ...  CPU 0.11 s  wall 0.23 s
  Start ADC(2)-s ...  CPU 0.01 s  wall 0.00 s
  ADC(2) intermediates ...  CPU 0.02 s  wall 0.01 s
  Starting Davidson for singlet states of irrep A ... 
--------------------------------------------------------------------------------
   It NVec Conv  Avg. Norm  Max. Norm  Conv. states           Remark
--------------------------------------------------------------------------------
        10    0  1.327e-01  4.673e-01  0.4061 n n n n n n n n Guess.
    1   20    0  2.598e-02  1.523e-01  0.3178 n n n n n n n n 
    2   30    0  6.998e-03  4.469e-02  0.3128 n n n n n n n n 
    3   40    0  2.473e-03  1.915e-02  0.3124 n n n n n n n n 
    4   50    0  9.216e-04  7.949e-03  0.3123 n n n n n n n n 
    5   20    0  6.426e-04  5.956e-03  0.3123 n n n n n n n n Subspace collapsed.
    6   30    0  1.170e-03  1.164e-02  0.3123 n n n n n n n n 
    7   40    0  1.018e-03  1.015e-02  0.3123 n n n n n n n n 
    8   50    0  8.805e-04  8.792e-03  0.3123 n n n n n n n n 
    9   20    0  4.987e-04  4.977e-03  0.3123 n n n n n n n n Subspace collapsed.
   10   30    3  3.850e-04  3.841e-03  0.3123 n y y y n n n n 
   11   40    5  2.077e-04  2.072e-03  0.3123 n y y y y y n n 
   12   50    5  2.000e-04  1.999e-03  0.3123 n y y y y y n n 
   13   20    6  1.162e-04  1.161e-03  0.3123 y y y y y y n n Subspace collapsed.
   14   30    6  2.089e-04  2.089e-03  0.3123 y y y y y y n n 
   15   40    7  1.996e-04  1.996e-03  0.3123 y y y y y y n y 
   16   50    7  2.020e-04  2.020e-03  0.3123 y y y y y y n y 
   17   20    7  1.129e-04  1.129e-03  0.3123 y y y y y y n y Subspace collapsed.
   18   30    8  9.037e-05  9.037e-04  0.3123 y y y y y y n y 
   19   40    8  4.139e-05  4.139e-04  0.3123 y y y y y y n y 
   20   50    8  5.367e-05  5.367e-04  0.3123 y y y y y y n y 
   21   20    9  3.158e-05  3.158e-04  0.3123 y y y y y y y y Subspace collapsed.
   22   30    9  4.640e-05  4.640e-04  0.3123 y y y y y y y y 
   23   31    9  4.634e-05  4.634e-04  0.3123 y y y y y y y y 
   24   32    9  4.630e-05  4.630e-04  0.3123 y y y y y y y y 
   25   33    9  4.628e-05  4.628e-04  0.3123 y y y y y y y y 
   26   34    9  4.659e-05  4.659e-04  0.3123 y y y y y y y y 
   27   35    9  4.629e-05  4.629e-04  0.3123 y y y y y y y y 
   28   36    9  4.643e-05  4.643e-04  0.3123 y y y y y y y y 
   29   36    9  4.643e-05  4.643e-04  0.3123 y y y y y y y y 
   30   46    9  5.681e-05  5.681e-04  0.3123 y y y y y y y y 
   31   50    9  5.766e-05  5.766e-04  0.3123 y y y y y y y y 
   32   16    9  3.289e-05  3.289e-04  0.3123 y y y y y y y y Subspace collapsed.
   33   22    9  2.557e-05  2.557e-04  0.3123 y y y y y y y y 
   34   27    9  2.761e-05  2.761e-04  0.3123 y y y y y y y y 
   35   32    9  3.622e-05  3.622e-04  0.3123 y y y y y y y y 
   36   32    9  3.622e-05  3.622e-04  0.3123 y y y y y y y y 
   37   42    9  3.321e-05  3.321e-04  0.3123 y y y y y y y y 
   38   42    9  3.321e-05  3.321e-04  0.3123 y y y y y y y y 
   39   50    9  2.215e-05  2.215e-04  0.3123 y y y y y y y y 
   40   14    9  9.286e-06  9.286e-05  0.3123 y y y y y y y y Subspace collapsed.
   41   18    9  6.882e-06  6.882e-05  0.3123 y y y y y y y y 
   42   22    9  4.369e-06  4.369e-05  0.3123 y y y y y y y y 
   43   26    9  4.275e-06  4.275e-05  0.3123 y y y y y y y y 
   44   30    9  3.023e-06  3.023e-05  0.3123 y y y y y y y y 
   45   34    9  3.014e-06  3.014e-05  0.3123 y y y y y y y y 
   46   38    9  2.681e-06  2.681e-05  0.3123 y y y y y y y y 
   47   42    9  2.067e-06  2.067e-05  0.3123 y y y y y y y y 
   48   46    9  1.925e-06  1.925e-05  0.3123 y y y y y y y y 
   49   50    9  1.390e-06  1.390e-05  0.3123 y y y y y y y y 
   50   14    9  8.167e-07  8.167e-06  0.3123 y y y y y y y y Subspace collapsed.
   51   17    9  6.537e-07  6.537e-06  0.3123 y y y y y y y y 
   52   20    9  4.368e-07  4.368e-06  0.3123 y y y y y y y y 
   53   23    9  4.577e-07  4.577e-06  0.3123 y y y y y y y y 
   54   26    9  4.065e-07  4.065e-06  0.3123 y y y y y y y y 
   55   29    9  2.933e-07  2.933e-06  0.3123 y y y y y y y y 
   56   31    9  2.380e-07  2.380e-06  0.3123 y y y y y y y y 
   57   33    9  1.732e-07  1.732e-06  0.3123 y y y y y y y y 
   58   35    9  2.366e-07  2.366e-06  0.3123 y y y y y y y y 
   59   37    9  1.743e-07  1.743e-06  0.3123 y y y y y y y y 
   60   39    9  1.476e-07  1.476e-06  0.3123 y y y y y y y y 
   61   41   10  8.527e-08  8.527e-07  0.3123 y y y y y y y y Converged.
--------------------------------------------------------------------------------
  Davidson Summary: 
 ------------------------------------------------------------
  State  0: excitation energy =   0.3123 a.u.   (converged)
  State  1: excitation energy =   0.3314 a.u.   (converged)
  State  2: excitation energy =   0.3332 a.u.   (converged)
  State  3: excitation energy =   0.3610 a.u.   (converged)
  State  4: excitation energy =   0.3679 a.u.   (converged)
  State  5: excitation energy =   0.3809 a.u.   (converged)
  State  6: excitation energy =   0.4296 a.u.   (converged)
  State  7: excitation energy =   0.4418 a.u.   (converged)
  State  8: excitation energy =   0.4510 a.u.   (converged)
  State  9: excitation energy =   0.4722 a.u.   (converged)
 ------------------------------------------------------------

  Singlet states of irrep A ...  CPU 143.27 s  wall 37.87 s
  TDMs ...  CPU 0.58 s  wall 0.23 s
  SDMs ...  CPU 1.23 s  wall 0.43 s
  Starting TPA DIIS iterations ... 
------------------------------------ 
   It     Res. Norm  Remark
------------------------------------
                       Guess.
    1     4.646e+00  
    2     6.292e+00  
    3     1.125e+00  
    4     2.850e-01  
    5     7.480e-02  
    6     2.980e-02  
    7     8.862e-03  
    8     1.493e-03  
    9     5.359e-04  
   10     9.344e-05  
   11     2.859e-05  
   12     4.593e-06  
   13     1.412e-06  
   14     4.370e-07  Converged.
   ... Converged in 14 steps (norm: 4.36957e-07)
------------------------------------
  Starting TPA DIIS iterations ... 
------------------------------------ 
   It     Res. Norm  Remark
------------------------------------
                       Guess.
    1     4.654e+00  
    2     6.266e+00  
    3     1.079e+00  
    4     2.666e-01  
    5     7.338e-02  
    6     2.720e-02  
    7     8.455e-03  
    8     1.303e-03  
    9     4.859e-04  
   10     8.470e-05  
   11     2.479e-05  
   12     4.195e-06  
   13     1.257e-06  
   14     4.230e-07  Converged.
   ... Converged in 14 steps (norm: 4.2297e-07)
------------------------------------
  Starting TPA DIIS iterations ... 
------------------------------------ 
   It     Res. Norm  Remark
------------------------------------
                       Guess.
    1     6.872e-01  
    2     4.865e-01  
    3     1.722e-01  
    4     5.594e-02  
    5     1.863e-02  
    6     6.874e-03  
    7     1.169e-03  
    8     4.038e-04  
    9     1.908e-04  
   10     4.169e-05  
   11     2.599e-05  
   12     9.065e-06  
   13     4.401e-06  
   14     1.812e-06  
   15     5.348e-07  Converged.
   ... Converged in 15 steps (norm: 5.34803e-07)
------------------------------------
  Starting TPA DIIS iterations ... 
------------------------------------ 
   It     Res. Norm  Remark
------------------------------------
                       Guess.
    1     5.182e+00  
    2     7.280e+00  
    3     1.273e+00  
    4     3.414e-01  
    5     9.139e-02  
    6     3.686e-02  
    7     1.091e-02  
    8     1.832e-03  
    9     6.652e-04  
   10     1.170e-04  
   11     3.649e-05  
   12     5.918e-06  
   13     1.863e-06  
   14     5.699e-07  Converged.
   ... Converged in 14 steps (norm: 5.69921e-07)
------------------------------------
  Starting TPA DIIS iterations ... 
------------------------------------ 
   It     Res. Norm  Remark
------------------------------------
                       Guess.
    1     5.191e+00  
    2     7.250e+00  
    3     1.221e+00  
    4     3.188e-01  
    5     8.966e-02  
    6     3.352e-02  
    7     1.039e-02  
    8     1.593e-03  
    9     6.035e-04  
   10     1.060e-04  
   11     3.165e-05  
   12     5.443e-06  
   13     1.666e-06  
   14     5.592e-07  Converged.
   ... Converged in 14 steps (norm: 5.59161e-07)
------------------------------------
  Starting TPA DIIS iterations ... 
------------------------------------ 
   It     Res. Norm  Remark
------------------------------------
                       Guess.
    1     7.072e-01  
    2     5.161e-01  
    3     1.892e-01  
    4     6.878e-02  
    5     2.118e-02  
    6     7.921e-03  
    7     1.435e-03  
    8     4.933e-04  
    9     2.405e-04  
   10     5.939e-05  
   11     3.435e-05  
   12     1.222e-05  
   13     6.441e-06  
   14     2.804e-06  
   15     7.625e-07  Converged.
   ... Converged in 15 steps (norm: 7.62538e-07)
------------------------------------
  Starting TPA DIIS iterations ... 
------------------------------------ 
   It     Res. Norm  Remark
------------------------------------
                       Guess.
    1     5.236e+00  
    2     7.380e+00  
    3     1.287e+00  
    4     3.472e-01  
    5     9.310e-02  
    6     3.759e-02  
    7     1.112e-02  
    8     1.867e-03  
    9     6.786e-04  
   10     1.194e-04  
   11     3.732e-05  
   12     6.057e-06  
   13     1.911e-06  
   14     5.840e-07  Converged.
   ... Converged in 14 steps (norm: 5.84009e-07)
------------------------------------
  Starting TPA DIIS iterations ... 
------------------------------------ 
   It     Res. Norm  Remark
------------------------------------
                       Guess.
    1     5.244e+00  
    2     7.349e+00  
    3     1.235e+00  
    4     3.242e-01  
    5     9.133e-02  
    6     3.417e-02  
    7     1.059e-02  
    8     1.623e-03  
    9     6.156e-04  
   10     1.082e-04  
   11     3.237e-05  
   12     5.575e-06  
   13     1.710e-06  
   14     5.737e-07  Converged.
   ... Converged in 14 steps (norm: 5.73712e-07)
------------------------------------
  Starting TPA DIIS iterations ... 
------------------------------------ 
   It     Res. Norm  Remark
------------------------------------
                       Guess.
    1     7.090e-01  
    2     5.190e-01  
    3     1.908e-01  
    4     7.013e-02  
    5     2.143e-02  
    6     8.028e-03  
    7     1.463e-03  
    8     5.023e-04  
    9     2.457e-04  
   10     6.134e-05  
   11     3.524e-05  
   12     1.257e-05  
   13     6.676e-06  
   14     2.918e-06  
   15     7.853e-07  Converged.
   ... Converged in 15 steps (norm: 7.85273e-07)
------------------------------------
  Starting TPA DIIS iterations ... 
------------------------------------ 
   It     Res. Norm  Remark
------------------------------------
                       Guess.
    1     6.238e+00  
    2     9.314e+00  
    3     1.561e+00  
    4     4.627e-01  
    5     1.271e-01  
    6     5.230e-02  
    7     1.530e-02  
    8     2.556e-03  
    9     9.468e-04  
   10     1.684e-04  
   11     5.424e-05  
   12     8.886e-06  
   13     2.947e-06  
   14     8.809e-07  Converged.
   ... Converged in 14 steps (norm: 8.80902e-07)
------------------------------------
  Starting TPA DIIS iterations ... 
------------------------------------ 
   It     Res. Norm  Remark
------------------------------------
                       Guess.
    1     6.246e+00  
    2     9.274e+00  
    3     1.498e+00  
    4     4.305e-01  
    5     1.247e-01  
    6     4.727e-02  
    7     1.454e-02  
    8     2.212e-03  
    9     8.602e-04  
   10     1.524e-04  
   11     4.726e-05  
   12     8.307e-06  
   13     2.664e-06  
   14     8.832e-07  Converged.
   ... Converged in 14 steps (norm: 8.83236e-07)
------------------------------------
  Starting TPA DIIS iterations ... 
------------------------------------ 
   It     Res. Norm  Remark
------------------------------------
                       Guess.
    1     7.404e-01  
    2     5.690e-01  
    3     2.209e-01  
    4     9.829e-02  
    5     2.595e-02  
    6     1.016e-02  
    7     2.031e-03  
    8     6.680e-04  
    9     3.470e-04  
   10     1.036e-04  
   11     5.440e-05  
   12     2.048e-05  
   13     1.243e-05  
   14     5.545e-06  
   15     1.231e-06  
   16     4.320e-07  Converged.
   ... Converged in 16 steps (norm: 4.32047e-07)
------------------------------------
  Starting TPA DIIS iterations ... 
------------------------------------ 
   It     Res. Norm  Remark
------------------------------------
                       Guess.
    1     6.535e+00  
    2     9.906e+00  
    3     1.641e+00  
    4     4.991e-01  
    5     1.379e-01  
    6     5.698e-02  
    7     1.662e-02  
    8     2.773e-03  
    9     1.032e-03  
   10     1.839e-04  
   11     5.970e-05  
   12     9.793e-06  
   13     3.299e-06  
   14     9.815e-07  Converged.
   ... Converged in 14 steps (norm: 9.81544e-07)
------------------------------------
  Starting TPA DIIS iterations ... 
------------------------------------ 
   It     Res. Norm  Remark
------------------------------------
                       Guess.
    1     6.542e+00  
    2     9.862e+00  
    3     1.576e+00  
    4     4.639e-01  
    5     1.352e-01  
    6     5.142e-02  
    7     1.578e-02  
    8     2.396e-03  
    9     9.381e-04  
   10     1.665e-04  
   11     5.211e-05  
   12     9.203e-06  
   13     2.991e-06  
   14     9.885e-07  Converged.
   ... Converged in 14 steps (norm: 9.88526e-07)
------------------------------------
  Starting TPA DIIS iterations ... 
------------------------------------ 
   It     Res. Norm  Remark
------------------------------------
                       Guess.
    1     7.486e-01  
    2     5.828e-01  
    3     2.295e-01  
    4     1.076e-01  
    5     2.728e-02  
    6     1.082e-02  
    7     2.214e-03  
    8     7.148e-04  
    9     3.784e-04  
   10     1.179e-04  
   11     6.092e-05  
   12     2.332e-05  
   13     1.473e-05  
   14     6.477e-06  
   15     1.384e-06  
   16     4.944e-07  Converged.
   ... Converged in 16 steps (norm: 4.94407e-07)
------------------------------------
  Starting TPA DIIS iterations ... 
------------------------------------ 
   It     Res. Norm  Remark
------------------------------------
                       Guess.
    1     7.163e+00  
    2     1.119e+01  
    3     1.810e+00  
    4     5.790e-01  
    5     1.614e-01  
    6     6.733e-02  
    7     1.951e-02  
    8     3.246e-03  
    9     1.220e-03  
   10     2.181e-04  
   11     7.180e-05  
   12     1.180e-05  
   13     4.110e-06  
   14     1.217e-06  
   15     6.916e-07  Converged.
   ... Converged in 15 steps (norm: 6.91586e-07)
------------------------------------
  Starting TPA DIIS iterations ... 
------------------------------------ 
   It     Res. Norm  Remark
------------------------------------
                       Guess.
    1     7.169e+00  
    2     1.114e+01  
    3     1.738e+00  
    4     5.371e-01  
    5     1.582e-01  
    6     6.059e-02  
    7     1.850e-02  
    8     2.799e-03  
    9     1.110e-03  
   10     1.975e-04  
   11     6.300e-05  
   12     1.122e-05  
   13     3.751e-06  
   14     1.233e-06  
   15     5.471e-07  Converged.
   ... Converged in 15 steps (norm: 5.47083e-07)
------------------------------------
  Starting TPA DIIS iterations ... 
------------------------------------ 
   It     Res. Norm  Remark
------------------------------------
                       Guess.
    1     7.647e-01  
    2     6.108e-01  
    3     2.472e-01  
    4     1.284e-01  
    5     3.015e-02  
    6     1.229e-02  
    7     2.623e-03  
    8     8.091e-04  
    9     4.468e-04  
   10     1.507e-04  
   11     7.598e-05  
   12     3.011e-05  
   13     2.068e-05  
   14     8.646e-06  
   15     1.771e-06  
   16     6.449e-07  Converged.
   ... Converged in 16 steps (norm: 6.44881e-07)
------------------------------------
  Starting TPA DIIS iterations ... 
------------------------------------ 
   It     Res. Norm  Remark
------------------------------------
                       Guess.
    1     1.064e+01  
    2     1.885e+01  
    3     2.720e+00  
    4     1.076e+00  
    5     3.096e-01  
    6     1.340e-01  
    7     3.762e-02  
    8     6.186e-03  
    9     2.418e-03  
   10     4.345e-04  
   11     1.475e-04  
   12     2.436e-05  
   13     1.024e-05  
   14     3.312e-06  
   15     2.268e-06  
   16     9.524e-07  Converged.
   ... Converged in 16 steps (norm: 9.52358e-07)
------------------------------------
  Starting TPA DIIS iterations ... 
------------------------------------ 
   It     Res. Norm  Remark
------------------------------------
                       Guess.
    1     1.064e+01  
    2     1.875e+01  
    3     2.616e+00  
    4     9.897e-01  
    5     3.029e-01  
    6     1.193e-01  
    7     3.553e-02  
    8     5.293e-03  
    9     2.221e-03  
   10     3.951e-04  
   11     1.349e-04  
   12     2.487e-05  
   13     9.557e-06  
   14     3.199e-06  
   15     1.549e-06  
   16     4.671e-07  Converged.
   ... Converged in 16 steps (norm: 4.67121e-07)
------------------------------------
  Starting TPA DIIS iterations ... 
------------------------------------ 
   It     Res. Norm  Remark
------------------------------------
                       Guess.
    1     8.317e-01  
    2     7.428e-01  
    3     3.364e-01  
    4     2.652e-01  
    5     4.750e-02  
    6     2.089e-02  
    7     5.241e-03  
    8     1.294e-03  
    9     8.540e-04  
   10     3.732e-04  
   11     1.876e-04  
   12     8.542e-05  
   13     7.707e-05  
   14     2.474e-05  
   15     5.931e-06  
   16     2.106e-06  
   17     6.948e-07  Converged.
   ... Converged in 17 steps (norm: 6.94837e-07)
------------------------------------
  Starting TPA DIIS iterations ... 
------------------------------------ 
   It     Res. Norm  Remark
------------------------------------
                       Guess.
    1     1.193e+01  
    2     2.193e+01  
    3     3.048e+00  
    4     1.278e+00  
    5     3.710e-01  
    6     1.622e-01  
    7     4.510e-02  
    8     7.392e-03  
    9     2.920e-03  
   10     5.242e-04  
   11     1.779e-04  
   12     2.955e-05  
   13     1.330e-05  
   14     4.553e-06  
   15     3.157e-06  
   16     1.391e-06  
   17     8.242e-07  Converged.
   ... Converged in 17 steps (norm: 8.24188e-07)
------------------------------------
  Starting TPA DIIS iterations ... 
------------------------------------ 
   It     Res. Norm  Remark
------------------------------------
                       Guess.
    1     1.193e+01  
    2     2.181e+01  
    3     2.932e+00  
    4     1.173e+00  
    5     3.628e-01  
    6     1.439e-01  
    7     4.254e-02  
    8     6.315e-03  
    9     2.693e-03  
   10     4.776e-04  
   11     1.655e-04  
   12     3.090e-05  
   13     1.236e-05  
   14     4.227e-06  
   15     2.068e-06  
   16     6.387e-07  Converged.
   ... Converged in 16 steps (norm: 6.38729e-07)
------------------------------------
  Starting TPA DIIS iterations ... 
------------------------------------ 
   It     Res. Norm  Remark
------------------------------------
                       Guess.
    1     8.506e-01  
    2     7.849e-01  
    3     3.665e-01  
    4     3.195e-01  
    5     5.446e-02  
    6     2.400e-02  
    7     6.300e-03  
    8     1.507e-03  
    9     1.015e-03  
   10     4.665e-04  
   11     2.394e-04  
   12     1.112e-04  
   13     1.034e-04  
   14     3.211e-05  
   15     8.379e-06  
   16     3.025e-06  
   17     1.025e-06  
   18     3.835e-07  Converged.
   ... Converged in 18 steps (norm: 3.83521e-07)
------------------------------------
  Starting TPA DIIS iterations ... 
------------------------------------ 
   It     Res. Norm  Remark
------------------------------------
                       Guess.
    1     1.308e+01  
    2     2.475e+01  
    3     3.334e+00  
    4     1.463e+00  
    5     4.278e-01  
    6     1.885e-01  
    7     5.201e-02  
    8     8.504e-03  
    9     3.388e-03  
   10     6.070e-04  
   11     2.057e-04  
   12     3.441e-05  
   13     1.638e-05  
   14     5.888e-06  
   15     4.107e-06  
   16     1.857e-06  
   17     1.037e-06  
   18     4.697e-07  Converged.
   ... Converged in 18 steps (norm: 4.69715e-07)
------------------------------------
  Starting TPA DIIS iterations ... 
------------------------------------ 
   It     Res. Norm  Remark
------------------------------------
                       Guess.
    1     1.307e+01  
    2     2.461e+01  
    3     3.208e+00  
    4     1.341e+00  
    5     4.181e-01  
    6     1.670e-01  
    7     4.903e-02  
    8     7.259e-03  
    9     3.135e-03  
   10     5.542e-04  
   11     1.941e-04  
   12     3.669e-05  
   13     1.511e-05  
   14     5.291e-06  
   15     2.616e-06  
   16     8.153e-07  Converged.
   ... Converged in 16 steps (norm: 8.15296e-07)
------------------------------------
  Starting TPA DIIS iterations ... 
------------------------------------ 
   It     Res. Norm  Remark
------------------------------------
                       Guess.
    1     8.655e-01  
    2     8.201e-01  
    3     3.922e-01  
    4     3.668e-01  
    5     6.078e-02  
    6     2.662e-02  
    7     7.256e-03  
    8     1.721e-03  
    9     1.161e-03  
   10     5.518e-04  
   11     2.893e-04  
   12     1.354e-04  
   13     1.272e-04  
   14     3.915e-05  
   15     1.094e-05  
   16     4.057e-06  
   17     1.398e-06  
   18     5.207e-07  Converged.
   ... Converged in 18 steps (norm: 5.2074e-07)
------------------------------------
  Starting TPA DIIS iterations ... 
------------------------------------ 
   It     Res. Norm  Remark
------------------------------------
                       Guess.
    1     1.650e+01  
    2     3.362e+01  
    3     4.164e+00  
    4     2.035e+00  
    5     6.082e-01  
    6     2.733e-01  
    7     7.393e-02  
    8     1.203e-02  
    9     4.890e-03  
   10     8.689e-04  
   11     2.940e-04  
   12     5.055e-05  
   13     2.739e-05  
   14     1.106e-05  
   15     7.868e-06  
   16     3.687e-06  
   17     1.789e-06  
   18     8.714e-07  Converged.
   ... Converged in 18 steps (norm: 8.7136e-07)
------------------------------------
  Starting TPA DIIS iterations ... 
------------------------------------ 
   It     Res. Norm  Remark
------------------------------------
                       Guess.
    1     1.647e+01  
    2     3.342e+01  
    3     4.009e+00  
    4     1.860e+00  
    5     5.937e-01  
    6     2.411e-01  
    7     6.961e-02  
    8     1.025e-02  
    9     4.568e-03  
   10     7.985e-04  
   11     2.873e-04  
   12     5.634e-05  
   13     2.473e-05  
   14     9.425e-06  
   15     4.888e-06  
   16     1.499e-06  
   17     8.417e-07  Converged.
   ... Converged in 17 steps (norm: 8.41726e-07)
------------------------------------
  Starting TPA DIIS iterations ... 
------------------------------------ 
   It     Res. Norm  Remark
------------------------------------
                       Guess.
    1     9.027e-01  
    2     9.155e-01  
    3     4.634e-01  
    4     4.917e-01  
    5     8.005e-02  
    6     3.329e-02  
    7     1.012e-02  
    8     2.488e-03  
    9     1.613e-03  
   10     8.118e-04  
   11     4.559e-04  
   12     2.125e-04  
   13     1.920e-04  
   14     6.273e-05  
   15     2.058e-05  
   16     8.747e-06  
   17     2.306e-06  
   18     1.028e-06  
   19     3.383e-07  Converged.
   ... Converged in 19 steps (norm: 3.38256e-07)
------------------------------------
  Two-photon absorbption ...  CPU 106.74 s  wall 19.81 s
  Transition density matrix of state singlet_A_1 printed to ASCII file 'State_singlet_A_1_Transition.txt'
  Transition density matrix of state singlet_A_2 printed to ASCII file 'State_singlet_A_2_Transition.txt'
  Transition density matrix of state singlet_A_3 printed to ASCII file 'State_singlet_A_3_Transition.txt'
  Transition density matrix of state singlet_A_4 printed to ASCII file 'State_singlet_A_4_Transition.txt'
  Transition density matrix of state singlet_A_5 printed to ASCII file 'State_singlet_A_5_Transition.txt'
  Transition density matrix of state singlet_A_6 printed to ASCII file 'State_singlet_A_6_Transition.txt'
  Transition density matrix of state singlet_A_7 printed to ASCII file 'State_singlet_A_7_Transition.txt'
  Transition density matrix of state singlet_A_8 printed to ASCII file 'State_singlet_A_8_Transition.txt'
  Transition density matrix of state singlet_A_9 printed to ASCII file 'State_singlet_A_9_Transition.txt'
  Transition density matrix of state singlet_A_10 printed to ASCII file 'State_singlet_A_10_Transition.txt'
  Transition properties ...  CPU 0.14 s  wall 1.55 s
  Difference density matrix of state singlet_A_1 printed to ASCII file 'State_singlet_A_1_Difference.txt'
  Total density matrix of state singlet_A_1 printed to ASCII file 'State_singlet_A_1_Total.txt'
  Difference density matrix of state singlet_A_2 printed to ASCII file 'State_singlet_A_2_Difference.txt'
  Total density matrix of state singlet_A_2 printed to ASCII file 'State_singlet_A_2_Total.txt'
  Difference density matrix of state singlet_A_3 printed to ASCII file 'State_singlet_A_3_Difference.txt'
  Total density matrix of state singlet_A_3 printed to ASCII file 'State_singlet_A_3_Total.txt'
  Difference density matrix of state singlet_A_4 printed to ASCII file 'State_singlet_A_4_Difference.txt'
  Total density matrix of state singlet_A_4 printed to ASCII file 'State_singlet_A_4_Total.txt'
  Difference density matrix of state singlet_A_5 printed to ASCII file 'State_singlet_A_5_Difference.txt'
  Total density matrix of state singlet_A_5 printed to ASCII file 'State_singlet_A_5_Total.txt'
  Difference density matrix of state singlet_A_6 printed to ASCII file 'State_singlet_A_6_Difference.txt'
  Total density matrix of state singlet_A_6 printed to ASCII file 'State_singlet_A_6_Total.txt'
  Difference density matrix of state singlet_A_7 printed to ASCII file 'State_singlet_A_7_Difference.txt'
  Total density matrix of state singlet_A_7 printed to ASCII file 'State_singlet_A_7_Total.txt'
  Difference density matrix of state singlet_A_8 printed to ASCII file 'State_singlet_A_8_Difference.txt'
  Total density matrix of state singlet_A_8 printed to ASCII file 'State_singlet_A_8_Total.txt'
  Difference density matrix of state singlet_A_9 printed to ASCII file 'State_singlet_A_9_Difference.txt'
  Total density matrix of state singlet_A_9 printed to ASCII file 'State_singlet_A_9_Total.txt'
  Difference density matrix of state singlet_A_10 printed to ASCII file 'State_singlet_A_10_Difference.txt'
  Total density matrix of state singlet_A_10 printed to ASCII file 'State_singlet_A_10_Total.txt'
  Properties ...  CPU 0.26 s  wall 1.41 s
  ISR TDMS ...  CPU 7.82 s  wall 2.65 s
  ISR transition properties ...  CPU 0.14 s  wall 0.06 s
  Sum-over-states TPA ...  CPU 0.00 s  wall 0.00 s

--------------------------------------------------------------------------------
                   State-averaged natural transition orbitals
--------------------------------------------------------------------------------
--------------------------------------------------------------------------------
  SA-NTO decomposition ...  CPU 0.01 s  wall 0.03 s

--------------------------------------------------------------------------------
                             Excited State Summary
--------------------------------------------------------------------------------
--------------------------------------------------------------------------------

  Excited state 1 (singlet, A)                                     [converged]
  ----------------------------------------------------------------------------
  Term symbol:  2 (1) A                                     R^2 =  3.53229e-14

  Total energy:                                            -78.0052470084 a.u.
  Excitation energy:                                               8.499050 eV

  Osc. strength:                                                      0.432478
  Trans. dip. moment [a.u.]:           [   1.037143,   -1.000641,   -0.006674]
  <i|r^2|0> [a.u.]:                    [   6.137170,   -0.212771,   -0.001903]
  Two-photon absorption cross-section (SoS) [a.u.]:                   0.026222
  Two-photon absorption matrix (SoS) [a.u.]:
                                       |    0.023048   -0.024642   -0.001805 |
                                       |   -0.024642   -0.063739   -0.006798 |
                                       |   -0.001805   -0.006798    0.021578 |
  Two-photon absorption cross-section [a.u.]:                         0.023742
  Two-photon absorption matrix [a.u.]:
                                       |    0.051830   -0.007371   -0.000352 |
                                       |   -0.007371   -0.032453   -0.001675 |
                                       |   -0.000352   -0.001675    0.029654 |

  Dip. moment [a.u.]:                  [   0.002063,    0.001248,    0.002492]
  Total dipole [Debye]:                                               0.008814
  <r^2> [a.u.]:                        [ 176.157393,   36.279036,   11.865692]
  Total <r^2> [a.u.]:                                               224.302121

  V1^2 = 0.9715, V2^2 = 0.0285

  Important amplitudes:
      occ i     occ j     vir a      vir b          v   
    -----------------------------------------------------
     8 (A) A              9 (A) A                -0.6808
     6 (A) A             14 (A) A                -0.0678
     4 (A) A             10 (A) A                -0.0580
     7 (A) A             16 (A) A                 0.0543
     5 (A) A             13 (A) A                 0.0492
     6 (A) A             23 (A) A                 0.0467
     8 (A) A             20 (A) A                -0.0360
     6 (A) A             19 (A) A                -0.0354
     3 (A) A             12 (A) A                 0.0283
     7 (A) A             11 (A) A                -0.0235
     5 (A) A             22 (A) A                -0.0194
     8 (A) A   8 (A) B   17 (A) A   20 (A) B      0.0186
     4 (A) A             24 (A) A                -0.0182
     3 (A) A             26 (A) A                 0.0181
     6 (A) A             26 (A) A                 0.0155
     7 (A) A             21 (A) A                -0.0149
     3 (A) A             14 (A) A                -0.0142
     3 (A) A   4 (A) B    9 (A) A    9 (A) B      0.0130
     8 (A) A   8 (A) B    9 (A) A   28 (A) B      0.0130
     3 (A) A             19 (A) A                -0.0125
     6 (A) A             22 (A) A                -0.0125
     8 (A) A   8 (A) B   18 (A) A   19 (A) B      0.0113
     8 (A) A   8 (A) B    9 (A) A   27 (A) B     -0.0108
     7 (A) A             32 (A) A                -0.0093
     7 (A) A             36 (A) A                 0.0083
     6 (A) A             12 (A) A                -0.0080
     8 (A) A   8 (A) B   25 (A) A   29 (A) B     -0.0076
     3 (A) A             23 (A) A                 0.0076
     7 (A) A             14 (A) A                 0.0071
     6 (A) A             16 (A) A                 0.0070
     5 (A) A             23 (A) A                -0.0069
     6 (A) A             35 (A) A                 0.0068
     6 (A) A             40 (A) A                 0.0067
     7 (A) A             23 (A) A                -0.0060
     5 (A) A   7 (A) B    9 (A) A    9 (A) B      0.0059
     5 (A) A   8 (A) B   11 (A) A   20 (A) B      0.0059
     7 (A) A   8 (A) B   13 (A) A   20 (A) B     -0.0058
     6 (A) A   8 (A) A    9 (A) A   18 (A) A      0.0057
     5 (A) A   8 (A) B   16 (A) A    9 (A) B     -0.0057
     3 (A) A   5 (A) B    9 (A) A   25 (A) B      0.0057
    -----------------------------------------------------

  Density matrix analysis:
  ------------------------
  NOs
    Occupation of frontier NOs:
       0.9489   1.0221
    Number of electrons: 16.000000
    Number of unpaired electrons: n_u =  2.31449, n_u,nl =  2.03365
    NO participation ratio (PR_NO):  2.869066
  
  
  Mulliken Population Analysis
  Atom      Charge (e)              h+              e-           Del q
  --------------------------------------------------------------------
   1 H        0.057987        0.018943       -0.012577        0.006366
   2 C       -0.127040        0.488632       -0.502703       -0.014071
   3 H        0.060590        0.019382       -0.012291        0.007091
   4 C       -0.101625        0.489085       -0.501317       -0.012232
   5 H        0.049738        0.019086       -0.012563        0.006523
   6 H        0.060350        0.019056       -0.012733        0.006323
  --------------------------------------------------------------------
  Sum:        0.000000        1.054184       -1.054184        0.000000
  
  Multipole moment analysis of the density matrix
    Molecular charge:                      0.000000
    Number of electrons:                   16.000000
      Center of electronic charge [Ang]: [ -1.560644,  -0.050644,   0.001896]
    Total nuclear charge:                  16.000000
      Center of nuclear charge [Ang]:    [ -1.560576,  -0.050602,   0.001978]
    Dipole moment [D]:                     0.008814
      Cartesian components [D]:          [  0.005245,   0.003173,   0.006333]
    RMS size of the density [Ang]:         1.219634
      Cartesian components [Ang]:        [  0.804647,   0.795225,   0.455705]
  
  Exciton analysis of the difference density matrix
    <r_h> [Ang]:                  [ -1.560502,  -0.047313,   0.001235]
    <r_e> [Ang]:                  [ -1.559874,  -0.047089,   0.000999]
    |<r_e - r_h>| [Ang]:            0.000707
    Hole size [Ang]:                1.289090
      Cartesian components [Ang]: [  0.725516,   0.719449,   0.785985]
    Electron size [Ang]:            1.462147
      Cartesian components [Ang]: [  0.845515,   0.840701,   0.846285]

  Transition density matrix analysis:
  -----------------------------------
  
  CT numbers (Mulliken)
    omega =     0.9535
    <Phe> =    -0.1677
  
  Exciton analysis of the transition density matrix
    Trans. dipole moment [D]:             1.831554
      Cartesian components [D]:         [  1.318078,  -1.271688,  -0.008482]
    <r_h> [Ang]:                        [ -1.561073,  -0.045703,   0.001469]
    <r_e> [Ang]:                        [ -1.559853,  -0.047379,   0.000852]
    |<r_e - r_h>| [Ang]:                  0.002163
    Hole size [Ang]:                      1.224607
      Cartesian components [Ang]:       [  0.652676,   0.648897,   0.807843]
    Electron size [Ang]:                  1.481512
      Cartesian components [Ang]:       [  0.853833,   0.848385,   0.863765]
    RMS electron-hole separation [Ang]:   1.944566
      Cartesian components [Ang]:       [  1.101502,   1.096205,   1.168915]
    Covariance(r_h, r_e) [Ang^2]:        -0.043395
    Correlation coefficient:             -0.023919
    Center-of-mass size [Ang]:            0.949704
      Cartesian components [Ang]:       [  0.523624,   0.519612,   0.598130]

  Decomposition into state-averaged NTOs
    H- 0 -> L+ 0:  0.6693 ( 89.6%)
    H- 2 -> L+ 5:  0.0886 (  1.6%)
    H- 5 -> L+ 6:  0.0732 (  1.1%)
                   omega =  95.4%
  ----------------------------------------------------------------------------


  Excited state 2 (singlet, A)                                     [converged]
  ----------------------------------------------------------------------------
  Term symbol:  3 (1) A                                     R^2 =  4.49331e-14

  Total energy:                                            -77.9861460164 a.u.
  Excitation energy:                                               9.018814 eV

  Osc. strength:                                                      0.011220
  Trans. dip. moment [a.u.]:           [  -0.008656,   -0.016447,    0.224571]
  <i|r^2|0> [a.u.]:                    [  -0.114373,   -0.050351,    0.109787]
  Two-photon absorption cross-section (SoS) [a.u.]:                   5.568053
  Two-photon absorption matrix (SoS) [a.u.]:
                                       |   -0.085262   -0.065080    0.638387 |
                                       |   -0.065080   -0.052400    0.522227 |
                                       |    0.638387    0.522227    0.112687 |
  Two-photon absorption cross-section [a.u.]:                         0.211548
  Two-photon absorption matrix [a.u.]:
                                       |   -0.020904   -0.000330   -0.104370 |
                                       |   -0.000330    0.003430    0.123422 |
                                       |   -0.104370    0.123422   -0.001646 |

  Dip. moment [a.u.]:                  [   0.389428,    0.328409,    0.039264]
  Total dipole [Debye]:                                               1.298651
  <r^2> [a.u.]:                        [ 179.315484,   37.797264,   12.245976]
  Total <r^2> [a.u.]:                                               229.358724

  V1^2 = 0.9559, V2^2 = 0.0441

  Important amplitudes:
      occ i     occ j     vir a      vir b          v   
    -----------------------------------------------------
     7 (A) A              9 (A) A                 0.5050
     8 (A) A             10 (A) A                -0.4469
     8 (A) A             11 (A) A                 0.1287
     7 (A) A             20 (A) A                 0.0573
     8 (A) A             24 (A) A                -0.0312
     8 (A) A             16 (A) A                 0.0251
     5 (A) A   8 (A) B    9 (A) A    9 (A) B     -0.0244
     8 (A) A             18 (A) A                 0.0203
     8 (A) A             21 (A) A                 0.0187
     6 (A) A              9 (A) A                -0.0168
     8 (A) A   8 (A) B    9 (A) A   12 (A) B      0.0143
     4 (A) A              9 (A) A                -0.0125
     8 (A) A             15 (A) A                 0.0117
     8 (A) A   8 (A) B   10 (A) A   17 (A) B     -0.0108
     5 (A) A   8 (A) B   11 (A) A   10 (A) B     -0.0102
     4 (A) A   7 (A) B    9 (A) A   19 (A) B     -0.0100
     5 (A) A   7 (A) B    9 (A) A   16 (A) B     -0.0099
     7 (A) A   8 (A) B   13 (A) A   10 (A) B      0.0089
     5 (A) A             28 (A) A                -0.0083
     7 (A) A   8 (A) B   20 (A) A   17 (A) B     -0.0079
     5 (A) A   8 (A) B    9 (A) A   20 (A) B     -0.0072
     5 (A) A   6 (A) A    9 (A) A   14 (A) A      0.0071
     4 (A) A   8 (A) B   12 (A) A   10 (A) B      0.0070
     5 (A) A             27 (A) A                 0.0069
     5 (A) A   6 (A) B    9 (A) A   19 (A) B      0.0068
     7 (A) A   8 (A) B   22 (A) A   10 (A) B     -0.0068
     5 (A) A   6 (A) A    9 (A) A   23 (A) A     -0.0067
     6 (A) A   8 (A) A   10 (A) A   15 (A) A     -0.0066
     4 (A) A   6 (A) B    9 (A) A   16 (A) B      0.0066
     4 (A) A   8 (A) A   10 (A) A   12 (A) A     -0.0066
     6 (A) A   8 (A) B   15 (A) A   10 (A) B      0.0066
     4 (A) A   5 (A) A    9 (A) A   10 (A) A     -0.0064
     7 (A) A   8 (A) A   10 (A) A   22 (A) A      0.0062
     7 (A) A   8 (A) A   10 (A) A   13 (A) A     -0.0061
     3 (A) A   7 (A) B    9 (A) A   18 (A) B      0.0060
     5 (A) A   8 (A) B   21 (A) A   10 (A) B     -0.0059
     6 (A) A   8 (A) A   10 (A) A   18 (A) A      0.0059
     5 (A) A   7 (A) A    9 (A) A   16 (A) A     -0.0059
     3 (A) A              9 (A) A                -0.0059
     4 (A) A   8 (A) B    9 (A) A   25 (A) B     -0.0058
    -----------------------------------------------------

  Density matrix analysis:
  ------------------------
  NOs
    Occupation of frontier NOs:
       0.5567   1.4449
    Number of electrons: 16.000000
    Number of unpaired electrons: n_u =  2.35068, n_u,nl =  2.35995
    NO participation ratio (PR_NO):  5.141158
  
  
  Mulliken Population Analysis
  Atom      Charge (e)              h+              e-           Del q
  --------------------------------------------------------------------
   1 H        0.099423        0.098608       -0.050805        0.047803
   2 C       -0.044907        0.348064       -0.280002        0.068062
   3 H       -0.051525        0.085275       -0.190298       -0.105023
   4 C       -0.015920        0.344987       -0.271515        0.073473
   5 H        0.054831        0.065501       -0.053885        0.011616
   6 H       -0.041902        0.108240       -0.204169       -0.095930
  --------------------------------------------------------------------
  Sum:        0.000000        1.050674       -1.050674        0.000000
  
  Multipole moment analysis of the density matrix
    Molecular charge:                      0.000000
    Number of electrons:                   16.000000
      Center of electronic charge [Ang]: [ -1.573456,  -0.061464,   0.000680]
    Total nuclear charge:                  16.000000
      Center of nuclear charge [Ang]:    [ -1.560576,  -0.050602,   0.001978]
    Dipole moment [D]:                     1.298651
      Cartesian components [D]:          [  0.989826,   0.834733,   0.099798]
    RMS size of the density [Ang]:         1.238808
      Cartesian components [Ang]:        [  0.813988,   0.811013,   0.462954]
  
  Exciton analysis of the difference density matrix
    <r_h> [Ang]:                  [ -1.584039,  -0.094805,  -0.001955]
    <r_e> [Ang]:                  [ -1.778508,  -0.259355,  -0.020713]
    |<r_e - r_h>| [Ang]:            0.255434
    Hole size [Ang]:                1.471050
      Cartesian components [Ang]: [  0.979553,   0.879681,   0.656218]
    Electron size [Ang]:            1.809640
      Cartesian components [Ang]: [  1.155208,   1.144546,   0.793918]

  Transition density matrix analysis:
  -----------------------------------
  
  CT numbers (Mulliken)
    omega =     0.9222
    <Phe> =    -0.0112
  
  Exciton analysis of the transition density matrix
    Trans. dipole moment [D]:             0.286377
      Cartesian components [D]:         [ -0.011001,  -0.020902,   0.285401]
    <r_h> [Ang]:                        [ -1.572268,  -0.086027,  -0.000884]
    <r_e> [Ang]:                        [ -1.800740,  -0.276043,  -0.022845]
    |<r_e - r_h>| [Ang]:                  0.297973
    Hole size [Ang]:                      1.392995
      Cartesian components [Ang]:       [  0.932418,   0.815337,   0.637383]
    Electron size [Ang]:                  1.840222
      Cartesian components [Ang]:       [  1.171240,   1.163121,   0.813490]
    RMS electron-hole separation [Ang]:   2.317492
      Cartesian components [Ang]:       [  1.504433,   1.428739,   1.032547]
    Covariance(r_h, r_e) [Ang^2]:         0.022436
    Correlation coefficient:              0.008752
    Center-of-mass size [Ang]:            1.158849
      Cartesian components [Ang]:       [  0.753540,   0.712401,   0.517294]

  Decomposition into state-averaged NTOs
    H- 1 -> L+ 0:  0.4990 ( 49.8%)
    H- 0 -> L+ 1: -0.4476 ( 40.1%)
    H- 0 -> L+ 2:  0.1005 (  2.0%)
                   omega =  92.2%
  ----------------------------------------------------------------------------


  Excited state 3 (singlet, A)                                     [converged]
  ----------------------------------------------------------------------------
  Term symbol:  4 (1) A                                     R^2 =  5.26769e-14

  Total energy:                                            -77.9844259621 a.u.
  Excitation energy:                                               9.065619 eV

  Osc. strength:                                                      0.014170
  Trans. dip. moment [a.u.]:           [  -0.010580,   -0.015417,    0.251895]
  <i|r^2|0> [a.u.]:                    [  -0.008915,    0.037288,   -0.093987]
  Two-photon absorption cross-section (SoS) [a.u.]:                   1.258144
  Two-photon absorption matrix (SoS) [a.u.]:
                                       |    0.031833    0.026674   -0.365201 |
                                       |    0.026674    0.025676   -0.142240 |
                                       |   -0.365201   -0.142240   -0.064852 |
  Two-photon absorption cross-section [a.u.]:                         0.343879
  Two-photon absorption matrix [a.u.]:
                                       |   -0.018465   -0.013791    0.191204 |
                                       |   -0.013791   -0.016916    0.075362 |
                                       |    0.191204    0.075362    0.018546 |

  Dip. moment [a.u.]:                  [  -0.172399,   -0.078821,   -0.012404]
  Total dipole [Debye]:                                               0.482852
  <r^2> [a.u.]:                        [ 176.991148,   38.515460,   11.988119]
  Total <r^2> [a.u.]:                                               227.494727

  V1^2 = 0.9568, V2^2 = 0.0432

  Important amplitudes:
      occ i     occ j     vir a      vir b          v   
    -----------------------------------------------------
     8 (A) A             10 (A) A                -0.5237
     7 (A) A              9 (A) A                -0.4398
     8 (A) A             11 (A) A                -0.0693
     7 (A) A             20 (A) A                -0.0494
     8 (A) A             24 (A) A                -0.0383
     8 (A) A             18 (A) A                 0.0229
     5 (A) A   8 (A) B    9 (A) A    9 (A) B      0.0213
     6 (A) A              9 (A) A                 0.0199
     4 (A) A              9 (A) A                -0.0199
     8 (A) A   8 (A) B    9 (A) A   12 (A) B      0.0169
     8 (A) A             15 (A) A                 0.0144
     8 (A) A   8 (A) B   10 (A) A   17 (A) B     -0.0128
     5 (A) A   8 (A) B   11 (A) A   10 (A) B     -0.0121
     8 (A) A             16 (A) A                -0.0105
     7 (A) A   8 (A) B   13 (A) A   10 (A) B      0.0104
     8 (A) A             13 (A) A                 0.0088
     4 (A) A   7 (A) B    9 (A) A   19 (A) B      0.0087
     5 (A) A   7 (A) B    9 (A) A   16 (A) B      0.0086
     4 (A) A   8 (A) B   12 (A) A   10 (A) B      0.0083
     6 (A) A   8 (A) A   10 (A) A   15 (A) A     -0.0080
     4 (A) A   8 (A) A   10 (A) A   12 (A) A     -0.0079
     6 (A) A   8 (A) B   15 (A) A   10 (A) B      0.0078
     7 (A) A   8 (A) B   22 (A) A   10 (A) B     -0.0078
     5 (A) A             28 (A) A                 0.0076
     7 (A) A   8 (A) A   10 (A) A   13 (A) A     -0.0072
     7 (A) A   8 (A) A   10 (A) A   22 (A) A      0.0071
     5 (A) A   8 (A) B   21 (A) A   10 (A) B     -0.0070
     6 (A) A   8 (A) A   10 (A) A   18 (A) A      0.0070
     7 (A) A   8 (A) B   20 (A) A   17 (A) B      0.0069
     5 (A) A   8 (A) A   10 (A) A   11 (A) A      0.0068
     6 (A) A   8 (A) B   10 (A) A   10 (A) B      0.0063
     5 (A) A             27 (A) A                -0.0063
     5 (A) A   8 (A) B    9 (A) A   20 (A) B      0.0062
     5 (A) A   6 (A) A    9 (A) A   14 (A) A     -0.0062
     3 (A) A   4 (A) B   10 (A) A    9 (A) B      0.0062
     8 (A) A   8 (A) B    9 (A) A   23 (A) B     -0.0061
     5 (A) A   6 (A) B    9 (A) A   19 (A) B     -0.0060
     7 (A) A   8 (A) A   12 (A) A   16 (A) A     -0.0059
     5 (A) A   8 (A) A   10 (A) A   21 (A) A      0.0059
     5 (A) A   6 (A) A    9 (A) A   23 (A) A      0.0058
    -----------------------------------------------------

  Density matrix analysis:
  ------------------------
  NOs
    Occupation of frontier NOs:
       0.5826   1.3803
    Number of electrons: 16.000000
    Number of unpaired electrons: n_u =  2.34632, n_u,nl =  2.34495
    NO participation ratio (PR_NO):  5.016512
  
  
  Mulliken Population Analysis
  Atom      Charge (e)              h+              e-           Del q
  --------------------------------------------------------------------
   1 H       -0.055803        0.098617       -0.206041       -0.107424
   2 C        0.057248        0.388568       -0.218350        0.170218
   3 H       -0.017527        0.069436       -0.140461       -0.071026
   4 C        0.062664        0.374565       -0.222508        0.152057
   5 H       -0.062646        0.068818       -0.174679       -0.105861
   6 H        0.016063        0.087346       -0.125310       -0.037964
  --------------------------------------------------------------------
  Sum:        0.000000        1.087350       -1.087350        0.000000
  
  Multipole moment analysis of the density matrix
    Molecular charge:                      0.000000
    Number of electrons:                   16.000000
      Center of electronic charge [Ang]: [ -1.554874,  -0.047995,   0.002388]
    Total nuclear charge:                  16.000000
      Center of nuclear charge [Ang]:    [ -1.560576,  -0.050602,   0.001978]
    Dipole moment [D]:                     0.482852
      Cartesian components [D]:          [ -0.438195,  -0.200343,  -0.031527]
    RMS size of the density [Ang]:         1.249648
      Cartesian components [Ang]:        [  0.824637,   0.819625,   0.458048]
  
  Exciton analysis of the difference density matrix
    <r_h> [Ang]:                  [ -1.530937,  -0.055299,   0.002843]
    <r_e> [Ang]:                  [ -1.445424,  -0.016114,   0.009863]
    |<r_e - r_h>| [Ang]:            0.094326
    Hole size [Ang]:                1.464795
      Cartesian components [Ang]: [  0.949968,   0.867093,   0.700954]
    Electron size [Ang]:            1.919565
      Cartesian components [Ang]: [  1.246014,   1.230440,   0.786256]

  Transition density matrix analysis:
  -----------------------------------
  
  CT numbers (Mulliken)
    omega =     0.9231
    <Phe> =    -0.0132
  
  Exciton analysis of the transition density matrix
    Trans. dipole moment [D]:             0.321007
      Cartesian components [D]:         [ -0.013446,  -0.019593,   0.320127]
    <r_h> [Ang]:                        [ -1.533780,  -0.057388,   0.002460]
    <r_e> [Ang]:                        [ -1.428826,  -0.009391,   0.011030]
    |<r_e - r_h>| [Ang]:                  0.115726
    Hole size [Ang]:                      1.353945
      Cartesian components [Ang]:       [  0.874133,   0.771929,   0.687884]
    Electron size [Ang]:                  1.980611
      Cartesian components [Ang]:       [  1.283502,   1.268077,   0.816959]
    RMS electron-hole separation [Ang]:   2.389181
      Cartesian components [Ang]:       [  1.547563,   1.474879,   1.066755]
    Covariance(r_h, r_e) [Ang^2]:         0.030597
    Correlation coefficient:              0.011410
    Center-of-mass size [Ang]:            1.205942
      Cartesian components [Ang]:       [  0.780871,   0.747466,   0.534631]

  Decomposition into state-averaged NTOs
    H- 0 -> L+ 1: -0.5113 ( 52.3%)
    H- 1 -> L+ 0: -0.4347 ( 37.8%)
    H- 0 -> L+ 2: -0.0979 (  1.9%)
                   omega =  92.3%
  ----------------------------------------------------------------------------


  Excited state 4 (singlet, A)                                     [converged]
  ----------------------------------------------------------------------------
  Term symbol:  5 (1) A                                     R^2 =  4.36177e-14

  Total energy:                                            -77.9566149242 a.u.
  Excitation energy:                                               9.822396 eV

  Osc. strength:                                                      0.000593
  Trans. dip. moment [a.u.]:           [   0.001775,    0.003542,   -0.049467]
  <i|r^2|0> [a.u.]:                    [  -0.004262,   -0.027987,    0.043419]
  Two-photon absorption cross-section (SoS) [a.u.]:                 161.648360
  Two-photon absorption matrix (SoS) [a.u.]:
                                       |   -0.344176   -0.336006    3.130390 |
                                       |   -0.336006   -0.340287    3.153807 |
                                       |    3.130390    3.153807    0.678486 |
  Two-photon absorption cross-section [a.u.]:                       107.760615
  Two-photon absorption matrix [a.u.]:
                                       |   -0.308406   -0.277989    2.705324 |
                                       |   -0.277989   -0.245208    2.417757 |
                                       |    2.705324    2.417757    0.549267 |

  Dip. moment [a.u.]:                  [  -0.322942,   -0.235304,   -0.031859]
  Total dipole [Debye]:                                               1.018839
  <r^2> [a.u.]:                        [ 180.127264,   40.649554,   10.813159]
  Total <r^2> [a.u.]:                                               231.589976

  V1^2 = 0.9635, V2^2 = 0.0365

  Important amplitudes:
      occ i     occ j     vir a      vir b          v   
    -----------------------------------------------------
     8 (A) A             11 (A) A                 0.6692
     7 (A) A              9 (A) A                -0.1428
     8 (A) A             21 (A) A                 0.0773
     8 (A) A             16 (A) A                 0.0609
     6 (A) A              9 (A) A                 0.0384
     8 (A) A             10 (A) A                 0.0323
     8 (A) A             12 (A) A                 0.0282
     8 (A) A   8 (A) B    9 (A) A   13 (A) B     -0.0173
     5 (A) A   8 (A) B   11 (A) A   11 (A) B      0.0154
     8 (A) A   8 (A) B   11 (A) A   17 (A) B      0.0139
     7 (A) A             20 (A) A                -0.0131
     7 (A) A   8 (A) B   13 (A) A   11 (A) B     -0.0126
     5 (A) A   8 (A) A   11 (A) A   21 (A) A     -0.0109
     4 (A) A   8 (A) B   12 (A) A   11 (A) B     -0.0108
     8 (A) A   8 (A) B    9 (A) A   22 (A) B      0.0104
     7 (A) A   8 (A) A   11 (A) A   22 (A) A     -0.0094
     6 (A) A   8 (A) B   15 (A) A   11 (A) B     -0.0088
     7 (A) A   8 (A) B   22 (A) A   11 (A) B      0.0086
     6 (A) A   8 (A) B   10 (A) A   11 (A) B     -0.0085
     3 (A) A   4 (A) B   11 (A) A    9 (A) B     -0.0083
     8 (A) A             13 (A) A                -0.0082
     3 (A) A   8 (A) B   11 (A) A   18 (A) B     -0.0080
     6 (A) A   8 (A) A   11 (A) A   15 (A) A      0.0079
     7 (A) A   8 (A) A   11 (A) A   13 (A) A      0.0077
     7 (A) A   8 (A) A   13 (A) A   16 (A) A      0.0076
     5 (A) A   8 (A) B   21 (A) A   11 (A) B      0.0071
     8 (A) A             24 (A) A                 0.0071
     8 (A) A             14 (A) A                -0.0070
     8 (A) A             19 (A) A                 0.0067
     4 (A) A   8 (A) B   19 (A) A   11 (A) B      0.0067
     6 (A) A   8 (A) A   11 (A) A   18 (A) A     -0.0066
     5 (A) A   8 (A) B    9 (A) A    9 (A) B      0.0063
     4 (A) A   8 (A) A   11 (A) A   12 (A) A      0.0063
     6 (A) A   8 (A) B   18 (A) A   11 (A) B      0.0061
     6 (A) A             20 (A) A                 0.0057
     7 (A) A   8 (A) B   16 (A) A   13 (A) B     -0.0057
     3 (A) A   8 (A) A   11 (A) A   18 (A) A     -0.0056
     3 (A) A              9 (A) A                 0.0055
     5 (A) A   8 (A) B   10 (A) A   10 (A) B      0.0055
     3 (A) A   5 (A) B   11 (A) A   25 (A) B     -0.0054
    -----------------------------------------------------

  Density matrix analysis:
  ------------------------
  NOs
    Occupation of frontier NOs:
       0.9420   1.0258
    Number of electrons: 16.000000
    Number of unpaired electrons: n_u =  2.32075, n_u,nl =  2.04885
    NO participation ratio (PR_NO):  2.909028
  
  
  Mulliken Population Analysis
  Atom      Charge (e)              h+              e-           Del q
  --------------------------------------------------------------------
   1 H       -0.226483        0.049038       -0.327142       -0.278104
   2 C        0.274095        0.502809       -0.115744        0.387065
   3 H       -0.064976        0.042951       -0.161426       -0.118475
   4 C        0.297115        0.494814       -0.108306        0.386507
   5 H       -0.174325        0.043747       -0.261287       -0.217540
   6 H       -0.105425        0.048417       -0.207869       -0.159453
  --------------------------------------------------------------------
  Sum:       -0.000000        1.181775       -1.181775       -0.000000
  
  Multipole moment analysis of the density matrix
    Molecular charge:                      -0.000000
    Number of electrons:                   16.000000
      Center of electronic charge [Ang]: [ -1.549895,  -0.042820,   0.003032]
    Total nuclear charge:                  16.000000
      Center of nuclear charge [Ang]:    [ -1.560576,  -0.050602,   0.001978]
    Dipole moment [D]:                     1.018839
      Cartesian components [D]:          [ -0.820836,  -0.598083,  -0.080978]
    RMS size of the density [Ang]:         1.284219
      Cartesian components [Ang]:        [  0.866240,   0.842381,   0.435018]
  
  Exciton analysis of the difference density matrix
    <r_h> [Ang]:                  [ -1.549497,  -0.044129,   0.002275]
    <r_e> [Ang]:                  [ -1.403406,   0.061995,   0.017446]
    |<r_e - r_h>| [Ang]:            0.181205
    Hole size [Ang]:                1.403601
      Cartesian components [Ang]: [  0.833112,   0.803490,   0.793992]
    Electron size [Ang]:            2.132872
      Cartesian components [Ang]: [  1.494180,   1.359430,   0.684484]

  Transition density matrix analysis:
  -----------------------------------
  
  CT numbers (Mulliken)
    omega =     0.9289
    <Phe> =    -0.0120
  
  Exciton analysis of the transition density matrix
    Trans. dipole moment [D]:             0.063067
      Cartesian components [D]:         [  0.002256,   0.004502,  -0.062866]
    <r_h> [Ang]:                        [ -1.560567,  -0.047098,   0.001227]
    <r_e> [Ang]:                        [ -1.372240,   0.082387,   0.020410]
    |<r_e - r_h>| [Ang]:                  0.229349
    Hole size [Ang]:                      1.236552
      Cartesian components [Ang]:       [  0.673916,   0.644670,   0.811973]
    Electron size [Ang]:                  2.271256
      Cartesian components [Ang]:       [  1.594043,   1.444647,   0.728443]
    RMS electron-hole separation [Ang]:   2.585342
[...]
    16   -1.504458788088e-03
    17   -1.872000254793e-03
    18    2.771335084161e-05
    19   -3.565767999402e-03
    20    1.582227317827e-02
    21    1.014621288480e+00
    22    2.708683650429e-05
    23    1.508279336820e-02
    24    9.091705585018e-04
    25    6.842266388164e-02
    26   -5.094624411215e-02
    27   -1.389461586846e+00
    28    1.071705441718e-01
    29   -7.705605390660e-02
    30   -4.468469006137e-04
    31    3.838566613955e-01
    32   -3.125580475751e-01
    33   -4.438236584422e-03
    34    1.581512780142e-02
    35   -1.306395099366e-03
    36   -2.040749427227e-03
    37    2.268439328716e-03
    38   -3.364443139568e-03
    39    7.540135634325e-03
    40    8.856353470697e-01
    41    1.343180045780e-03
    42   -1.431799974948e-02
    43   -8.475993586886e-04
    44    1.419795876641e-02
    45    9.462328668558e-01
    46    1.388438746212e-02
    47    7.552014762757e-04
    48    6.591864717095e-04
Sym=X
Ene= 0.235003
Spin=Alpha
Occup=0
     1    2.287237313185e-02
     2    1.351722485537e+00
     3   -1.733264225219e-02
     4   -4.400820155380e-03
     5   -1.067727389105e-03
     6    1.211247265196e-02
     7   -8.101183200297e-03
     8   -2.706322873782e-01
     9   -1.659953080365e-01
    10   -1.465210896415e-01
    11   -1.654389538108e-02
    12   -5.770123294733e-01
    13   -5.372617886379e-01
    14   -5.896789810085e-02
    15    4.202430686345e-03
    16   -5.783773258882e-04
    17   -2.653967543501e-04
    18   -3.390566646670e-03
    19   -2.095179052606e-03
    20   -1.921313227934e-02
    21   -1.026190695111e+00
    22   -2.405629561607e-03
    23   -1.130917238278e-02
    24   -8.014818384463e-04
    25   -5.322120659141e-03
    26    3.586844552628e-03
    27    5.997564788182e-02
    28   -1.532363179975e-01
    29   -1.513737522423e-01
    30   -1.624894905014e-02
    31   -5.368780097887e-01
    32   -6.029031101479e-01
    33   -6.144586481869e-02
    34   -1.139491674238e-03
    35    8.795128690389e-05
    36   -9.389648412463e-05
    37    1.706324754538e-03
    38    4.096899361819e-04
    39    1.576834483836e-02
    40    1.188414089895e+00
    41   -3.245798631512e-03
    42   -1.397210373628e-02
    43   -1.003486534378e-03
    44   -2.755883120462e-02
    45   -1.253796264473e+00
    46   -1.488117739394e-02
    47   -3.747165274918e-03
    48   -9.030385049237e-04
Sym=X
Ene= 0.240114
Spin=Alpha
Occup=0
     1   -1.699717329484e-02
     2   -9.391137560523e-01
     3    1.497118292836e-02
     4    8.843423881570e-03
     5    1.245383797258e-03
     6   -8.492708998008e-02
     7    7.711667213350e-02
     8    1.571468413751e+00
     9    3.800247651539e-02
    10   -6.838025831180e-02
    11   -2.012297676751e-03
    12    1.527653344695e-01
    13   -2.422271230184e-01
    14   -5.641618002019e-03
    15   -2.162266060682e-02
    16    2.531539029039e-03
    17    2.852407016735e-03
    18   -1.355972627415e-03
    19    1.248157344103e-02
    20   -1.668659885717e-02
    21   -1.167885154726e+00
    22   -8.992772198888e-03
    23   -1.795969976032e-02
    24   -1.481327106896e-03
    25    8.867743859683e-02
    26   -8.154008057044e-02
    27   -1.676907035257e+00
    28    4.451362200431e-02
    29   -6.391039090953e-02
    30   -2.736323869551e-03
    31    1.535682423458e-01
    32   -2.671672247578e-01
    33   -1.278220122670e-02
    34    2.353654074966e-02
    35   -2.593395094166e-03
    36   -3.309664218082e-03
    37    2.478960428369e-03
    38   -1.346434618712e-02
    39    1.715260618225e-02
    40    1.280313167214e+00
    41   -8.284761803197e-03
    42   -2.087898122845e-02
    43   -1.728797152932e-03
    44    1.237284893341e-02
    45    9.582051973651e-01
    46    1.518198859927e-02
    47    9.274603096682e-03
    48    1.204087682322e-03
Sym=X
Ene= 0.301510
Spin=Alpha
Occup=0
     1    1.379493119605e-02
     2   -1.666456314336e+00
     3    2.224085905338e-02
     4   -4.750932081297e-04
     5    1.073770295258e-03
     6    7.122332321937e-04
     7    1.523821391793e-04
     8   -4.324277030399e-02
     9    1.333555550553e-01
    10    1.421514565248e-01
    11    1.467852008809e-02
    12    1.131196219803e+00
    13    1.158578964008e+00
    14    1.222859307013e-01
    15    4.921518297744e-04
    16    1.498241466755e-03
    17   -1.807373084218e-03
    18    3.091435283594e-02
    19    2.760422166669e-04
    20   -1.716329872452e-02
    21    1.697098648370e+00
    22   -5.112397798376e-04
    23    2.278423724117e-02
    24    1.266768870413e-03
    25   -5.788220910299e-04
    26    8.363970651590e-04
    27   -7.627557775142e-02
    28   -1.328105033953e-01
    29   -1.394497320158e-01
    30   -1.462626097574e-02
    31   -1.119206734918e+00
    32   -1.204471293628e+00
    33   -1.249396940748e-01
    34    1.049541770906e-03
    35    1.265910329102e-03
    36   -2.284650027968e-03
    37    3.277808976348e-02
    38   -3.833787428347e-04
    39   -2.679941982642e-02
    40    1.764371333010e+00
    41    2.613636103636e-04
    42   -2.248762506607e-02
    43   -1.337842215630e-03
    44    1.359769578718e-02
    45   -1.665120967620e+00
    46   -2.246137395195e-02
    47    4.270578272803e-04
    48   -1.023314442356e-03
Sym=X
Ene= 0.455184
Spin=Alpha
Occup=0
     1   -1.171350347342e-01
     2   -6.884039948451e-01
     3   -1.419021981848e-02
     4   -8.127727631945e-03
     5   -1.148024241067e-03
     6    6.170644634753e-02
     7    9.592617599763e-03
     8   -3.246644128601e+00
     9    1.161033230203e-01
    10   -1.122853296694e-01
    11   -1.371211341737e-03
    12    2.257634081410e+00
    13   -2.210817219471e+00
    14   -1.738813203215e-02
    15    4.738085722170e-02
    16   -2.947544538779e-03
    17   -3.940245343228e-03
    18   -2.239656578654e-03
    19    1.738549749114e-02
    20   -9.361371127668e-02
    21   -7.130755251347e-01
    22    1.066031535068e-02
    23    1.276118094667e-02
    24    1.261740844117e-03
    25   -6.037932630094e-02
    26   -1.386647217736e-02
    27    3.213265484473e+00
    28    1.105968986911e-01
    29   -1.020346738906e-01
    30   -1.889774911147e-03
    31    2.244285861082e+00
    32   -2.266634725748e+00
    33   -2.523187374403e-02
    34   -5.022020071164e-02
    35    3.614044240405e-03
    36    4.355629337566e-03
    37    2.978575386477e-03
    38   -1.261445265274e-02
    39    1.017714820604e-01
    40    7.918191656242e-01
    41    1.205810330168e-02
    42    1.407212037322e-02
    43    1.383816261809e-03
    44    1.423295132323e-01
    45    6.061669801557e-01
    46   -1.534841870679e-02
    47   -8.067956071970e-03
    48   -1.249257080356e-03
Sym=X
Ene= 0.581026
Spin=Alpha
Occup=0
     1   -2.883306100223e-01
     2   -4.030585195693e-02
     3    1.441246200402e-02
     4   -2.832955772102e-02
     5   -9.846391266094e-04
     6    4.777863527911e-03
     7    1.341663274050e-01
     8    3.540474437895e-01
     9   -2.926052200289e-01
    10    2.711476941412e-01
    11    1.560661670947e-03
    12    8.112942021926e-01
    13   -7.532364623348e-01
    14   -6.110979810055e-03
    15    9.582051054388e-03
    16   -5.117274836967e-03
    17   -3.852809929390e-03
    18   -6.440710986898e-03
    19   -6.755510032991e-02
    20   -2.539884542039e-01
    21   -8.897528340240e-02
    22    2.819650575893e-02
    23   -1.711241254508e-02
    24    3.332771159341e-04
    25   -5.555477385407e-04
    26    1.292778440143e-01
    27    5.864683258952e-01
    28    3.026967043933e-01
    29   -2.797792966621e-01
    30   -1.676352959703e-03
    31   -6.424336966158e-01
    32    6.359861665759e-01
    33    8.631854032155e-03
    34    9.142499678958e-03
    35   -4.961219792967e-03
    36   -3.985199781986e-03
    37   -3.687015835347e-03
    38   -6.794806634089e-02
    39   -2.699789672654e-01
    40   -6.792063004629e-02
    41   -2.218879770883e-02
    42    1.096986833728e-02
    43   -3.301413639751e-04
    44   -2.862350608716e-01
    45    5.036616927162e-02
    46   -1.473704933445e-02
    47    2.724814163651e-02
    48    9.892361129048e-04
Sym=X
Ene= 0.616297
Spin=Alpha
Occup=0
     1    4.911382744632e-01
     2   -2.159004996828e-01
     3    5.765020061436e-02
     4   -4.076605263523e-02
     5    4.072392374704e-04
     6   -1.966743481238e-03
     7    4.151350928426e-03
     8   -1.241177167983e-01
     9    3.453712250858e-02
    10    5.311482929400e-02
    11    4.733803978296e-03
    12   -1.971076248312e-01
    13   -4.219825389670e-01
    14   -3.370106868550e-02
    15    8.608577316306e-03
    16    6.975757506702e-03
    17   -9.413691447679e-03
    18    1.510934663574e-01
    19    5.964449974421e-03
    20   -5.523762960718e-01
    21    1.743450743355e-01
    22   -3.834915000679e-02
    23    6.164731819611e-02
    24    1.768465012975e-03
    25    2.319059087284e-03
    26    1.492202754313e-02
    27    4.150713002022e-02
    28    4.041939796318e-02
    29    5.893322490901e-02
    30    5.319947975170e-03
    31   -2.126305982367e-01
    32   -4.685266733093e-01
    33   -3.830302042932e-02
    34   -9.199733032757e-04
    35   -6.986859986367e-03
    36    8.400277109629e-03
    37   -1.420259805720e-01
    38   -1.365506522261e-02
    39    5.051108122007e-01
    40   -4.604551546085e-02
    41   -3.919771368006e-02
    42    5.830579594801e-02
    43    1.714218387964e-03
    44   -4.973069215530e-01
    45    1.948900127714e-01
    46    5.813184457214e-02
    47   -4.143105753778e-02
    48    1.437079419270e-04
Sym=X
Ene= 0.694849
Spin=Alpha
Occup=0
     1    1.841720326674e-03
     2    9.610383512813e-04
     3    1.231875632902e-03
     4    1.498742409586e-03
     5   -2.202704969149e-02
     6    1.316922986761e-04
     7    5.747884311095e-04
     8    1.088171402613e-04
     9    3.200335719527e-02
    10    4.007218833171e-02
    11   -6.769963895916e-01
    12   -3.177482256352e-02
    13   -3.342663574319e-02
    14    6.128892720202e-01
    15   -1.642523453077e-03
    16    8.017578770453e-02
    17   -7.942208543539e-02
    18   -8.590691763584e-03
    19   -3.854724248518e-04
    20    1.907382767397e-03
    21    7.465780170494e-04
    22    8.259326076317e-04
    23    1.097325635877e-03
    24   -2.214013784486e-02
    25   -5.645807115042e-05
    26    1.899378847365e-03
    27   -1.268394663343e-03
    28    3.249299950214e-02
    29    4.010099958738e-02
    30   -6.766245834044e-01
    31   -3.247523032757e-02
    32   -3.368740428227e-02
    33    6.165345102802e-01
    34    1.044569107945e-03
    35   -7.995831787539e-02
    36    8.046250181596e-02
    37    8.514153968705e-03
    38    5.971844221929e-04
    39   -5.090046622550e-04
    40   -2.579991630086e-03
    41    1.359024636670e-03
    42    2.212954335442e-03
    43   -2.921489710644e-02
    44   -4.986133471230e-04
    45   -2.037013664133e-03
    46    5.273763346008e-04
    47    1.230163523862e-03
    48   -1.959247085511e-02
Sym=X
Ene= 0.711606
Spin=Alpha
Occup=0
     1   -4.944174758970e-01
     2    1.479283296474e-01
     3   -8.544123119158e-02
     4   -4.187682858804e-02
     5   -6.735668874984e-03
     6   -4.949153431528e-02
     7   -3.153585354726e-01
     8    4.034610616556e-01
     9    2.085677544022e-01
    10   -2.158353918363e-01
    11   -3.878188550866e-03
    12   -5.731099301964e-02
    13    1.112875118465e-01
    14    2.883542682855e-03
    15    2.040079051050e-01
    16   -2.111718604980e-02
    17   -2.431009456611e-02
    18    3.047646553366e-03
    19   -6.983527861680e-02
    20   -4.630459814099e-01
    21    1.800866555190e-01
    22    4.168271158320e-02
    23    8.909856185190e-02
    24    7.039692073023e-03
    25   -4.615303968833e-02
    26   -3.403121384458e-01
    27    5.260253798834e-01
    28   -2.391998629056e-01
    29    2.003605276906e-01
    30   -1.026281298930e-03
    31    1.750292232604e-01
    32   -9.421682382247e-02
    33    7.013994468041e-03
    34    1.879460977207e-01
    35   -1.991103038220e-02
    36   -2.325624329808e-02
    37    4.895204209775e-03
    38   -7.494765667740e-02
    39   -4.288445132309e-01
    40    7.249879109913e-02
    41   -3.789892584154e-02
    42   -8.278301916780e-02
    43   -6.685947822706e-03
    44   -4.454008922441e-01
    45    1.872479785641e-01
    46    7.722357591596e-02
    47    4.643162896098e-02
    48    6.524672177637e-03
Sym=X
Ene= 0.777647
Spin=Alpha
Occup=0
     1    5.273498822268e-01
     2   -4.214681455954e-01
     3    1.067586061945e-01
     4    2.133949892588e-02
     5    6.409853362161e-03
     6    8.872399341136e-02
     7   -2.366927396187e-01
     8   -4.890953507296e-01
     9    1.456078177963e-01
    10   -1.520108392107e-01
    11    1.085059750825e-03
    12    1.644140252887e-01
    13   -1.863392881370e-01
    14   -7.881853380667e-03
    15   -1.972172236790e-01
    16    1.669750014206e-02
    17    1.935395119926e-02
    18    1.024238517428e-02
    19   -3.557587136069e-03
    20    5.041876614730e-01
    21   -4.051285607622e-01
    22   -1.672416004993e-02
    23   -9.886919196819e-02
    24   -6.537868607020e-03
    25   -9.302574636582e-02
    26    1.845924113846e-01
    27    5.484695877237e-01
    28    9.607981238103e-02
    29   -1.650214898133e-01
    30   -6.613078773794e-03
    31    2.801416900823e-01
    32   -1.114082934443e-01
    33    1.176225624477e-02
    34    2.151419389545e-01
    35   -1.827415015009e-02
    36   -2.215341786944e-02
    37   -1.268126895427e-02
    38   -4.778201423767e-03
    39   -4.967815801399e-01
    40    2.943261994907e-01
    41   -1.680554243306e-02
    42   -1.031630016904e-01
    43   -6.910657094430e-03
    44   -5.688736998285e-01
    45    5.213029397852e-01
    46    1.201055099686e-01
    47    2.567940302194e-02
    48    7.243927635921e-03
Sym=X
Ene= 0.805041
Spin=Alpha
Occup=0
     1   -1.283806382672e-03
     2    1.461358216711e-03
     3   -1.937311505238e-03
     4   -1.990112653518e-03
     5    3.441087762629e-02
     6   -2.963928333036e-04
     7    1.657690947204e-03
     8   -1.396417413442e-03
     9   -3.773276964333e-02
    10   -4.346040065317e-02
    11    7.633029567735e-01
    12    5.404281210707e-02
    13    6.443792788971e-02
    14   -1.113153723315e+00
    15   -1.691688027351e-04
    16    5.629844288682e-02
    17   -5.616379716860e-02
    18   -6.134409302106e-03
    19   -1.501061701107e-04
    20   -1.219539046854e-03
    21    8.457528584911e-04
    22   -1.641742613594e-03
    23   -1.681688085721e-03
    24    3.217118775591e-02
    25    2.147306141727e-04
    26    5.828921144948e-04
    27    1.632432014583e-04
    28    3.587959090456e-02
    29    4.625793960962e-02
    30   -7.609990642006e-01
    31   -5.414374331615e-02
    32   -6.652718449767e-02
    33    1.113696097527e+00
    34   -1.817361957879e-03
    35    5.694202614781e-02
    36   -5.587617634904e-02
    37   -5.869963678647e-03
    38   -7.297775180098e-04
    39    1.178334713775e-03
    40   -9.535048993286e-04
    41    1.638542133699e-03
    42    3.075301495440e-03
    43   -3.959696271050e-02
    44    1.394368783364e-03
    45   -2.565819132193e-03
    46    7.010623409420e-04
    47    2.112302494362e-03
    48   -3.373423108001e-02
Sym=X
Ene= 0.868273
Spin=Alpha
Occup=0
     1    2.098979517851e-02
     2   -1.152479242621e+00
     3    1.565156890681e-01
     4    5.878696868385e-02
     5    1.079276869305e-02
     6   -3.619834506197e-03
     7    4.581979137208e-02
     8   -8.727094824630e-02
     9   -4.613681098524e-01
    10   -4.165477548619e-01
    11   -4.628731153476e-02
    12    1.062746732491e+00
    13    9.696477762082e-01
    14    1.074403923764e-01
    15    7.094289712259e-03
    16    1.243957253628e-02
    17   -1.429972149099e-02
    18    2.468793413854e-01
    19    2.461896928822e-02
    20   -3.827323488892e-02
    21    1.120298794632e+00
    22    4.719965438769e-02
    23    1.626616456313e-01
    24    1.198626088038e-02
    25    7.661940857066e-03
    26    3.655969479410e-02
    27    1.397886576656e-02
    28   -4.212580470366e-01
    29   -3.689991641000e-01
    30   -4.218652048404e-02
    31    9.751226431700e-01
    32    8.824570352504e-01
    33    9.926327545148e-02
    34   -2.462354176865e-02
    35   -1.036895913383e-02
    36    1.543718511634e-02
    37   -2.340203077598e-01
    38   -2.670427800695e-02
    39    2.861357610072e-02
    40   -1.042295002893e+00
    41    4.836209624221e-02
    42    1.484025781737e-01
    43    1.145383665211e-02
    44    6.133526965254e-03
    45    1.096657347541e+00
    46    1.409681314192e-01
    47    6.523896498433e-02
    48    1.020483093198e-02
Sym=X
Ene= 0.933861
Spin=Alpha
Occup=0
     1    1.054312303254e-01
     2   -1.106266095871e+00
     3    1.672815845745e-01
     4   -1.875511751391e-02
     5    7.243478370104e-03
     6    4.720726217242e-03
     7   -5.597483197860e-02
     8    2.776275749281e-01
     9   -3.650599378433e-01
    10   -5.544079784383e-01
    11   -4.998167192655e-02
    12    1.132343929859e+00
    13    1.727152929737e+00
    14    1.552866109873e-01
    15   -1.307855283452e-02
    16    4.438577370083e-03
    17   -6.732197859799e-03
    18    1.104636680552e-01
    19   -4.250600303694e-02
    20   -1.143766576819e-01
    21    1.351550439439e+00
    22    3.163975570114e-04
    23    1.765955752357e-01
    24    1.004557212405e-02
    25   -8.919771362538e-03
    26   -1.279528683442e-01
    27   -2.106348960570e-02
    28    5.832087806371e-01
    29    3.814282003430e-01
    30    5.024401666307e-02
    31   -1.779659236592e+00
    32   -1.224509384948e+00
    33   -1.570956788677e-01
    34    2.284822790393e-02
    35    8.451429968143e-03
    36   -5.956204034367e-03
    37    1.238328153383e-01
    38    8.062882098206e-02
    39   -9.582416008058e-02
    40    1.091568083009e+00
    41    3.314290247013e-02
    42   -1.569648334123e-01
    43   -7.560687362150e-03
    44    1.184068988418e-01
    45   -1.504401223242e+00
    46   -2.030190304128e-01
    47   -2.648731467704e-02
    48   -1.115161661024e-02
Sym=X
Ene= 0.960505
Spin=Alpha
Occup=0
     1    1.033892110956e-01
     2   -1.158888484457e+00
     3    1.247232107650e-01
     4    9.714314326709e-02
     5    1.168337351681e-02
     6   -1.549430800874e-02
     7   -2.597059602789e-01
     8   -5.754302825168e-01
     9   -5.439051905220e-01
    10    3.808691252443e-01
    11   -4.433012449372e-03
    12    1.800195740308e+00
    13   -1.195335807044e+00
    14    1.850485481787e-02
    15    3.576123653217e-02
    16    1.433578037162e-02
    17    1.168245950747e-02
    18   -2.524935102929e-03
    19    3.001936382584e-01
    20    1.086570909576e-01
    21   -7.486753914534e-01
    22   -9.556102768711e-02
    23   -7.764109998856e-02
    24   -9.382637141752e-03
    25    1.323679462733e-02
    26    1.379924403963e-01
    27    7.659856833876e-01
    28   -3.404617848091e-01
    29    5.517302024010e-01
    30    1.768168393020e-02
    31    1.078135740616e+00
    32   -1.847220858461e+00
    33   -6.030986066379e-02
    34   -3.100932720288e-02
    35   -1.116056849020e-02
    36   -1.458784853188e-02
    37    5.515198212456e-02
    38   -2.879081399465e-01
    39   -1.076975863282e-01
    40    1.261566118434e+00
    41   -8.721676706692e-02
    42   -1.389370600361e-01
    43   -1.279163140030e-02
    44   -8.359010843295e-02
    45    5.065700274114e-01
    46    3.549636249945e-02
    47    9.208612474881e-02
    48    6.631841588890e-03
[5D]

======= END OF MOLDEN-FORMATTED INPUT FILE =======


        *************************************************************
        *                                                           *
        *  Thank you very much for using Q-Chem.  Have a nice day.  *
        *                                                           *
        *************************************************************


