                  Welcome to Q-Chem
     A Quantum Leap Into The Future Of Chemistry


 Q-Chem 5.4 (devel), Q-Chem, Inc., Pleasanton, CA (2021)

 E. Epifanovsky,  A. T. B. Gilbert,  Xintian Feng,  Joonho Lee,  Yuezhi Mao,  
 N. Mardirossian,  P. Pokhilko,  A. White,  M. Wormit,  M. P. Coons,  
 A. L. Dempwolff,  Zhengting Gan,  D. Hait,  P. R. Horn,  L. D. Jacobson,  
 I. Kaliman,  J. Kussmann,  A. W. Lange,  Ka Un Lao,  D. S. Levine,  Jie Liu,  
 S. C. McKenzie,  A. F. Morrison,  K. Nanda,  F. Plasser,  D. R. Rehn,  
 M. L. Vidal,  Zhi-Qiang You,  Ying Zhu,  B. Alam,  B. Albrecht,  
 A. Aldossary,  E. Alguire,  J. H. Andersen,  D. Barton,  K. Begam,  A. Behn,  
 Y. A. Bernard,  E. J. Berquist,  H. Burton,  A. Carreras,  K. Carter-Fenk,  
 R. Chakraborty,  A. D. Chien,  K. D. Closser,  V. Cofer-Shabica,  
 S. Dasgupta,  Jia Deng,  M. de Wergifosse,  M. Diedenhofen,  Hainam Do,  
 S. Ehlert,  Po-Tung Fang,  S. Fatehi,  Qingguo Feng,  T. Friedhoff,  
 J. Gayvert,  Qinghui Ge,  G. Gidofalvi,  M. Goldey,  J. Gomes,  
 C. Gonzalez-Espinoza,  S. Gulania,  A. Gunina,  M. W. D. Hanson-Heine,  
 P. H. P. Harbach,  A. W. Hauser,  M. F. Herbst,  M. Hernandez Vera,  
 M. Hodecker,  Z. C. Holden,  S. Houck,  Xunkun Huang,  Kerwin Hui,  
 B. C. Huynh,  M. Ivanov,  Hyunjun Ji,  Hanjie Jiang,  B. Kaduk,  S. Kaehler,  
 K. Khistyaev,  Jaehoon Kim,  P. Klunzinger,  Z. Koczor-Benda,  
 Joong Hoon Koh,  D. Kosenkov,  L. Koulias,  T. Kowalczyk,  C. M. Krauter,  
 K. Kue,  A. Kunitsa,  T. Kus,  A. Landau,  K. V. Lawler,  D. Lefrancois,  
 S. Lehtola,  Rain Li,  Yi-Pei Li,  Jiashu Liang,  M. Liebenthal,  
 Hung-Hsuan Lin,  You-Sheng Lin,  Fenglai Liu,  Kuan-Yu Liu,  
 M. Loipersberger,  A. Luenser,  A. Manjanath,  P. Manohar,  E. Mansoor,  
 S. F. Manzer,  Shan-Ping Mao,  A. V. Marenich,  T. Markovich,  S. Mason,  
 S. A. Maurer,  P. F. McLaughlin,  M. F. S. J. Menger,  J.-M. Mewes,  
 S. A. Mewes,  P. Morgante,  J. W. Mullinax,  K. J. Oosterbaan,  G. Paran,  
 Alexander C. Paul,  Suranjan K. Paul,  F. Pavosevic,  Zheng Pei,  S. Prager,  
 E. I. Proynov,  E. Ramos,  B. Rana,  A. E. Rask,  A. Rettig,  R. M. Richard,  
 F. Rob,  E. Rossomme,  T. Scheele,  M. Scheurer,  M. Schneider,  
 N. Sergueev,  S. M. Sharada,  W. Skomorowski,  D. W. Small,  C. J. Stein,  
 Yu-Chuan Su,  E. J. Sundstrom,  Zhen Tao,  J. Thirman,  T. Tsuchimochi,  
 N. M. Tubman,  S. P. Veccham,  O. Vydrov,  J. Wenzel,  J. Witte,  A. Yamada,  
 Kun Yao,  S. Yeganeh,  S. R. Yost,  A. Zech,  Igor Ying Zhang,  Xing Zhang,  
 Yu Zhang,  D. Zuev,  A. Aspuru-Guzik,  A. T. Bell,  N. A. Besley,  
 K. B. Bravaya,  B. R. Brooks,  D. Casanova,  Jeng-Da Chai,  S. Coriani,  
 C. J. Cramer,  A. E. DePrince, III,  R. A. DiStasio Jr.,  A. Dreuw,  
 B. D. Dunietz,  T. R. Furlani,  W. A. Goddard III,  S. Grimme,  
 S. Hammes-Schiffer,  T. Head-Gordon,  W. J. Hehre,  Chao-Ping Hsu,  
 T.-C. Jagau,  Yousung Jung,  A. Klamt,  Jing Kong,  D. S. Lambrecht,  
 WanZhen Liang,  N. J. Mayhall,  C. W. McCurdy,  J. B. Neaton,  
 C. Ochsenfeld,  J. A. Parkhill,  R. Peverati,  V. A. Rassolov,  Yihan Shao,  
 L. V. Slipchenko,  T. Stauch,  R. P. Steele,  J. E. Subotnik,  
 A. J. W. Thom,  A. Tkatchenko,  D. G. Truhlar,  T. Van Voorhis,  
 T. A. Wesolowski,  K. B. Whaley,  H. L. Woodcock III,  P. M. Zimmerman,  
 S. Faraji,  P. M. W. Gill,  M. Head-Gordon,  J. M. Herbert,  A. I. Krylov

 Additional authors for Version 5.4.1: 
 S. Kotaru,  Shaozhi Li,  Xiangyuan Li,  F. Matz,  A. Molle,  Haisheng Ren,  
 Yingli Su,  Hung-Yi Tsai,  C. Utku,  Fang Wang

 Contributors to earlier versions of Q-Chem not listed above: 
 R. D. Adamson,  B. Austin,  R. Baer,  J. Baker,  G. J. O. Beran,  
 K. Brandhorst,  S. T. Brown,  E. F. C. Byrd,  A. K. Chakraborty,  
 G. K. L. Chan,  Chun-Min Chang,  Yunqing Chen,  C.-L. Cheng,  
 Siu Hung Chien,  D. M. Chipman,  D. L. Crittenden,  H. Dachsel,  
 R. J. Doerksen,  A. D. Dutoi,  R. G. Edgar,  J. Fosso-Tande,  
 L. Fusti-Molnar,  D. Ghosh,  A. Ghysels,  A. Golubeva-Zadorozhnaya,  
 J. Gonthier,  M. S. Gordon,  S. R. Gwaltney,  G. Hawkins,  J. E. Herr,  
 A. Heyden,  S. Hirata,  E. G. Hohenstein,  G. Kedziora,  F. J. Keil,  
 C. Kelley,  Jihan Kim,  R. A. King,  R. Z. Khaliullin,  P. P. Korambath,  
 W. Kurlancheek,  A. Laurent,  A. M. Lee,  M. S. Lee,  S. V. Levchenko,  
 Ching Yeh Lin,  D. Liotard,  E. Livshits,  R. C. Lochan,  I. Lotan,  
 L. A. Martinez-Martinez,  P. E. Maslen,  N. Nair,  D. P. O'Neill,  
 D. Neuhauser,  E. Neuscamman,  C. M. Oana,  R. Olivares-Amaya,  R. Olson,  
 T. M. Perrine,  B. Peters,  P. A. Pieniazek,  A. Prociuk,  Y. M. Rhee,  
 J. Ritchie,  M. A. Rohrdanz,  E. Rosta,  N. J. Russ,  H. F. Schaefer III,  
 M. W. Schmidt,  N. E. Schultz,  S. Sharma,  N. Shenvi,  C. D. Sherrill,  
 A. C. Simmonett,  A. Sodt,  T. Stein,  D. Stuck,  K. S. Thanthiriwatte,  
 V. Vanovschi,  L. Vogt,  Tao Wang,  A. Warshel,  M. A. Watson,  
 C. F. Williams,  Q. Wu,  X. Xu,  Jun Yang,  W. Zhang,  Yan Zhao

 Please cite Q-Chem as follows:
 Y. Shao et al., Mol. Phys. 113, 184-215 (2015)
 DOI: 10.1080/00268976.2014.952696

 Q-Chem 5.4.1 for Intel X86 EM64T Linux

 Parts of Q-Chem use Armadillo 9.800.1 (Horizon Scraper).
 http://arma.sourceforge.net/

 Q-Chem begins on Mon Mar 20 18:28:45 2023  

 Host: cpu186.baobab
0

     Scratch files written to /scratch/fum/qchem77142//
 Processing $rem in /home/share/wesolowski/qc5.aug2021.FDE/config/preferences:
 Processing $rem in /home/fum/.qchemrc:

 Checking the input file for inconsistencies... 	...done.

--------------------------------------------------------------
User input:
--------------------------------------------------------------
$comment
generated from CCJob.Templates
$end

$rem
sym_ignore = true
method = adc(2)
ee_states = 10
basis = cc-pVDZ
mem_static = 1024
mem_total = 40000
adc_davidson_maxiter = 900
adc_davidson_conv = 6
adc_print = 3
adc_prop_es = true
adc_prop_es2es = true
adc_prop_tpa = true
molden_format = True
state_analysis = true
print_orbitals = 15
gen_scfman = false
fde_export_density = true
fde_details = 3
$end

$molecule
0 1
H -0.00924237723911472 -0.284259540933474 0.06396202545517596
C -1.0705053877865571 -0.5166197763389255 -0.0018536604678528509
H -1.3390620556566266 -1.582671393581472 -0.07828777842115983
C -2.0373533217866213 0.40164263736097855 0.007119719832093864
H -1.8593686428564986 1.4728475999186237 0.08132852407914923
H -3.088830196739083 0.07912904036652602 -0.061967347844685494                     
$end
--------------------------------------------------------------
 ----------------------------------------------------------------
             Standard Nuclear Orientation (Angstroms)
    I     Atom           X                Y                Z
 ----------------------------------------------------------------
    1      H      -0.0092423772    -0.2842595409     0.0639620255
    2      C      -1.0705053878    -0.5166197763    -0.0018536605
    3      H      -1.3390620557    -1.5826713936    -0.0782877784
    4      C      -2.0373533218     0.4016426374     0.0071197198
    5      H      -1.8593686429     1.4728475999     0.0813285241
    6      H      -3.0888301967     0.0791290404    -0.0619673478
 ----------------------------------------------------------------
 Nuclear Repulsion Energy =          33.19989497 hartrees
 There are        8 alpha and        8 beta electrons
 Requested basis set is cc-pVDZ
 There are 24 shells and 48 basis functions
 Total memory of 40000 MB is distributed as follows: 
   MEM_STATIC is set to 1024 MB
   QALLOC/CCMAN JOB total memory use is  38976 MB
 Warning: actual memory use might exceed 40000 MB

 Total QAlloc Memory Limit  40000 MB
 Mega-Array Size      1001 MB
 MEM_STATIC part      1024 MB

                       Distance Matrix (Angstroms)
             H (  1)   C (  2)   H (  3)   C (  4)   H (  5)
   C (  2)  1.088394
   H (  3)  1.864009  1.102012
   C (  4)  2.141711  1.333447  2.105328
   H (  5)  2.551606  2.141776  3.103610  1.088423
   H (  6)  3.103509  2.105271  2.413200  1.101994  1.864017

 A cutoff of  1.0D-11 yielded    300 shell pairs
 There are      1220 function pairs (      1329 Cartesian)
 Smallest overlap matrix eigenvalue = 4.77E-03

 Scale SEOQF with 1.000000e-01/1.000000e-01/1.000000e+00

 Standard Electronic Orientation quadrupole field applied
 Nucleus-field energy     =     0.0000000022 hartrees
 Guess from superposition of atomic densities
 Warning:  Energy on first SCF cycle will be non-variational
 SAD guess density has 16.000000 electrons
 A restricted Hartree-Fock SCF calculation will be
 performed using Pulay DIIS extrapolation
 SCF converges when DIIS error is below 1.0E-08
 using 10 threads for integral computing
 -------------------------------------------------------
 OpenMP Integral computing Module                
 Release: version 1.0, May 2013, Q-Chem Inc. Pittsburgh 
 -------------------------------------------------------
 ---------------------------------------
  Cycle       Energy         DIIS Error
 ---------------------------------------
    1     -78.3956401033      9.92E-02
    2     -78.0170514716      7.13E-03
    3     -78.0375013371      1.82E-03
    4     -78.0389760659      5.63E-04
    5     -78.0390931517      5.81E-05
    6     -78.0390950152      9.30E-06
    7     -78.0390950767      1.95E-06
    8     -78.0390950795      1.68E-07
    9     -78.0390950795      1.81E-08
   10     -78.0390950795      5.51E-09 Convergence criterion met
 ---------------------------------------
 SCF time:  CPU 1.92 s  wall 2.59 s
 SCF   energy in the final basis set = -78.03909508
 Total energy in the final basis set = -78.03909508
Exporting Density Matrix to file 'Densmat_SCF.txt'.
Export successful
================================================================================
|                                                                              |
|                                 A D C  M A N                                 |
|                                                                              |
 ------------------------------------------------------------------------------ 
|                                                                              |
| Components:                                                                  |
|                                                                              |
| - libvmm - 1.3-trunk                                                         |
|   Authors:                                                                   |
|   Evgeny Epifanovsky, Ilya Kaliman                                           |
|                                                                              |
| - libtensor - 2.5-trunk                                                      |
|   Authors:                                                                   |
|   Evgeny Epifanovsky, Michael Wormit, Dmitry Zuev, Sam Manzer,               |
|   Ilya Kaliman                                                               |
|                                                                              |
| - libwfa - 1.1-trunk                                                         |
|   Authors:                                                                   |
|   Felix Plasser, Stefanie Mewes (Baeppler), Benjamin Thomitzni,              |
|   Michael Wormit, Feng Chen, Anna I. Krylov, Pavel Pokhilko                  |
|                                                                              |
| - libadc - 1.1-trunk                                                         |
|   Authors:                                                                   |
|   Michael Wormit, Adrian L. Dempwolff, Philipp H. P. Harbach,                |
|   Caroline Krauter, Dirk Rehn, Matthias Schneider, Jan Wenzel                |
|                                                                              |
| - adcman - 2.6-trunk                                                         |
|   Authors:                                                                   |
|   Michael Wormit, Adrian L. Dempwolff, Philipp H. P. Harbach,                |
|   Caroline Krauter, Daniel Lefrancois, Jan-Michael Mewes, Dirk Rehn,         |
|   Matthias Schneider, Jan Wenzel, Andreas Dreuw                              |
|                                                                              |
| Authors of earlier versions of ADCMAN:                                       |
| Andreas Dreuw, Jan Hendrik Starcke, Dirk Rehn, Michael Wormit                |
|                                                                              |
================================================================================

 Created directory /scratch/fum/qchem77142/plots
  Import QC data ...  CPU 0.00 s  wall 0.00 s

 Alpha MOs, Restricted
 -- Occupied --                  
-11.239 -11.237  -1.030  -0.786  -0.635  -0.582  -0.499  -0.375
  1 A     2 A     3 A     4 A     5 A     6 A     7 A     8 A                  
 -- Virtual --                   
  0.168   0.202   0.231   0.236   0.303   0.463   0.579   0.610
  9 A    10 A    11 A    12 A    13 A    14 A    15 A    16 A                  
  0.689   0.705   0.775   0.807   0.858   0.927   0.971   1.006
 17 A    18 A    19 A    20 A    21 A    22 A    23 A    24 A                  
  1.130   1.230   1.248   1.262   1.291   1.592   1.726   1.743
 25 A    26 A    27 A    28 A    29 A    30 A    31 A    32 A                  
  1.810   1.834   1.856   1.919   1.962   1.973   2.220   2.246
 33 A    34 A    35 A    36 A    37 A    38 A    39 A    40 A                  
  2.358   2.422   2.491   2.621   2.676   2.796   3.090   3.373
 41 A    42 A    43 A    44 A    45 A    46 A    47 A    48 A                  

 Beta MOs, Restricted
 -- Occupied --                  
-11.239 -11.237  -1.030  -0.786  -0.635  -0.582  -0.499  -0.375
  1 A     2 A     3 A     4 A     5 A     6 A     7 A     8 A                  
 -- Virtual --                   
  0.168   0.202   0.231   0.236   0.303   0.463   0.579   0.610
  9 A    10 A    11 A    12 A    13 A    14 A    15 A    16 A                  
  0.689   0.705   0.775   0.807   0.858   0.927   0.971   1.006
 17 A    18 A    19 A    20 A    21 A    22 A    23 A    24 A                  
  1.130   1.230   1.248   1.262   1.291   1.592   1.726   1.743
 25 A    26 A    27 A    28 A    29 A    30 A    31 A    32 A                  
  1.810   1.834   1.856   1.919   1.962   1.973   2.220   2.246
 33 A    34 A    35 A    36 A    37 A    38 A    39 A    40 A                  
  2.358   2.422   2.491   2.621   2.676   2.796   3.090   3.373
 41 A    42 A    43 A    44 A    45 A    46 A    47 A    48 A                  
  Import AO data ...  CPU 0.00 s  wall 0.01 s
  Using point group: C1
  Irreducible representations in point group: A
  Molecular orbitals: 
  Occupied MOs:
  Block   0:   1 (  A) A   2 (  A) A   3 (  A) A   4 (  A) A   5 (  A) A
                  -11.24      -11.24       -1.03     -0.7856     -0.6352
               6 (  A) A   7 (  A) A   8 (  A) A
                  -0.582     -0.4988     -0.3745
  Block   1:   1 (  A) B   2 (  A) B   3 (  A) B   4 (  A) B   5 (  A) B
                  -11.24      -11.24       -1.03     -0.7856     -0.6352
               6 (  A) B   7 (  A) B   8 (  A) B
                  -0.582     -0.4988     -0.3745
  Virtual MOs:
  Block   0:   9 (  A) A  10 (  A) A  11 (  A) A  12 (  A) A  13 (  A) A
                  0.1679      0.2023      0.2311      0.2362      0.3033
              14 (  A) A  15 (  A) A  16 (  A) A  17 (  A) A  18 (  A) A
                  0.4626      0.5791      0.6101      0.6886      0.7049
              19 (  A) A  20 (  A) A  21 (  A) A  22 (  A) A
                  0.7746      0.8073      0.8578       0.927
  Block   1:  23 (  A) A  24 (  A) A  25 (  A) A  26 (  A) A  27 (  A) A
                  0.9708       1.006        1.13        1.23       1.248
              28 (  A) A  29 (  A) A  30 (  A) A  31 (  A) A  32 (  A) A
                   1.262       1.291       1.592       1.726       1.743
              33 (  A) A  34 (  A) A  35 (  A) A  36 (  A) A
                    1.81       1.834       1.856       1.919
  Block   2:  37 (  A) A  38 (  A) A  39 (  A) A  40 (  A) A  41 (  A) A
                   1.962       1.973        2.22       2.246       2.358
              42 (  A) A  43 (  A) A  44 (  A) A  45 (  A) A  46 (  A) A
                   2.422       2.491       2.621       2.676       2.796
              47 (  A) A  48 (  A) A
                    3.09       3.373
  Block   3:   9 (  A) B  10 (  A) B  11 (  A) B  12 (  A) B  13 (  A) B
                  0.1679      0.2023      0.2311      0.2362      0.3033
              14 (  A) B  15 (  A) B  16 (  A) B  17 (  A) B  18 (  A) B
                  0.4626      0.5791      0.6101      0.6886      0.7049
              19 (  A) B  20 (  A) B  21 (  A) B  22 (  A) B
                  0.7746      0.8073      0.8578       0.927
  Block   4:  23 (  A) B  24 (  A) B  25 (  A) B  26 (  A) B  27 (  A) B
                  0.9708       1.006        1.13        1.23       1.248
              28 (  A) B  29 (  A) B  30 (  A) B  31 (  A) B  32 (  A) B
                   1.262       1.291       1.592       1.726       1.743
              33 (  A) B  34 (  A) B  35 (  A) B  36 (  A) B
                    1.81       1.834       1.856       1.919
  Block   5:  37 (  A) B  38 (  A) B  39 (  A) B  40 (  A) B  41 (  A) B
                   1.962       1.973        2.22       2.246       2.358
              42 (  A) B  43 (  A) B  44 (  A) B  45 (  A) B  46 (  A) B
                   2.422       2.491       2.621       2.676       2.796
              47 (  A) B  48 (  A) B
                    3.09       3.373
  Import MO data ...  CPU 0.02 s  wall 0.01 s
  Import HF data ...  CPU 0.59 s  wall 0.20 s
  Import 2e integrals ...  CPU 1.32 s  wall 0.24 s

--------------------------------------------------------------------------------
                                   HF Summary                                   
--------------------------------------------------------------------------------
  Energy:                                                  -78.0390950795 a.u.
  Dip. moment [a.u.]:                  [   0.001215,    0.001269,    0.001097]
  Total dipole [Debye]:                                               0.005265
  <r^2> [a.u.]:                        [ 175.425113,   35.294806,   11.683607]
  Total <r^2> [a.u.]:                                               222.403526
--------------------------------------------------------------------------------
  HF properties ...  CPU 0.03 s  wall 0.02 s
  MP(1) calculation ...  CPU 0.01 s  wall 0.01 s
  N^6 prerequesite intermediates ...  CPU 0.79 s  wall 0.12 s
  Difference density matrix of state mp2_gs printed to ASCII file 'State_mp2_gs_Difference.txt'
Exporting MP density matrix to file 'Densmat_MP.txt'.
Export successful
  Total density matrix of state mp2_gs printed to ASCII file 'State_mp2_gs_Total.txt'
Exporting MP density matrix to file 'Densmat_MP.txt'.
Export successful

--------------------------------------------------------------------------------
                                 MP(2) Summary                                  
--------------------------------------------------------------------------------
  MP energy contribution:                                   -0.2805726832 a.u.
  Total energy:                                            -78.3196677627 a.u.
  Dip. moment [a.u.]:                  [  -0.000778,   -0.000828,    0.000863]
  Total dipole [Debye]:                                               0.003626
  <r^2> [a.u.]:                        [ 175.453292,   35.329781,   11.510887]
  Total <r^2> [a.u.]:                                               222.293959

  Density matrix analysis:
  ------------------------
  NOs
    Occupation of frontier NOs:
       0.0455   1.9380
    Number of electrons: 16.000000
    Number of unpaired electrons: n_u =  0.40758, n_u,nl =  0.04587
    NO participation ratio (PR_NO): 13.898894
  
  
  Mulliken Population Analysis
  Atom      Charge (e)              h+              e-           Del q
  --------------------------------------------------------------------
   1 H        0.055043        0.013852       -0.011366        0.002486
   2 C       -0.110223        0.094697       -0.099862       -0.005164
   3 H        0.055181        0.013959       -0.011281        0.002678
   4 C       -0.110229        0.094699       -0.099862       -0.005163
   5 H        0.055054        0.013852       -0.011366        0.002485
   6 H        0.055174        0.013959       -0.011281        0.002678
  --------------------------------------------------------------------
  Sum:        0.000000        0.245017       -0.245017       -0.000000
  
  Multipole moment analysis of the density matrix
    Molecular charge:                      0.000000
    Number of electrons:                   16.000000
      Center of electronic charge [Ang]: [ -1.558953,  -0.062774,   0.002261]
    Total nuclear charge:                  16.000000
      Center of nuclear charge [Ang]:    [ -1.558978,  -0.062801,   0.002289]
    Dipole moment [D]:                     0.003626
      Cartesian components [D]:          [ -0.001978,  -0.002104,   0.002192]
    RMS size of the density [Ang]:         1.206757
      Cartesian components [Ang]:        [  0.800257,   0.783833,   0.448838]
  
  Exciton analysis of the difference density matrix
    <r_h> [Ang]:                  [ -1.562011,  -0.065986,   0.001768]
    <r_e> [Ang]:                  [ -1.557705,  -0.061458,   0.002274]
    |<r_e - r_h>| [Ang]:            0.006269
    Hole size [Ang]:                1.402053
      Cartesian components [Ang]: [  0.853315,   0.840566,   0.728736]
    Electron size [Ang]:            1.361814
      Cartesian components [Ang]: [  0.879650,   0.864350,   0.577627]
--------------------------------------------------------------------------------
  MP(2) calculation ...  CPU 0.40 s  wall 0.21 s
  Start ADC(2)-s ...  CPU 0.02 s  wall 0.01 s
  ADC(2) intermediates ...  CPU 0.04 s  wall 0.01 s
  Starting Davidson for singlet states of irrep A ... 
--------------------------------------------------------------------------------
   It NVec Conv  Avg. Norm  Max. Norm  Conv. states           Remark
--------------------------------------------------------------------------------
        10    0  1.329e-01  4.685e-01  0.4107 n n n n n n n n Guess.
    1   20    0  2.314e-02  1.109e-01  0.3261 n n n n n n n n 
    2   30    0  5.858e-03  2.489e-02  0.3213 n n n n n n n n 
    3   40    0  1.768e-03  1.041e-02  0.3209 n n n n n n n n 
    4   50    0  5.078e-04  3.427e-03  0.3209 n n n n n n n n 
    5   20    0  2.642e-04  1.744e-03  0.3209 n n n n n n n n Subspace collapsed.
    6   30    0  1.125e-04  7.716e-04  0.3209 n n n n n n n n 
    7   40    0  8.332e-05  7.466e-04  0.3209 n n n n n n n n 
    8   50    0  3.701e-05  3.086e-04  0.3209 n n n n n n n n 
    9   20    0  2.007e-05  1.575e-04  0.3209 n n n n n n n n Subspace collapsed.
   10   30    4  1.675e-05  1.444e-04  0.3209 n n y y y y n n 
   11   40    6  7.658e-06  5.678e-05  0.3209 y y y y y y n n 
   12   50    6  3.814e-06  2.549e-05  0.3209 y y y y y y n n 
   13   20    6  1.943e-06  1.379e-05  0.3209 y y y y y y n n Subspace collapsed.
   14   30    6  1.487e-06  1.200e-05  0.3209 y y y y y y n n 
   15   40    6  7.525e-07  5.231e-06  0.3209 y y y y y y n n 
   16   50    6  4.394e-07  3.332e-06  0.3209 y y y y y y n n 
   17   20    8  2.775e-07  2.095e-06  0.3209 y y y y y y y y Subspace collapsed.
   18   30    8  2.906e-07  2.138e-06  0.3209 y y y y y y y y 
   19   40    8  2.832e-07  2.275e-06  0.3209 y y y y y y y y 
   20   50    9  1.767e-07  1.541e-06  0.3209 y y y y y y y y 
   21   20   10  7.798e-08  6.794e-07  0.3209 y y y y y y y y Converged.
--------------------------------------------------------------------------------
  Davidson Summary: 
 ------------------------------------------------------------
  State  0: excitation energy =   0.3209 a.u.   (converged)
  State  1: excitation energy =   0.3282 a.u.   (converged)
  State  2: excitation energy =   0.3352 a.u.   (converged)
  State  3: excitation energy =   0.3584 a.u.   (converged)
  State  4: excitation energy =   0.3732 a.u.   (converged)
  State  5: excitation energy =   0.3865 a.u.   (converged)
  State  6: excitation energy =   0.4189 a.u.   (converged)
  State  7: excitation energy =   0.4436 a.u.   (converged)
  State  8: excitation energy =   0.4538 a.u.   (converged)
  State  9: excitation energy =   0.4582 a.u.   (converged)
 ------------------------------------------------------------

  Singlet states of irrep A ...  CPU 155.11 s  wall 48.89 s
  TDMs ...  CPU 1.97 s  wall 0.82 s
  SDMs ...  CPU 6.29 s  wall 1.83 s
  Starting TPA DIIS iterations ... 
------------------------------------ 
   It     Res. Norm  Remark
------------------------------------
                       Guess.
    1     4.395e+00  
    2     5.831e+00  
    3     1.086e+00  
    4     2.627e-01  
    5     6.544e-02  
    6     2.767e-02  
    7     8.471e-03  
    8     1.559e-03  
    9     5.864e-04  
   10     9.850e-05  
   11     3.196e-05  
   12     4.928e-06  
   13     1.745e-06  
   14     4.959e-07  Converged.
   ... Converged in 14 steps (norm: 4.95945e-07)
------------------------------------
  Starting TPA DIIS iterations ... 
------------------------------------ 
   It     Res. Norm  Remark
------------------------------------
                       Guess.
    1     4.186e+00  
    2     5.542e+00  
    3     1.037e+00  
    4     2.609e-01  
    5     6.518e-02  
    6     2.767e-02  
    7     8.330e-03  
    8     1.579e-03  
    9     5.954e-04  
   10     9.798e-05  
   11     3.225e-05  
   12     4.894e-06  
   13     1.776e-06  
   14     4.905e-07  Converged.
   ... Converged in 14 steps (norm: 4.90536e-07)
------------------------------------
  Starting TPA DIIS iterations ... 
------------------------------------ 
   It     Res. Norm  Remark
------------------------------------
                       Guess.
    1     6.862e-01  
    2     4.805e-01  
    3     1.689e-01  
    4     6.370e-02  
    5     1.884e-02  
    6     6.823e-03  
    7     1.195e-03  
    8     4.690e-04  
    9     1.956e-04  
   10     3.758e-05  
   11     2.894e-05  
   12     7.806e-06  
   13     4.883e-06  
   14     2.091e-06  
   15     6.420e-07  Converged.
   ... Converged in 15 steps (norm: 6.41993e-07)
------------------------------------
  Starting TPA DIIS iterations ... 
------------------------------------ 
   It     Res. Norm  Remark
------------------------------------
                       Guess.
    1     4.570e+00  
    2     6.144e+00  
    3     1.136e+00  
    4     2.805e-01  
    5     7.049e-02  
    6     2.999e-02  
    7     9.169e-03  
    8     1.687e-03  
    9     6.373e-04  
   10     1.074e-04  
   11     3.507e-05  
   12     5.436e-06  
   13     1.940e-06  
   14     5.496e-07  Converged.
   ... Converged in 14 steps (norm: 5.49618e-07)
------------------------------------
  Starting TPA DIIS iterations ... 
------------------------------------ 
   It     Res. Norm  Remark
------------------------------------
                       Guess.
    1     4.352e+00  
    2     5.840e+00  
    3     1.084e+00  
    4     2.783e-01  
    5     7.021e-02  
    6     3.000e-02  
    7     9.017e-03  
    8     1.709e-03  
    9     6.473e-04  
   10     1.069e-04  
   11     3.538e-05  
   12     5.397e-06  
   13     1.976e-06  
   14     5.434e-07  Converged.
   ... Converged in 14 steps (norm: 5.43391e-07)
------------------------------------
  Starting TPA DIIS iterations ... 
------------------------------------ 
   It     Res. Norm  Remark
------------------------------------
                       Guess.
    1     6.937e-01  
    2     4.911e-01  
    3     1.748e-01  
    4     6.877e-02  
    5     1.974e-02  
    6     7.208e-03  
    7     1.289e-03  
    8     5.138e-04  
    9     2.158e-04  
   10     4.285e-05  
   11     3.220e-05  
   12     8.589e-06  
   13     5.622e-06  
   14     2.457e-06  
   15     7.431e-07  Converged.
   ... Converged in 15 steps (norm: 7.43068e-07)
------------------------------------
  Starting TPA DIIS iterations ... 
------------------------------------ 
   It     Res. Norm  Remark
------------------------------------
                       Guess.
    1     4.752e+00  
    2     6.473e+00  
    3     1.188e+00  
    4     2.994e-01  
    5     7.587e-02  
    6     3.247e-02  
    7     9.915e-03  
    8     1.823e-03  
    9     6.918e-04  
   10     1.170e-04  
   11     3.843e-05  
   12     5.988e-06  
   13     2.154e-06  
   14     6.082e-07  Converged.
   ... Converged in 14 steps (norm: 6.0821e-07)
------------------------------------
  Starting TPA DIIS iterations ... 
------------------------------------ 
   It     Res. Norm  Remark
------------------------------------
                       Guess.
    1     4.524e+00  
    2     6.152e+00  
    3     1.133e+00  
    4     2.970e-01  
    5     7.558e-02  
    6     3.249e-02  
    7     9.751e-03  
    8     1.848e-03  
    9     7.029e-04  
   10     1.164e-04  
   11     3.876e-05  
   12     5.942e-06  
   13     2.195e-06  
   14     6.011e-07  Converged.
   ... Converged in 14 steps (norm: 6.01109e-07)
------------------------------------
  Starting TPA DIIS iterations ... 
------------------------------------ 
   It     Res. Norm  Remark
------------------------------------
                       Guess.
    1     7.011e-01  
    2     5.018e-01  
    3     1.809e-01  
    4     7.424e-02  
    5     2.066e-02  
    6     7.618e-03  
    7     1.391e-03  
    8     5.621e-04  
    9     2.375e-04  
   10     4.883e-05  
   11     3.578e-05  
   12     9.478e-06  
   13     6.467e-06  
   14     2.887e-06  
   15     8.526e-07  Converged.
   ... Converged in 15 steps (norm: 8.52603e-07)
------------------------------------
  Starting TPA DIIS iterations ... 
------------------------------------ 
   It     Res. Norm  Remark
------------------------------------
                       Guess.
    1     5.437e+00  
    2     7.747e+00  
    3     1.382e+00  
    4     3.753e-01  
    5     9.743e-02  
    6     4.252e-02  
    7     1.291e-02  
    8     2.370e-03  
    9     9.127e-04  
   10     1.559e-04  
   11     5.237e-05  
   12     8.274e-06  
   13     3.073e-06  
   14     8.573e-07  Converged.
   ... Converged in 14 steps (norm: 8.57299e-07)
------------------------------------
  Starting TPA DIIS iterations ... 
------------------------------------ 
   It     Res. Norm  Remark
------------------------------------
                       Guess.
    1     5.174e+00  
    2     7.362e+00  
    3     1.318e+00  
    4     3.715e-01  
    5     9.708e-02  
    6     4.260e-02  
    7     1.270e-02  
    8     2.407e-03  
    9     9.283e-04  
   10     1.551e-04  
   11     5.275e-05  
   12     8.197e-06  
   13     3.140e-06  
   14     8.470e-07  Converged.
   ... Converged in 14 steps (norm: 8.4698e-07)
------------------------------------
  Starting TPA DIIS iterations ... 
------------------------------------ 
   It     Res. Norm  Remark
------------------------------------
                       Guess.
    1     7.265e-01  
    2     5.402e-01  
    3     2.034e-01  
    4     9.679e-02  
    5     2.410e-02  
    6     9.257e-03  
    7     1.813e-03  
    8     7.548e-04  
    9     3.252e-04  
   10     7.581e-05  
   11     5.139e-05  
   12     1.372e-05  
   13     1.047e-05  
   14     4.968e-06  
   15     1.308e-06  
   16     5.987e-07  Converged.
   ... Converged in 16 steps (norm: 5.98719e-07)
------------------------------------
  Starting TPA DIIS iterations ... 
------------------------------------ 
   It     Res. Norm  Remark
------------------------------------
                       Guess.
    1     5.965e+00  
    2     8.763e+00  
    3     1.530e+00  
    4     4.382e-01  
    5     1.153e-01  
    6     5.096e-02  
    7     1.539e-02  
    8     2.822e-03  
    9     1.098e-03  
   10     1.886e-04  
   11     6.432e-05  
   12     1.023e-05  
   13     3.898e-06  
   14     1.082e-06  
   15     5.035e-07  Converged.
   ... Converged in 15 steps (norm: 5.03496e-07)
------------------------------------
  Starting TPA DIIS iterations ... 
------------------------------------ 
   It     Res. Norm  Remark
------------------------------------
                       Guess.
    1     5.675e+00  
    2     8.326e+00  
    3     1.459e+00  
    4     4.333e-01  
    5     1.149e-01  
    6     5.111e-02  
    7     1.515e-02  
    8     2.870e-03  
    9     1.117e-03  
   10     1.877e-04  
   11     6.472e-05  
   12     1.013e-05  
   13     3.989e-06  
   14     1.070e-06  
   15     5.218e-07  Converged.
   ... Converged in 15 steps (norm: 5.21768e-07)
------------------------------------
  Starting TPA DIIS iterations ... 
------------------------------------ 
   It     Res. Norm  Remark
------------------------------------
                       Guess.
    1     7.438e-01  
    2     5.679e-01  
    3     2.202e-01  
    4     1.160e-01  
    5     2.680e-02  
    6     1.062e-02  
    7     2.176e-03  
    8     9.058e-04  
    9     3.975e-04  
   10     1.008e-04  
   11     6.581e-05  
   12     1.819e-05  
   13     1.463e-05  
   14     7.052e-06  
   15     1.733e-06  
   16     7.929e-07  Converged.
   ... Converged in 16 steps (norm: 7.92916e-07)
------------------------------------
  Starting TPA DIIS iterations ... 
------------------------------------ 
   It     Res. Norm  Remark
------------------------------------
                       Guess.
    1     6.513e+00  
    2     9.846e+00  
    3     1.683e+00  
    4     5.074e-01  
    5     1.349e-01  
    6     6.034e-02  
    7     1.812e-02  
    8     3.318e-03  
    9     1.304e-03  
   10     2.249e-04  
   11     7.768e-05  
   12     1.243e-05  
   13     4.857e-06  
   14     1.350e-06  
   15     6.669e-07  Converged.
   ... Converged in 15 steps (norm: 6.66925e-07)
------------------------------------
  Starting TPA DIIS iterations ... 
------------------------------------ 
   It     Res. Norm  Remark
------------------------------------
                       Guess.
    1     6.195e+00  
    2     9.355e+00  
    3     1.604e+00  
    4     5.010e-01  
    5     1.345e-01  
    6     6.055e-02  
    7     1.784e-02  
    8     3.379e-03  
    9     1.327e-03  
   10     2.238e-04  
   11     7.809e-05  
   12     1.229e-05  
   13     4.978e-06  
   14     1.337e-06  
   15     6.934e-07  Converged.
   ... Converged in 15 steps (norm: 6.93352e-07)
------------------------------------
  Starting TPA DIIS iterations ... 
------------------------------------ 
   It     Res. Norm  Remark
------------------------------------
                       Guess.
    1     7.600e-01  
    2     5.951e-01  
    3     2.371e-01  
    4     1.374e-01  
    5     2.967e-02  
    6     1.211e-02  
    7     2.588e-03  
    8     1.057e-03  
    9     4.755e-04  
   10     1.300e-04  
   11     8.311e-05  
   12     2.416e-05  
   13     2.019e-05  
   14     9.626e-06  
   15     2.300e-06  
   16     1.026e-06  
   17     3.906e-07  Converged.
   ... Converged in 17 steps (norm: 3.90551e-07)
------------------------------------
  Starting TPA DIIS iterations ... 
------------------------------------ 
   It     Res. Norm  Remark
------------------------------------
                       Guess.
    1     8.252e+00  
    2     1.346e+01  
    3     2.162e+00  
    4     7.486e-01  
    5     2.034e-01  
    6     9.369e-02  
    7     2.767e-02  
    8     5.048e-03  
    9     2.033e-03  
   10     3.532e-04  
   11     1.248e-04  
   12     2.025e-05  
   13     8.507e-06  
   14     2.492e-06  
   15     1.405e-06  
   16     5.339e-07  Converged.
   ... Converged in 16 steps (norm: 5.3388e-07)
------------------------------------
  Starting TPA DIIS iterations ... 
------------------------------------ 
   It     Res. Norm  Remark
------------------------------------
                       Guess.
    1     7.846e+00  
    2     1.279e+01  
    3     2.059e+00  
    4     7.364e-01  
    5     2.028e-01  
    6     9.421e-02  
    7     2.725e-02  
    8     5.154e-03  
    9     2.071e-03  
   10     3.515e-04  
   11     1.252e-04  
   12     1.998e-05  
   13     8.765e-06  
   14     2.495e-06  
   15     1.469e-06  
   16     5.744e-07  Converged.
   ... Converged in 16 steps (norm: 5.74416e-07)
------------------------------------
  Starting TPA DIIS iterations ... 
------------------------------------ 
   It     Res. Norm  Remark
------------------------------------
                       Guess.
    1     8.030e-01  
    2     6.734e-01  
    3     2.879e-01  
    4     2.120e-01  
    5     3.939e-02  
    6     1.728e-02  
    7     4.094e-03  
    8     1.463e-03  
    9     7.374e-04  
   10     2.400e-04  
   11     1.538e-04  
   12     5.325e-05  
   13     4.701e-05  
   14     2.041e-05  
   15     5.407e-06  
   16     1.938e-06  
   17     6.892e-07  Converged.
   ... Converged in 17 steps (norm: 6.89161e-07)
------------------------------------
  Starting TPA DIIS iterations ... 
------------------------------------ 
   It     Res. Norm  Remark
------------------------------------
                       Guess.
    1     1.014e+01  
    2     1.766e+01  
    3     2.669e+00  
    4     1.040e+00  
    5     2.868e-01  
    6     1.353e-01  
    7     3.932e-02  
    8     7.152e-03  
    9     2.939e-03  
   10     5.116e-04  
   11     1.807e-04  
   12     3.008e-05  
   13     1.347e-05  
   14     4.397e-06  
   15     2.693e-06  
   16     1.230e-06  
   17     8.359e-07  Converged.
   ... Converged in 17 steps (norm: 8.35904e-07)
------------------------------------
  Starting TPA DIIS iterations ... 
------------------------------------ 
   It     Res. Norm  Remark
------------------------------------
                       Guess.
    1     9.640e+00  
    2     1.678e+01  
    3     2.541e+00  
    4     1.020e+00  
    5     2.860e-01  
    6     1.363e-01  
    7     3.874e-02  
    8     7.318e-03  
    9     2.995e-03  
   10     5.089e-04  
   11     1.813e-04  
   12     2.964e-05  
   13     1.397e-05  
   14     4.448e-06  
   15     2.816e-06  
   16     1.303e-06  
   17     8.511e-07  Converged.
   ... Converged in 17 steps (norm: 8.51069e-07)
------------------------------------
  Starting TPA DIIS iterations ... 
------------------------------------ 
   It     Res. Norm  Remark
------------------------------------
                       Guess.
    1     8.396e-01  
    2     7.486e-01  
    3     3.392e-01  
    4     2.964e-01  
    5     5.080e-02  
    6     2.327e-02  
    7     5.978e-03  
    8     1.806e-03  
    9     1.043e-03  
   10     3.816e-04  
   11     2.567e-04  
   12     1.004e-04  
   13     8.666e-05  
   14     3.665e-05  
   15     1.143e-05  
   16     3.276e-06  
   17     1.137e-06  
   18     5.657e-07  Converged.
   ... Converged in 18 steps (norm: 5.65678e-07)
------------------------------------
  Starting TPA DIIS iterations ... 
------------------------------------ 
   It     Res. Norm  Remark
------------------------------------
                       Guess.
    1     1.113e+01  
    2     1.996e+01  
    3     2.929e+00  
    4     1.202e+00  
    5     3.336e-01  
    6     1.591e-01  
    7     4.586e-02  
    8     8.331e-03  
    9     3.453e-03  
   10     6.007e-04  
   11     2.110e-04  
   12     3.581e-05  
   13     1.656e-05  
   14     5.714e-06  
   15     3.635e-06  
   16     1.772e-06  
   17     1.130e-06  
   18     4.954e-07  Converged.
   ... Converged in 18 steps (norm: 4.95353e-07)
------------------------------------
  Starting TPA DIIS iterations ... 
------------------------------------ 
   It     Res. Norm  Remark
------------------------------------
                       Guess.
    1     1.058e+01  
    2     1.896e+01  
    3     2.788e+00  
    4     1.177e+00  
    5     3.327e-01  
    6     1.602e-01  
    7     4.519e-02  
    8     8.533e-03  
    9     3.520e-03  
   10     5.975e-04  
   11     2.119e-04  
   12     3.529e-05  
   13     1.720e-05  
   14     5.793e-06  
   15     3.796e-06  
   16     1.847e-06  
   17     1.134e-06  
   18     5.110e-07  Converged.
   ... Converged in 18 steps (norm: 5.11027e-07)
------------------------------------
  Starting TPA DIIS iterations ... 
------------------------------------ 
   It     Res. Norm  Remark
------------------------------------
                       Guess.
    1     8.560e-01  
    2     7.850e-01  
    3     3.648e-01  
    4     3.387e-01  
    5     5.702e-02  
    6     2.639e-02  
    7     7.027e-03  
    8     1.977e-03  
    9     1.212e-03  
   10     4.625e-04  
   11     3.203e-04  
   12     1.301e-04  
   13     1.080e-04  
   14     4.703e-05  
   15     1.570e-05  
   16     4.181e-06  
   17     1.461e-06  
   18     8.184e-07  Converged.
   ... Converged in 18 steps (norm: 8.1845e-07)
------------------------------------
  Starting TPA DIIS iterations ... 
------------------------------------ 
   It     Res. Norm  Remark
------------------------------------
                       Guess.
    1     1.160e+01  
    2     2.108e+01  
    3     3.051e+00  
    4     1.280e+00  
    5     3.565e-01  
    6     1.707e-01  
    7     4.906e-02  
    8     8.907e-03  
    9     3.706e-03  
   10     6.444e-04  
   11     2.257e-04  
   12     3.868e-05  
   13     1.816e-05  
   14     6.416e-06  
   15     4.156e-06  
   16     2.076e-06  
   17     1.285e-06  
   18     5.822e-07  Converged.
   ... Converged in 18 steps (norm: 5.82224e-07)
------------------------------------
  Starting TPA DIIS iterations ... 
------------------------------------ 
   It     Res. Norm  Remark
------------------------------------
                       Guess.
    1     1.102e+01  
    2     2.002e+01  
    3     2.904e+00  
    4     1.253e+00  
    5     3.556e-01  
    6     1.721e-01  
    7     4.834e-02  
    8     9.127e-03  
    9     3.778e-03  
   10     6.408e-04  
   11     2.268e-04  
   12     3.812e-05  
   13     1.887e-05  
   14     6.508e-06  
   15     4.334e-06  
   16     2.147e-06  
   17     1.281e-06  
   18     5.964e-07  Converged.
   ... Converged in 18 steps (norm: 5.96398e-07)
------------------------------------
  Starting TPA DIIS iterations ... 
------------------------------------ 
   It     Res. Norm  Remark
------------------------------------
                       Guess.
    1     8.632e-01  
    2     8.017e-01  
    3     3.766e-01  
    4     3.580e-01  
    5     6.002e-02  
    6     2.784e-02  
    7     7.535e-03  
    8     2.062e-03  
    9     1.294e-03  
   10     5.022e-04  
   11     3.528e-04  
   12     1.452e-04  
   13     1.177e-04  
   14     5.242e-05  
   15     1.799e-05  
   16     4.681e-06  
   17     1.649e-06  
   18     9.537e-07  Converged.
   ... Converged in 18 steps (norm: 9.53745e-07)
------------------------------------
  Two-photon absorbption ...  CPU 165.79 s  wall 45.72 s
  Transition density matrix of state singlet_A_1 printed to ASCII file 'State_singlet_A_1_Transition.txt'
  Transition density matrix of state singlet_A_2 printed to ASCII file 'State_singlet_A_2_Transition.txt'
  Transition density matrix of state singlet_A_3 printed to ASCII file 'State_singlet_A_3_Transition.txt'
  Transition density matrix of state singlet_A_4 printed to ASCII file 'State_singlet_A_4_Transition.txt'
  Transition density matrix of state singlet_A_5 printed to ASCII file 'State_singlet_A_5_Transition.txt'
  Transition density matrix of state singlet_A_6 printed to ASCII file 'State_singlet_A_6_Transition.txt'
  Transition density matrix of state singlet_A_7 printed to ASCII file 'State_singlet_A_7_Transition.txt'
  Transition density matrix of state singlet_A_8 printed to ASCII file 'State_singlet_A_8_Transition.txt'
  Transition density matrix of state singlet_A_9 printed to ASCII file 'State_singlet_A_9_Transition.txt'
  Transition density matrix of state singlet_A_10 printed to ASCII file 'State_singlet_A_10_Transition.txt'
  Transition properties ...  CPU 0.35 s  wall 0.70 s
  Difference density matrix of state singlet_A_1 printed to ASCII file 'State_singlet_A_1_Difference.txt'
  Total density matrix of state singlet_A_1 printed to ASCII file 'State_singlet_A_1_Total.txt'
  Difference density matrix of state singlet_A_2 printed to ASCII file 'State_singlet_A_2_Difference.txt'
  Total density matrix of state singlet_A_2 printed to ASCII file 'State_singlet_A_2_Total.txt'
  Difference density matrix of state singlet_A_3 printed to ASCII file 'State_singlet_A_3_Difference.txt'
  Total density matrix of state singlet_A_3 printed to ASCII file 'State_singlet_A_3_Total.txt'
  Difference density matrix of state singlet_A_4 printed to ASCII file 'State_singlet_A_4_Difference.txt'
  Total density matrix of state singlet_A_4 printed to ASCII file 'State_singlet_A_4_Total.txt'
  Difference density matrix of state singlet_A_5 printed to ASCII file 'State_singlet_A_5_Difference.txt'
  Total density matrix of state singlet_A_5 printed to ASCII file 'State_singlet_A_5_Total.txt'
  Difference density matrix of state singlet_A_6 printed to ASCII file 'State_singlet_A_6_Difference.txt'
  Total density matrix of state singlet_A_6 printed to ASCII file 'State_singlet_A_6_Total.txt'
  Difference density matrix of state singlet_A_7 printed to ASCII file 'State_singlet_A_7_Difference.txt'
  Total density matrix of state singlet_A_7 printed to ASCII file 'State_singlet_A_7_Total.txt'
  Difference density matrix of state singlet_A_8 printed to ASCII file 'State_singlet_A_8_Difference.txt'
  Total density matrix of state singlet_A_8 printed to ASCII file 'State_singlet_A_8_Total.txt'
  Difference density matrix of state singlet_A_9 printed to ASCII file 'State_singlet_A_9_Difference.txt'
  Total density matrix of state singlet_A_9 printed to ASCII file 'State_singlet_A_9_Total.txt'
  Difference density matrix of state singlet_A_10 printed to ASCII file 'State_singlet_A_10_Difference.txt'
  Total density matrix of state singlet_A_10 printed to ASCII file 'State_singlet_A_10_Total.txt'
  Properties ...  CPU 0.66 s  wall 1.43 s
  ISR TDMS ...  CPU 30.73 s  wall 9.57 s
  ISR transition properties ...  CPU 0.49 s  wall 0.24 s
  Sum-over-states TPA ...  CPU 0.00 s  wall 0.00 s

--------------------------------------------------------------------------------
                   State-averaged natural transition orbitals
--------------------------------------------------------------------------------
--------------------------------------------------------------------------------
  SA-NTO decomposition ...  CPU 0.01 s  wall 0.03 s

--------------------------------------------------------------------------------
                             Excited State Summary
--------------------------------------------------------------------------------
--------------------------------------------------------------------------------

  Excited state 1 (singlet, A)                                     [converged]
  ----------------------------------------------------------------------------
  Term symbol:  2 (1) A                                     R^2 =  2.92358e-11

  Total energy:                                            -77.9987687047 a.u.
  Excitation energy:                                               8.732107 eV

  Osc. strength:                                                      0.446173
  Trans. dip. moment [a.u.]:           [  -1.047124,    0.994492,    0.009722]
  <i|r^2|0> [a.u.]:                    [  -6.189262,    0.255399,    0.000076]
  Two-photon absorption cross-section (SoS) [a.u.]:                   0.054364
  Two-photon absorption matrix (SoS) [a.u.]:
                                       |   -0.082129   -0.004240   -0.003101 |
                                       |   -0.004240    0.082213    0.003979 |
                                       |   -0.003101    0.003979    0.000108 |
  Two-photon absorption cross-section [a.u.]:                         0.142347
  Two-photon absorption matrix [a.u.]:
                                       |   -0.133018   -0.006796   -0.005250 |
                                       |   -0.006796    0.132963    0.005758 |
                                       |   -0.005250    0.005758    0.000064 |

  Dip. moment [a.u.]:                  [  -0.003054,   -0.003225,    0.000816]
  Total dipole [Debye]:                                               0.011479
  <r^2> [a.u.]:                        [ 176.186992,   36.015952,   11.921685]
  Total <r^2> [a.u.]:                                               224.124629

  V1^2 = 0.9713, V2^2 = 0.0287

  Important amplitudes:
      occ i     occ j     vir a      vir b          v   
    -----------------------------------------------------
     8 (A) A              9 (A) A                 0.6808
     6 (A) A             14 (A) A                 0.0617
     4 (A) A             10 (A) A                -0.0612
     7 (A) A             16 (A) A                 0.0565
     5 (A) A             13 (A) A                 0.0523
     6 (A) A             23 (A) A                 0.0474
     8 (A) A             20 (A) A                 0.0349
     6 (A) A             19 (A) A                -0.0302
     3 (A) A             12 (A) A                 0.0285
     5 (A) A             22 (A) A                -0.0210
     4 (A) A             24 (A) A                -0.0188
     8 (A) A   8 (A) B   17 (A) A   20 (A) B     -0.0184
     7 (A) A             11 (A) A                 0.0180
     8 (A) A   8 (A) B    9 (A) A   28 (A) B     -0.0168
     7 (A) A             21 (A) A                 0.0154
     3 (A) A             26 (A) A                -0.0151
     6 (A) A             26 (A) A                -0.0147
     3 (A) A             14 (A) A                 0.0143
     6 (A) A             12 (A) A                -0.0132
     3 (A) A   4 (A) B    9 (A) A    9 (A) B      0.0129
     3 (A) A             19 (A) A                -0.0121
     8 (A) A   8 (A) B   18 (A) A   19 (A) B      0.0110
     3 (A) A             27 (A) A                 0.0110
     7 (A) A             15 (A) A                 0.0103
     7 (A) A             10 (A) A                -0.0101
     7 (A) A             32 (A) A                 0.0095
     6 (A) A             22 (A) A                -0.0085
     3 (A) A             23 (A) A                 0.0081
     6 (A) A             27 (A) A                 0.0078
     8 (A) A   8 (A) B   25 (A) A   29 (A) B      0.0076
     6 (A) A             13 (A) A                 0.0075
     7 (A) A             36 (A) A                -0.0073
     6 (A) A             35 (A) A                -0.0071
     5 (A) A             23 (A) A                -0.0067
     6 (A) A             40 (A) A                -0.0066
     3 (A) A   6 (A) B    9 (A) A   28 (A) B     -0.0064
     5 (A) A   8 (A) B   11 (A) A    9 (A) B      0.0061
     7 (A) A   8 (A) B   13 (A) A   20 (A) B     -0.0060
     5 (A) A   8 (A) B   11 (A) A   20 (A) B     -0.0060
     5 (A) A   7 (A) B    9 (A) A    9 (A) B     -0.0060
    -----------------------------------------------------

  Density matrix analysis:
  ------------------------
  NOs
    Occupation of frontier NOs:
       0.9488   1.0222
    Number of electrons: 16.000000
    Number of unpaired electrons: n_u =  2.31705, n_u,nl =  2.03341
    NO participation ratio (PR_NO):  2.876005
  
  
  Mulliken Population Analysis
  Atom      Charge (e)              h+              e-           Del q
  --------------------------------------------------------------------
   1 H        0.063085        0.020351       -0.012309        0.008042
   2 C       -0.126184        0.490583       -0.506544       -0.015962
   3 H        0.063101        0.020568       -0.012648        0.007920
   4 C       -0.126190        0.490583       -0.506544       -0.015961
   5 H        0.063097        0.020352       -0.012309        0.008043
   6 H        0.063092        0.020566       -0.012648        0.007918
  --------------------------------------------------------------------
  Sum:       -0.000000        1.063003       -1.063003       -0.000000
  
  Multipole moment analysis of the density matrix
    Molecular charge:                      0.000000
    Number of electrons:                   16.000000
      Center of electronic charge [Ang]: [ -1.558877,  -0.062694,   0.002263]
    Total nuclear charge:                  16.000000
      Center of nuclear charge [Ang]:    [ -1.558978,  -0.062801,   0.002289]
    Dipole moment [D]:                     0.011479
      Cartesian components [D]:          [ -0.007763,  -0.008198,   0.002073]
    RMS size of the density [Ang]:         1.220060
      Cartesian components [Ang]:        [  0.808386,   0.791462,   0.456777]
  
  Exciton analysis of the difference density matrix
    <r_h> [Ang]:                  [ -1.556299,  -0.059978,   0.002087]
    <r_e> [Ang]:                  [ -1.555166,  -0.058784,   0.002110]
    |<r_e - r_h>| [Ang]:            0.001646
    Hole size [Ang]:                1.287420
      Cartesian components [Ang]: [  0.730318,   0.714931,   0.782917]
    Electron size [Ang]:            1.464026
      Cartesian components [Ang]: [  0.854499,   0.831882,   0.849221]

  Transition density matrix analysis:
  -----------------------------------
  
  CT numbers (Mulliken)
    omega =     0.9531
    <Phe> =    -0.1601
  
  Exciton analysis of the transition density matrix
    Trans. dipole moment [D]:             1.835335
      Cartesian components [D]:         [ -1.330762,   1.263874,   0.012355]
    <r_h> [Ang]:                        [ -1.555702,  -0.059351,   0.002245]
    <r_e> [Ang]:                        [ -1.555419,  -0.059050,   0.002002]
    |<r_e - r_h>| [Ang]:                  0.000480
    Hole size [Ang]:                      1.214410
      Cartesian components [Ang]:       [  0.649994,   0.637139,   0.803962]
    Electron size [Ang]:                  1.486856
      Cartesian components [Ang]:       [  0.864926,   0.840719,   0.869388]
    RMS electron-hole separation [Ang]:   1.937073
      Cartesian components [Ang]:       [  1.106759,   1.076277,   1.170027]
    Covariance(r_h, r_e) [Ang^2]:        -0.033359
    Correlation coefficient:             -0.018475
    Center-of-mass size [Ang]:            0.951159
      Cartesian components [Ang]:       [  0.528267,   0.516512,   0.599044]

  Decomposition into state-averaged NTOs
    H- 0 -> L+ 0:  0.6696 ( 89.7%)
    H- 2 -> L+ 5:  0.0829 (  1.4%)
                   omega =  95.3%
  ----------------------------------------------------------------------------


  Excited state 2 (singlet, A)                                     [converged]
  ----------------------------------------------------------------------------
  Term symbol:  3 (1) A                                     R^2 =  7.43345e-11

  Total energy:                                            -77.9914938135 a.u.
  Excitation energy:                                               8.930067 eV

  Osc. strength:                                                      0.000918
  Trans. dip. moment [a.u.]:           [   0.002864,    0.005073,   -0.064508]
  <i|r^2|0> [a.u.]:                    [   0.081663,    0.086537,   -0.149858]
  Two-photon absorption cross-section (SoS) [a.u.]:                   5.587177
  Two-photon absorption matrix (SoS) [a.u.]:
                                       |    0.055323    0.063256   -0.569172 |
                                       |    0.063256    0.072255   -0.598588 |
                                       |   -0.569172   -0.598588   -0.126410 |
  Two-photon absorption cross-section [a.u.]:                         0.055972
  Two-photon absorption matrix [a.u.]:
                                       |   -0.004210   -0.006543    0.056978 |
                                       |   -0.006543   -0.007673    0.059811 |
                                       |    0.056978    0.059811    0.013482 |

  Dip. moment [a.u.]:                  [   0.066364,    0.069838,    0.009419]
  Total dipole [Debye]:                                               0.246041
  <r^2> [a.u.]:                        [ 175.188267,   34.645912,   13.117841]
  Total <r^2> [a.u.]:                                               222.952021

  V1^2 = 0.9543, V2^2 = 0.0457

  Important amplitudes:
      occ i     occ j     vir a      vir b          v   
    -----------------------------------------------------
     7 (A) A              9 (A) A                -0.6543
     8 (A) A             11 (A) A                -0.1521
     8 (A) A             10 (A) A                 0.1368
     7 (A) A             20 (A) A                -0.0741
     5 (A) A   8 (A) B    9 (A) A    9 (A) B      0.0306
     8 (A) A             16 (A) A                 0.0275
     8 (A) A             21 (A) A                -0.0194
     5 (A) A             28 (A) A                 0.0146
     4 (A) A   7 (A) B    9 (A) A   19 (A) B      0.0133
     5 (A) A   7 (A) B    9 (A) A   16 (A) B     -0.0129
     7 (A) A   8 (A) B   20 (A) A   17 (A) B      0.0103
     7 (A) A   8 (A) A    9 (A) A   28 (A) A     -0.0096
     5 (A) A   8 (A) B    9 (A) A   20 (A) B      0.0092
     8 (A) A             18 (A) A                -0.0088
     5 (A) A   6 (A) A    9 (A) A   23 (A) A     -0.0087
     5 (A) A   6 (A) A    9 (A) A   14 (A) A     -0.0087
     4 (A) A   6 (A) B    9 (A) A   16 (A) B     -0.0086
     6 (A) A   7 (A) B    9 (A) A   18 (A) B      0.0084
     8 (A) A   7 (A) B    9 (A) A   28 (A) B      0.0084
     5 (A) A   6 (A) B    9 (A) A   19 (A) B      0.0083
     8 (A) A             15 (A) A                 0.0083
     4 (A) A   5 (A) A    9 (A) A   10 (A) A     -0.0082
     8 (A) A             24 (A) A                 0.0081
     3 (A) A   7 (A) B    9 (A) A   18 (A) B     -0.0078
     5 (A) A   7 (A) A    9 (A) A   16 (A) A     -0.0076
     5 (A) A   6 (A) B    9 (A) A   23 (A) B     -0.0076
     4 (A) A   8 (A) B    9 (A) A   25 (A) B     -0.0075
     4 (A) A   7 (A) B   19 (A) A    9 (A) B      0.0073
     7 (A) A   8 (A) B   17 (A) A   20 (A) B      0.0073
     5 (A) A   5 (A) B    9 (A) A   13 (A) B     -0.0070
     7 (A) A   8 (A) B   19 (A) A   18 (A) B     -0.0069
     5 (A) A   8 (A) A    9 (A) A   20 (A) A      0.0066
     4 (A) A   5 (A) B    9 (A) A   18 (A) B      0.0066
     7 (A) A   7 (A) B   20 (A) A   22 (A) B     -0.0064
     7 (A) A   8 (A) B   17 (A) A    9 (A) B      0.0063
     5 (A) A   6 (A) B    9 (A) A   14 (A) B     -0.0061
     5 (A) A   7 (A) B   11 (A) A   20 (A) B      0.0060
     4 (A) A   5 (A) B   10 (A) A    9 (A) B      0.0060
     4 (A) A   7 (A) A    9 (A) A   19 (A) A      0.0060
     6 (A) A   7 (A) B   18 (A) A    9 (A) B      0.0058
    -----------------------------------------------------

  Density matrix analysis:
  ------------------------
  NOs
    Occupation of frontier NOs:
       0.9166   1.0934
    Number of electrons: 16.000000
    Number of unpaired electrons: n_u =  2.35844, n_u,nl =  2.09519
    NO participation ratio (PR_NO):  3.277124
  
  
  Mulliken Population Analysis
  Atom      Charge (e)              h+              e-           Del q
  --------------------------------------------------------------------
   1 H        0.157649        0.112456       -0.009851        0.102605
   2 C       -0.284961        0.273430       -0.448168       -0.174738
   3 H        0.127306        0.129103       -0.056978        0.072125
   4 C       -0.284965        0.273439       -0.448175       -0.174735
   5 H        0.157643        0.112441       -0.009852        0.102589
   6 H        0.127328        0.129125       -0.056971        0.072155
  --------------------------------------------------------------------
  Sum:       -0.000000        1.029994       -1.029994       -0.000000
  
  Multipole moment analysis of the density matrix
    Molecular charge:                      0.000000
    Number of electrons:                   16.000000
      Center of electronic charge [Ang]: [ -1.561173,  -0.065111,   0.001978]
    Total nuclear charge:                  16.000000
      Center of nuclear charge [Ang]:    [ -1.558978,  -0.062801,   0.002289]
    Dipole moment [D]:                     0.246041
      Cartesian components [D]:          [  0.168680,   0.177511,   0.023941]
    RMS size of the density [Ang]:         1.208533
      Cartesian components [Ang]:        [  0.792997,   0.775968,   0.479147]
  
  Exciton analysis of the difference density matrix
    <r_h> [Ang]:                  [ -1.587648,  -0.092939,  -0.000817]
    <r_e> [Ang]:                  [ -1.622143,  -0.129244,  -0.005213]
    |<r_e - r_h>| [Ang]:            0.050273
    Hole size [Ang]:                1.494471
      Cartesian components [Ang]: [  1.007139,   0.994685,   0.479286]
    Electron size [Ang]:            1.514443
      Cartesian components [Ang]: [  0.911895,   0.891856,   0.816442]

  Transition density matrix analysis:
  -----------------------------------
  
  CT numbers (Mulliken)
    omega =     0.9215
    <Phe> =    -0.0110
  
  Exciton analysis of the transition density matrix
    Trans. dipole moment [D]:             0.082315
      Cartesian components [D]:         [  0.003640,   0.006448,  -0.081981]
    <r_h> [Ang]:                        [ -1.588862,  -0.094214,  -0.000828]
    <r_e> [Ang]:                        [ -1.622744,  -0.129880,  -0.005409]
    |<r_e - r_h>| [Ang]:                  0.049407
    Hole size [Ang]:                      1.514599
      Cartesian components [Ang]:       [  1.024462,   1.011839,   0.469756]
    Electron size [Ang]:                  1.512463
      Cartesian components [Ang]:       [  0.904999,   0.884297,   0.828577]
    RMS electron-hole separation [Ang]:   2.124058
      Cartesian components [Ang]:       [  1.353644,   1.331761,   0.951674]
    Covariance(r_h, r_e) [Ang^2]:         0.036186
    Correlation coefficient:              0.015796
    Center-of-mass size [Ang]:            1.078648
      Cartesian components [Ang]:       [  0.690269,   0.678101,   0.476644]

  Decomposition into state-averaged NTOs
    H- 1 -> L+ 0:  0.6467 ( 83.6%)
    H- 0 -> L+ 1:  0.1675 (  5.6%)
    H- 0 -> L+ 2:  0.1154 (  2.7%)
                   omega =  92.2%
  ----------------------------------------------------------------------------


  Excited state 3 (singlet, A)                                     [converged]
  ----------------------------------------------------------------------------
  Term symbol:  4 (1) A                                     R^2 =  6.74444e-12

  Total energy:                                            -77.9844191868 a.u.
  Excitation energy:                                               9.122578 eV

  Osc. strength:                                                      0.021591
  Trans. dip. moment [a.u.]:           [   0.014775,    0.018611,   -0.309900]
  <i|r^2|0> [a.u.]:                    [   0.076249,   -0.010181,    0.027129]
  Two-photon absorption cross-section (SoS) [a.u.]:                   3.323607
  Two-photon absorption matrix (SoS) [a.u.]:
                                       |    0.045652    0.048690   -0.439353 |
                                       |    0.048690    0.056103   -0.461870 |
                                       |   -0.439353   -0.461870   -0.090293 |
  Two-photon absorption cross-section [a.u.]:                         2.505134
  Two-photon absorption matrix [a.u.]:
                                       |    0.042649    0.040966   -0.381199 |
                                       |    0.040966    0.052061   -0.400743 |
                                       |   -0.381199   -0.400743   -0.080514 |

  Dip. moment [a.u.]:                  [   0.389772,    0.410048,    0.042396]
  Total dipole [Debye]:                                               1.442000
  <r^2> [a.u.]:                        [ 182.918344,   40.740372,   11.152627]
  Total <r^2> [a.u.]:                                               234.811343

  V1^2 = 0.9580, V2^2 = 0.0420

  Important amplitudes:
      occ i     occ j     vir a      vir b          v   
    -----------------------------------------------------
     8 (A) A             10 (A) A                 0.6719
     7 (A) A              9 (A) A                 0.1471
     8 (A) A             24 (A) A                 0.0488
     8 (A) A             18 (A) A                -0.0325
     8 (A) A             11 (A) A                -0.0324
     4 (A) A              9 (A) A                -0.0242
     8 (A) A   8 (A) B    9 (A) A   12 (A) B      0.0213
     8 (A) A   8 (A) B   10 (A) A   17 (A) B      0.0167
     5 (A) A   8 (A) B   11 (A) A   10 (A) B      0.0162
     7 (A) A             20 (A) A                 0.0159
     8 (A) A             15 (A) A                 0.0154
     7 (A) A   8 (A) B   13 (A) A   10 (A) B      0.0140
     8 (A) A             21 (A) A                -0.0124
     4 (A) A   8 (A) B   12 (A) A   10 (A) B     -0.0109
     7 (A) A   8 (A) B   22 (A) A   10 (A) B     -0.0106
     4 (A) A   8 (A) A   10 (A) A   12 (A) A      0.0104
     6 (A) A   8 (A) A   10 (A) A   15 (A) A     -0.0103
     6 (A) A   8 (A) B   15 (A) A   10 (A) B      0.0102
     7 (A) A   8 (A) A   10 (A) A   22 (A) A      0.0097
     7 (A) A   8 (A) A   10 (A) A   13 (A) A     -0.0096
     5 (A) A   8 (A) A   10 (A) A   11 (A) A     -0.0094
     6 (A) A   8 (A) B   10 (A) A   10 (A) B     -0.0091
     5 (A) A   8 (A) B   21 (A) A   10 (A) B      0.0090
     6 (A) A   8 (A) A   10 (A) A   18 (A) A     -0.0085
     7 (A) A   8 (A) A   12 (A) A   16 (A) A      0.0078
     3 (A) A   4 (A) B   10 (A) A    9 (A) B      0.0078
     5 (A) A   8 (A) A   10 (A) A   21 (A) A     -0.0077
     4 (A) A   8 (A) B   19 (A) A   10 (A) B      0.0073
     8 (A) A   8 (A) B   10 (A) A   28 (A) B     -0.0071
     5 (A) A   8 (A) B    9 (A) A    9 (A) B     -0.0071
     8 (A) A   8 (A) B    9 (A) A   23 (A) B     -0.0070
     3 (A) A   8 (A) B   10 (A) A   10 (A) B      0.0070
     3 (A) A   8 (A) A   10 (A) A   24 (A) A     -0.0069
     5 (A) A   8 (A) B   10 (A) A   11 (A) B      0.0068
     7 (A) A   8 (A) B   16 (A) A   12 (A) B     -0.0068
     8 (A) A   8 (A) B    9 (A) A   19 (A) B     -0.0067
     3 (A) A   8 (A) B   10 (A) A   18 (A) B     -0.0066
     6 (A) A   8 (A) B   18 (A) A   10 (A) B      0.0065
     3 (A) A   6 (A) B   10 (A) A   28 (A) B     -0.0060
     7 (A) A   8 (A) B   12 (A) A   11 (A) B      0.0057
    -----------------------------------------------------

  Density matrix analysis:
  ------------------------
  NOs
    Occupation of frontier NOs:
       0.9401   1.0256
    Number of electrons: 16.000000
    Number of unpaired electrons: n_u =  2.32898, n_u,nl =  2.05138
    NO participation ratio (PR_NO):  2.933476
  
  
  Mulliken Population Analysis
  Atom      Charge (e)              h+              e-           Del q
  --------------------------------------------------------------------
   1 H       -0.073766        0.058866       -0.187675       -0.128810
   2 C        0.276439        0.504746       -0.118085        0.386661
   3 H       -0.202674        0.056284       -0.314139       -0.257855
   4 C        0.276423        0.504740       -0.118088        0.386653
   5 H       -0.073744        0.058867       -0.187665       -0.128798
   6 H       -0.202677        0.056285       -0.314136       -0.257850
  --------------------------------------------------------------------
  Sum:       -0.000000        1.239788       -1.239788       -0.000000
  
  Multipole moment analysis of the density matrix
    Molecular charge:                      -0.000000
    Number of electrons:                   16.000000
      Center of electronic charge [Ang]: [ -1.571870,  -0.076363,   0.000887]
    Total nuclear charge:                  16.000000
      Center of nuclear charge [Ang]:    [ -1.558978,  -0.062801,   0.002289]
    Dipole moment [D]:                     1.441999
      Cartesian components [D]:          [  0.990701,   1.042238,   0.107761]
    RMS size of the density [Ang]:         1.277893
      Cartesian components [Ang]:        [  0.854765,   0.840951,   0.441803]
  
  Exciton analysis of the difference density matrix
    <r_h> [Ang]:                  [ -1.563635,  -0.067698,   0.001492]
    <r_e> [Ang]:                  [ -1.730333,  -0.243072,  -0.016235]
    |<r_e - r_h>| [Ang]:            0.242608
    Hole size [Ang]:                1.427529
      Cartesian components [Ang]: [  0.849719,   0.836024,   0.785417]
    Electron size [Ang]:            2.064281
      Cartesian components [Ang]: [  1.363466,   1.366205,   0.731915]

  Transition density matrix analysis:
  -----------------------------------
  
  CT numbers (Mulliken)
    omega =     0.9250
    <Phe> =    -0.0118
  
  Exciton analysis of the transition density matrix
    Trans. dipole moment [D]:             0.395000
      Cartesian components [D]:         [  0.018777,   0.023652,  -0.393844]
    <r_h> [Ang]:                        [ -1.549191,  -0.052501,   0.002871]
    <r_e> [Ang]:                        [ -1.779376,  -0.294667,  -0.021518]
    |<r_e - r_h>| [Ang]:                  0.334998
    Hole size [Ang]:                      1.229759
      Cartesian components [Ang]:       [  0.661413,   0.648941,   0.808527]
    Electron size [Ang]:                  2.238043
      Cartesian components [Ang]:       [  1.476437,   1.480936,   0.797373]
    RMS electron-hole separation [Ang]:   2.563999
      Cartesian components [Ang]:       [  1.625323,   1.626587,   1.134297]
    Covariance(r_h, r_e) [Ang^2]:         0.029639
    Correlation coefficient:              0.010769
    Center-of-mass size [Ang]:            1.282617
      Cartesian components [Ang]:       [  0.813322,   0.812627,   0.568552]

  Decomposition into state-averaged NTOs
    H- 0 -> L+ 1:  0.6514 ( 84.9%)
    H- 1 -> L+ 0: -0.1454 (  4.2%)
    H- 0 -> L+ 2: -0.1267 (  3.2%)
                   omega =  92.5%
  ----------------------------------------------------------------------------


  Excited state 4 (singlet, A)                                     [converged]
  ----------------------------------------------------------------------------
  Term symbol:  5 (1) A                                     R^2 =  2.13433e-11

  Total energy:                                            -77.9612807533 a.u.
  Excitation energy:                                               9.752206 eV

  Osc. strength:                                                      0.000957
  Trans. dip. moment [a.u.]:           [   0.002902,    0.004073,   -0.063090]
  <i|r^2|0> [a.u.]:                    [   0.002710,   -0.018084,    0.033800]
  Two-photon absorption cross-section (SoS) [a.u.]:                 129.101661
  Two-photon absorption matrix (SoS) [a.u.]:
                                       |   -0.264311   -0.305354    2.735820 |
                                       |   -0.305354   -0.348982    2.876534 |
                                       |    2.735820    2.876534    0.615603 |
  Two-photon absorption cross-section [a.u.]:                        76.893054
  Two-photon absorption matrix [a.u.]:
                                       |   -0.203672   -0.236163    2.111300 |
                                       |   -0.236163   -0.267799    2.220122 |
                                       |    2.111300    2.220122    0.474821 |

  Dip. moment [a.u.]:                  [  -0.495892,   -0.522103,   -0.056698]
  Total dipole [Debye]:                                               1.835900
  <r^2> [a.u.]:                        [ 178.270733,   40.974018,   10.793158]
  Total <r^2> [a.u.]:                                               230.037910

  V1^2 = 0.9630, V2^2 = 0.0370

  Important amplitudes:
      occ i     occ j     vir a      vir b          v   
    -----------------------------------------------------
     8 (A) A             11 (A) A                 0.6678
     7 (A) A              9 (A) A                -0.1440
     8 (A) A             21 (A) A                 0.0763
     8 (A) A             16 (A) A                -0.0658
     8 (A) A             10 (A) A                 0.0641
     8 (A) A   8 (A) B    9 (A) A   13 (A) B      0.0162
     5 (A) A   8 (A) B   11 (A) A   11 (A) B      0.0159
     8 (A) A   8 (A) B   11 (A) A   17 (A) B      0.0138
     7 (A) A             20 (A) A                -0.0130
     7 (A) A   8 (A) B   13 (A) A   11 (A) B      0.0126
     8 (A) A             24 (A) A                 0.0121
     8 (A) A             15 (A) A                -0.0118
     4 (A) A   8 (A) B   12 (A) A   11 (A) B     -0.0111
     5 (A) A   8 (A) A   11 (A) A   21 (A) A     -0.0109
     8 (A) A   8 (A) B    9 (A) A   22 (A) B     -0.0104
     7 (A) A   8 (A) A   11 (A) A   22 (A) A      0.0093
     6 (A) A   8 (A) B   15 (A) A   11 (A) B      0.0091
     6 (A) A   8 (A) B   10 (A) A   11 (A) B     -0.0088
     7 (A) A   8 (A) B   22 (A) A   11 (A) B     -0.0087
     3 (A) A   4 (A) B   11 (A) A    9 (A) B      0.0083
     6 (A) A   8 (A) A   11 (A) A   15 (A) A     -0.0082
     3 (A) A   8 (A) B   11 (A) A   18 (A) B     -0.0079
     7 (A) A   8 (A) A   13 (A) A   16 (A) A      0.0076
     7 (A) A   8 (A) A   11 (A) A   13 (A) A     -0.0075
     4 (A) A   8 (A) B   19 (A) A   11 (A) B      0.0070
     5 (A) A   8 (A) B   21 (A) A   11 (A) B      0.0070
     5 (A) A   8 (A) B    9 (A) A    9 (A) B      0.0063
     4 (A) A   8 (A) A   11 (A) A   12 (A) A      0.0063
     3 (A) A   6 (A) B   11 (A) A   28 (A) B     -0.0060
     6 (A) A   8 (A) A   11 (A) A   18 (A) A     -0.0058
     8 (A) A   8 (A) B    9 (A) A   12 (A) B      0.0058
     6 (A) A   8 (A) B   18 (A) A   11 (A) B      0.0057
     3 (A) A   8 (A) B   11 (A) A   30 (A) B     -0.0056
     7 (A) A   8 (A) B   16 (A) A   13 (A) B     -0.0055
     3 (A) A   8 (A) A   11 (A) A   18 (A) A     -0.0054
     3 (A) A   5 (A) B   11 (A) A   25 (A) B     -0.0054
     7 (A) A   8 (A) B   12 (A) A   10 (A) B      0.0053
     3 (A) A   8 (A) A   11 (A) A   24 (A) A     -0.0053
     4 (A) A              9 (A) A                -0.0053
     8 (A) A   8 (A) B   20 (A) A   22 (A) B     -0.0052
    -----------------------------------------------------

  Density matrix analysis:
  ------------------------
  NOs
    Occupation of frontier NOs:
       0.9446   1.0236
    Number of electrons: 16.000000
    Number of unpaired electrons: n_u =  2.32240, n_u,nl =  2.04729
    NO participation ratio (PR_NO):  2.899941
  
  
  Mulliken Population Analysis
  Atom      Charge (e)              h+              e-           Del q
  --------------------------------------------------------------------
   1 H       -0.221885        0.046661       -0.323589       -0.276928
   2 C        0.257535        0.499885       -0.132127        0.367757
   3 H       -0.035605        0.045112       -0.135898       -0.090785
   4 C        0.257582        0.499924       -0.132113        0.367811
   5 H       -0.222219        0.046649       -0.323922       -0.277273
   6 H       -0.035409        0.045123       -0.135705       -0.090583
  --------------------------------------------------------------------
  Sum:       -0.000000        1.183354       -1.183354       -0.000000
  
  Multipole moment analysis of the density matrix
    Molecular charge:                      -0.000000
    Number of electrons:                   16.000000
      Center of electronic charge [Ang]: [ -1.542578,  -0.045533,   0.004165]
    Total nuclear charge:                  16.000000
      Center of nuclear charge [Ang]:    [ -1.558978,  -0.062801,   0.002289]
    Dipole moment [D]:                     1.835899
      Cartesian components [D]:          [ -1.260431,  -1.327054,  -0.144113]
    RMS size of the density [Ang]:         1.282356
      Cartesian components [Ang]:        [  0.860529,   0.845603,   0.434606]
  
  Exciton analysis of the difference density matrix
    <r_h> [Ang]:                  [ -1.543287,  -0.046254,   0.003707]
    <r_e> [Ang]:                  [ -1.321881,   0.186852,   0.029447]
    |<r_e - r_h>| [Ang]:            0.322524
    Hole size [Ang]:                1.395753
      Cartesian components [Ang]: [  0.820214,   0.806831,   0.790190]
    Electron size [Ang]:            2.093178
      Cartesian components [Ang]: [  1.404933,   1.397803,   0.673576]

  Transition density matrix analysis:
  -----------------------------------
  
  CT numbers (Mulliken)
    omega =     0.9290
    <Phe> =    -0.0142
  
  Exciton analysis of the transition density matrix
    Trans. dipole moment [D]:             0.080430
      Cartesian components [D]:         [  0.003688,   0.005176,  -0.080179]
    <r_h> [Ang]:                        [ -1.557053,  -0.060763,   0.001989]
    <r_e> [Ang]:                        [ -1.275721,   0.235450,   0.034749]
    |<r_e - r_h>| [Ang]:                  0.409833
    Hole size [Ang]:                      1.227023
      Cartesian components [Ang]:       [  0.658841,   0.646391,   0.808512]
    Electron size [Ang]:                  2.224437
      Cartesian components [Ang]:       [  1.492709,   1.485788,   0.715802]
    RMS electron-hole separation [Ang]:   2.561504
      Cartesian components [Ang]:       [  1.646434,   1.638474,   1.079796]
    Covariance(r_h, r_e) [Ang^2]:         0.030183
    Correlation coefficient:              0.011058
    Center-of-mass size [Ang]:            1.276134
      Cartesian components [Ang]:       [  0.820504,   0.814543,   0.540195]

  Decomposition into state-averaged NTOs
    H- 0 -> L+ 2: -0.6589 ( 86.8%)
    H- 1 -> L+ 0:  0.1420 (  4.0%)
    H- 0 -> L+ 1: -0.0972 (  1.9%)
                   omega =  92.9%
  ----------------------------------------------------------------------------


  Excited state 5 (singlet, A)                                     [converged]
  ----------------------------------------------------------------------------
  Term symbol:  6 (1) A                                     R^2 =  1.48851e-11

  Total energy:                                            -77.9464745824 a.u.
  Excitation energy:                                              10.155103 eV

  Osc. strength:                                                      0.000000
  Trans. dip. moment [a.u.]:           [  -0.000418,    0.000453,    0.000025]
  <i|r^2|0> [a.u.]:                    [   0.078545,   -0.096588,    0.015744]
  Two-photon absorption cross-section (SoS) [a.u.]:                 222.891608
  Two-photon absorption matrix (SoS) [a.u.]:
                                       |    0.367244    0.055982   -3.818760 |
                                       |    0.055982   -0.436898    3.620773 |
                                       |   -3.818760    3.620773    0.070964 |
  Two-photon absorption cross-section [a.u.]:                       115.313970
  Two-photon absorption matrix [a.u.]:
                                       |    0.264350    0.040624   -2.746744 |
                                       |    0.040624   -0.313291    2.604357 |
                                       |   -2.746744    2.604357    0.050921 |

  Dip. moment [a.u.]:                  [  -0.057746,   -0.060396,   -0.006392]
  Total dipole [Debye]:                                               0.213009
  <r^2> [a.u.]:                        [ 179.646746,   39.753918,   11.598487]
  Total <r^2> [a.u.]:                                               230.999152

  V1^2 = 0.9554, V2^2 = 0.0446

  Important amplitudes:
      occ i     occ j     vir a      vir b          v   
    -----------------------------------------------------
     8 (A) A             12 (A) A                -0.5704
[...]
    16   -1.505455037935e-03
    17   -1.608562774739e-03
    18   -1.433321744821e-03
    19   -2.833065959337e-03
    20    1.926520959104e-02
    21    1.012692031119e+00
    22    6.340360120196e-04
    23    1.432336655536e-02
    24    8.867897543108e-04
    25    7.000959240669e-02
    26   -5.209062844989e-02
    27   -1.371122099645e+00
    28    1.178760861382e-01
    29   -7.383061007196e-02
    30    1.029900698207e-03
    31    4.419694823574e-01
    32   -2.957516756670e-01
    33    2.701303697520e-03
    34    1.495355493520e-02
    35   -1.312283322509e-03
    36   -1.824043854708e-03
    37    1.690289442860e-03
    38   -2.673673874887e-03
    39    4.232876848240e-03
    40    8.277712795244e-01
    41    1.694707969694e-03
    42   -1.276843354776e-02
    43   -7.017185806719e-04
    44    1.926823563186e-02
    45    1.012675854318e+00
    46    1.427898874230e-02
    47    1.364885550032e-03
    48    7.577478106654e-04
Sym=X
Ene= 0.231072
Spin=Alpha
Occup=0
     1    2.921004909301e-02
     2    1.275785526284e+00
     3   -1.457583413609e-02
     4   -3.752635232705e-03
     5   -9.280034352691e-04
     6    6.813323410821e-03
     7   -5.084499871522e-03
     8   -1.780706845511e-01
     9   -1.692632380550e-01
    10   -1.463270261203e-01
    11   -1.696619911824e-02
    12   -5.943209086833e-01
    13   -4.874929831806e-01
    14   -5.797820398195e-02
    15    1.150313146146e-03
    16   -6.610352132304e-05
    17   -2.321611666558e-04
    18    1.377941868891e-03
    19   -4.292412206961e-04
    20   -3.008611370924e-02
    21   -1.049890578037e+00
    22   -2.446935792477e-03
    23   -1.133699395278e-02
    24   -8.018495178228e-04
    25    6.939589925842e-03
    26   -5.218549467149e-03
    27   -1.800675433937e-01
    28   -1.374991014406e-01
    29   -1.765030853479e-01
    30   -1.730145759947e-02
    31   -4.564345268461e-01
    32   -6.185739989986e-01
    33   -5.942887586528e-02
    34    1.176265153928e-03
    35   -2.060427998960e-04
    36   -8.962190713426e-05
    37   -1.323085391749e-03
    38   -5.818898656527e-04
    39    2.924624938674e-02
    40    1.277378561362e+00
    41   -3.016318435697e-03
    42   -1.476262541000e-02
    43   -1.041115152641e-03
    44   -3.005453677319e-02
    45   -1.048530250318e+00
    46   -1.118751900566e-02
    47   -3.007256783276e-03
    48   -7.192623903572e-04
Sym=X
Ene= 0.236151
Spin=Alpha
Occup=0
     1    2.110033090899e-02
     2    1.157189319292e+00
     3   -1.795506732062e-02
     4   -8.396671166772e-03
     5   -1.398455402753e-03
     6    8.693686913551e-02
     7   -8.286660995290e-02
     8   -1.531620206844e+00
     9   -6.247062217351e-02
    10    5.214946441811e-02
    11   -2.636695027928e-04
    12   -3.011099560184e-01
    13    1.810374809178e-01
    14   -5.204677981545e-03
    15    2.102050630851e-02
    16   -2.726373732033e-03
    17   -2.567198484342e-03
    18   -3.538214238454e-03
    19   -1.244818420842e-02
    20    1.753808171268e-02
    21    9.857007968721e-01
    22    9.145934783349e-03
    23    1.405057607377e-02
    24    1.264188951807e-03
    25   -8.692750281701e-02
    26    8.285901355539e-02
    27    1.531360689891e+00
    28   -5.549141772666e-02
    29    5.944100775749e-02
    30    1.363081204022e-03
    31   -1.969278400460e-01
    32    2.903957525680e-01
    33    9.836363377562e-03
    34   -2.100946504716e-02
    35    2.225578747488e-03
    36    3.122360673344e-03
    37   -4.749187424612e-03
    38    1.202451768221e-02
    39   -2.107030594934e-02
    40   -1.155325670675e+00
    41    7.469839930218e-03
    42    1.832749295458e-02
    43    1.497493045540e-03
    44   -1.757182392330e-02
    45   -9.872369167452e-01
    46   -1.359039577126e-02
    47   -9.850407467330e-03
    48   -1.222681772581e-03
Sym=X
Ene= 0.303250
Spin=Alpha
Occup=0
     1   -2.387266320241e-02
     2    1.607740615088e+00
     3   -2.151747688445e-02
     4    1.229934137132e-03
     5   -9.765091252275e-04
     6   -5.753503606843e-03
     7   -2.036566252383e-03
     8    2.105362323067e-01
     9   -1.341076019010e-01
    10   -1.445048248646e-01
    11   -1.515284898073e-02
    12   -1.206515322898e+00
    13   -1.100424646279e+00
    14   -1.243736185803e-01
    15   -3.534310448883e-03
    16   -1.363249504405e-03
    17    2.370034378233e-03
    18   -3.379403556820e-02
    19    4.275485796305e-04
    20    1.862333291962e-02
    21   -1.702570705105e+00
    22    6.101180756767e-04
    23   -2.517994359462e-02
    24   -1.468571155596e-03
    25    5.755187996612e-03
    26    2.031327299138e-03
    27   -2.105702444119e-01
    28    1.375367486608e-01
    29    1.412453042936e-01
    30    1.513627405347e-02
    31    1.037978570869e+00
    32    1.260479149683e+00
    33    1.259894026707e-01
    34    3.599080421764e-03
    35   -2.081526677819e-03
    36    1.537151683609e-03
    37   -3.357857122390e-02
    38   -3.871310365319e-03
    39    2.387086577434e-02
    40   -1.607711385035e+00
    41   -2.326208297495e-03
    42    2.141524903755e-02
    43    1.199730559656e-03
    44   -1.862090013734e-02
    45    1.702569059165e+00
    46    2.519082226354e-02
    47    6.760019705832e-04
    48    1.229446311613e-03
Sym=X
Ene= 0.462593
Spin=Alpha
Occup=0
     1   -1.010614903401e-01
     2   -7.341552023008e-01
     3   -1.582689495811e-02
     4   -1.279282256087e-02
     5   -1.522640638477e-03
     6    6.271581997934e-02
     7    1.641409419269e-02
     8   -3.644986093349e+00
     9    9.802677823149e-02
    10   -1.059275291700e-01
    11   -1.477406957069e-03
    12    2.420680384924e+00
    13   -2.324660161930e+00
    14   -2.299660617536e-02
    15    5.294412785724e-02
    16   -3.370652621053e-03
    17   -4.375089222129e-03
    18   -3.946536376719e-03
    19    2.016477009353e-02
    20   -1.264482805225e-01
    21   -6.620601060706e-01
    22    7.201531020029e-03
    23    1.456394346565e-02
    24    1.234222575361e-03
    25   -6.271650814112e-02
    26   -1.641637983839e-02
    27    3.645003591150e+00
    28    1.108507382550e-01
    29   -9.243069330526e-02
    30   -5.173063294683e-04
    31    2.446304871261e+00
    32   -2.297681344583e+00
    33   -2.221385461795e-02
    34   -5.293856274345e-02
    35    3.126388788437e-03
    36    4.669433846768e-03
    37   -1.771561956018e-03
    38   -2.045796004028e-02
    39    1.010233337826e-01
    40    7.341892792963e-01
    41    1.198082472256e-02
    42    1.644775707202e-02
    43    1.559975674028e-03
    44    1.264825522961e-01
    45    6.620151109217e-01
    46   -1.418785297182e-02
    47   -7.925581821862e-03
    48   -1.171543874256e-03
Sym=X
Ene= 0.579090
Spin=Alpha
Occup=0
     1    1.338812093636e-01
     2    1.207795887666e-01
     3   -3.096703750407e-02
     4    3.385923138523e-02
     5    5.296564319722e-04
     6   -6.664418054838e-03
     7   -1.717344725058e-01
     8   -3.932996847121e-01
     9    2.866951115279e-01
    10   -3.034171313408e-01
    11   -4.579234404115e-03
    12   -6.825513714092e-01
    13    7.451525542604e-01
    14    1.201929799290e-02
    15   -1.308442549371e-03
    16    2.560074423494e-03
    17    4.330451328002e-03
    18   -2.274720363420e-02
    19    5.883217613608e-02
    20    3.237948879800e-01
    21   -3.234588091332e-02
    22   -1.862472290686e-02
    23    1.158794125448e-02
    24   -2.094896921263e-04
    25   -6.665482619931e-03
    26   -1.717300980351e-01
    27   -3.933824680097e-01
    28   -3.178280767471e-01
    29    2.706640159060e-01
    30    1.035104370746e-03
    31    7.794433226929e-01
    32   -6.431187445467e-01
    33   -1.642162311861e-03
    34   -1.338990992637e-03
    35    4.573690931528e-03
    36    2.045266213172e-03
    37    1.664990180009e-02
    38    6.084916134834e-02
    39    1.338218819616e-01
    40    1.208196459138e-01
    41    3.541371290986e-02
    42   -2.918947234613e-02
    43   -9.140383795508e-05
    44    3.238212183883e-01
    45   -3.239134071184e-02
    46    1.252616261190e-02
    47   -1.799805612430e-02
    48   -5.014098346536e-04
Sym=X
Ene= 0.610103
Spin=Alpha
Occup=0
     1   -5.865872838067e-01
     2    2.128302616832e-01
     3   -5.600645301115e-02
     4    2.628621020796e-02
     5   -1.152803285474e-03
     6   -2.461681868106e-03
     7   -3.068175770717e-03
     8    1.748716838478e-01
     9   -7.592002677026e-02
    10    4.889876908590e-03
    11   -3.322494457533e-03
    12    4.174758481039e-01
    13    1.119977055653e-01
    14    2.682260075649e-02
    15    6.986980014284e-03
    16   -8.665543660892e-03
    17    7.320260667058e-03
    18   -1.469899260434e-01
    19   -1.402583720831e-02
    20    4.318868904440e-01
    21   -2.592341732504e-01
    22    4.912939235737e-02
    23   -5.931948221294e-02
    24   -1.162826412176e-03
    25   -2.469672599389e-03
    26   -3.039945995506e-03
    27    1.744881909465e-01
    28    8.785304881068e-03
    29   -7.554111218016e-02
    30   -4.095706557911e-03
    31    9.032145095949e-02
    32    4.225862808217e-01
    33    2.996059749182e-02
    34    6.748965703386e-03
    35    6.422791327548e-03
    36   -9.790632837623e-03
    37    1.476377459126e-01
    38    1.041810447066e-03
    39   -5.866900127207e-01
    40    2.128986335674e-01
    41    2.911676409790e-02
    42   -5.457169206181e-02
    43   -1.948537474622e-03
    44    4.317724063687e-01
    45   -2.592122465148e-01
    46   -6.177242888942e-02
    47    4.601915580781e-02
    48   -1.205240499407e-04
Sym=X
Ene= 0.688559
Spin=Alpha
Occup=0
     1    6.760375142920e-04
     2   -4.026077243384e-04
     3    1.161067408275e-03
     4    1.273416106531e-03
     5   -1.991854577180e-02
     6    5.512738290913e-05
     7    8.498794346923e-04
     8   -5.519271687875e-04
     9    3.199380320117e-02
    10    4.073832231917e-02
    11   -6.706194871447e-01
    12   -2.933760892625e-02
    13   -3.702376098290e-02
    14    6.126318941826e-01
    15   -1.638637962710e-03
    16    8.270238375271e-02
    17   -7.825475016505e-02
    18   -8.744732903046e-03
    19   -1.096908918658e-03
    20    8.859715158560e-04
    21   -5.838913845450e-04
    22    7.726236872616e-04
    23    8.179817863417e-04
    24   -1.746135153746e-02
    25    5.206974006263e-05
    26    8.843030170797e-04
    27   -6.734784614093e-04
    28    3.247733526515e-02
    29    4.033790851436e-02
    30   -6.706209182201e-01
    31   -2.970713095029e-02
    32   -3.677849492073e-02
    33    6.126283690015e-01
    34    1.015796800879e-03
    35   -8.249896190462e-02
    36    7.847808480638e-02
    37    8.722732138950e-03
    38    1.324049977387e-03
    39    6.290328773944e-04
    40   -5.369238969696e-04
    41    1.011861138767e-03
    42    1.422857771576e-03
    43   -1.991146415536e-02
    44    8.148859104593e-04
    45   -6.590717741137e-04
    46    6.005986361450e-04
    47    9.896867777477e-04
    48   -1.746278090594e-02
Sym=X
Ene= 0.704866
Spin=Alpha
Occup=0
     1   -4.446100266256e-01
     2    1.316823943889e-01
     3   -7.377270596710e-02
     4   -4.305198966491e-02
     5   -6.185059653828e-03
     6   -4.570139915276e-02
     7   -2.986220427183e-01
     8    4.529189259924e-01
     9    1.834056498306e-01
    10   -1.997798104718e-01
    11   -4.435862906443e-03
    12   -6.620232171234e-02
    13    5.458293003712e-02
    14    1.367282188127e-03
    15    1.909674691182e-01
    16   -1.988553200653e-02
    17   -2.464344827947e-02
    18    1.433599157368e-02
    19   -7.639029596697e-02
    20   -5.279809141883e-01
    21    2.024627661231e-01
    22    4.099739369663e-02
    23    8.435493152884e-02
    24    7.012842130952e-03
    25   -4.570212159652e-02
    26   -2.986197339747e-01
    27    4.529410601865e-01
    28   -2.089593775763e-01
    29    1.729282738471e-01
    30   -7.683980804429e-04
    31    5.779146971447e-02
    32   -6.350157821868e-02
    33    3.297017645490e-04
    34    1.909862708385e-01
    35   -2.101022905888e-02
    36   -2.339699023004e-02
    37   -6.802543288927e-03
    38   -7.746870583937e-02
    39   -4.446407547685e-01
    40    1.318658247878e-01
    41   -3.924793405749e-02
    42   -7.584926038895e-02
    43   -6.502487090178e-03
    44   -5.279669441296e-01
    45    2.023078122207e-01
    46    8.218199701855e-02
    47    4.523239653993e-02
    48    6.639840029991e-03
Sym=X
Ene= 0.774568
Spin=Alpha
Occup=0
     1   -5.439735804335e-01
     2    5.004854170319e-01
     3   -1.157695184785e-01
     4   -2.079545426208e-02
     5   -6.825231717383e-03
     6   -8.875582822644e-02
     7    2.257229638809e-01
     8    5.598374513220e-01
     9   -9.010466609387e-02
    10    1.114713409815e-01
    11    1.436592366168e-03
    12   -3.106012312832e-01
    13    2.519245952615e-01
    14    2.457273684504e-03
    15    2.025573481620e-01
    16   -1.826887886100e-02
    17   -2.062039370308e-02
    18   -1.468862888433e-02
    19   -7.323810861676e-03
    20   -5.339159799903e-01
    21    4.572022542485e-01
    22    2.636018293330e-02
    23    1.001740078033e-01
    24    7.303367697227e-03
    25    8.875414081008e-02
    26   -2.257505326956e-01
    27   -5.597698376002e-01
    28   -1.160169181225e-01
    29    8.419758295483e-02
    30    4.443341427779e-04
    31   -2.674467981317e-01
    32    2.974043043212e-01
    33    2.946740457147e-03
    34   -2.025165148605e-01
    35    1.641701657626e-02
    36    2.269528879397e-02
    37   -1.498024124697e-02
    38    5.807271976301e-03
    39    5.438752190204e-01
    40   -5.006132913003e-01
    41    1.488094831241e-02
    42    1.166140867787e-01
    43    7.773232657287e-03
    44    5.339930123127e-01
    45   -4.571110444032e-01
    46   -9.875426268898e-02
    47   -3.140950467754e-02
    48   -6.634895118511e-03
Sym=X
Ene= 0.807335
Spin=Alpha
Occup=0
     1   -6.505998824676e-04
     2    8.754584941337e-04
     3   -1.702058199295e-03
     4   -1.728868287871e-03
     5    2.983810764518e-02
     6   -1.152199034634e-04
     7    2.606727391640e-04
     8   -2.305820575388e-04
     9   -3.717779173725e-02
    10   -4.562121502534e-02
    11    7.642989855751e-01
    12    5.404969292302e-02
    13    6.796431462318e-02
    14   -1.124235544233e+00
    15   -6.195869067962e-04
    16    6.560359160886e-02
    17   -6.189945556622e-02
    18   -6.945983768274e-03
    19   -8.494434655928e-04
    20   -5.194319612650e-04
    21    7.800690159719e-04
    22   -1.638369000360e-03
    23   -1.742925818134e-03
    24    3.269790207639e-02
    25    1.118106563390e-04
    26   -2.055952607115e-04
    27    2.012909816611e-04
    28    3.622099048745e-02
    29    4.665959313093e-02
    30   -7.642823257752e-01
    31   -5.419844271972e-02
    32   -6.805102732719e-02
    33    1.124222672457e+00
    34   -1.484513492780e-03
    35    6.525577466551e-02
    36   -6.225170833379e-02
    37   -6.908803788114e-03
    38   -1.076875639046e-03
    39    6.440183986481e-04
    40   -7.813018990514e-04
    41    1.333676531102e-03
    42    2.065540190415e-03
    43   -2.982489067119e-02
    44    5.165083405533e-04
    45   -9.032273985141e-04
    46    1.310011717127e-03
    47    2.027718730971e-03
    48   -3.270514688268e-02
Sym=X
Ene= 0.857787
Spin=Alpha
Occup=0
     1    1.804518776568e-02
     2   -1.076380773022e+00
     3    1.465422016100e-01
     4    4.922297248368e-02
     5    1.006584803620e-02
     6    2.156087284754e-03
     7    3.230345072001e-02
     8   -1.101562452329e-02
     9   -4.215107818440e-01
    10   -4.238629098004e-01
    11   -4.579935052392e-02
    12    9.844225294438e-01
    13    9.390273275862e-01
    14    1.038937313509e-01
    15   -9.640791832460e-03
    16    1.177844608613e-02
    17   -1.290451033308e-02
    18    2.295167072408e-01
    19   -1.133619442195e-03
    20   -8.105591886580e-03
    21    1.069277584087e+00
    22    5.493811673616e-02
    23    1.480638440153e-01
    24    1.152019391531e-02
    25    2.147395480074e-03
    26    3.229256630937e-02
    27   -1.103834956741e-02
    28   -4.020155752180e-01
    29   -4.424015590002e-01
    30   -4.609542368636e-02
    31    8.881001689743e-01
    32    1.030566795019e+00
    33    1.050282710927e-01
    34   -9.197224670507e-03
    35   -1.163413097572e-02
    36    1.362691887062e-02
    37   -2.281865485225e-01
    38   -2.453650998102e-02
    39    1.801004941643e-02
    40   -1.076324436871e+00
    41    4.170138640212e-02
    42    1.487747139319e-01
    43    1.106235581798e-02
    44   -8.156053762204e-03
    45    1.069405393576e+00
    46    1.451648068622e-01
    47    6.240003798019e-02
    48    1.066984316169e-02
Sym=X
Ene= 0.927047
Spin=Alpha
Occup=0
     1   -1.223633056998e-01
     2    1.073880416223e+00
     3   -1.637553545032e-01
     4    2.401683258106e-02
     5   -6.521505486278e-03
     6   -2.186560523514e-03
     7   -4.026077297483e-02
     8   -5.732269144479e-02
     9    4.190074970448e-01
    10    5.432200374266e-01
    11    5.285111458731e-02
    12   -1.190959317221e+00
    13   -1.589164911309e+00
    14   -1.529698176782e-01
    15   -1.660632143706e-03
    16   -3.126945960338e-03
    17    9.856703495282e-03
    18   -1.249877240350e-01
    19    4.868213762028e-02
    20    1.674395524621e-01
    21   -1.352407646853e+00
    22   -4.983224742788e-03
    23   -1.963650481315e-01
    24   -1.195557833288e-02
    25    2.181952018366e-03
    26    4.012055863193e-02
    27    5.756469441714e-02
    28   -5.213906414422e-01
    29   -4.459574448415e-01
    30   -5.191767502008e-02
    31    1.527022455359e+00
    32    1.269917009514e+00
    33    1.499020496122e-01
    34    1.915178746035e-03
    35   -9.388006820206e-03
    36    4.300453153504e-03
    37   -1.193613863364e-01
    38   -6.119749509674e-02
    39    1.223359308774e-01
    40   -1.073903573051e+00
    41   -3.236132820416e-02
    42    1.622238339419e-01
    43    8.352580984896e-03
    44   -1.674665006600e-01
    45    1.352299190535e+00
    46    1.959487622569e-01
    47    1.500396825721e-02
    48    1.018625492533e-02
Sym=X
Ene= 0.970796
Spin=Alpha
Occup=0
     1   -4.188019704907e-02
     2    1.105046160486e+00
     3   -1.149240779778e-01
     4   -9.041791082102e-02
     5   -1.109022888316e-02
     6    2.674273252064e-02
     7    2.509949511994e-01
     8    5.264611112432e-01
     9    5.402430498432e-01
    10   -3.920734390067e-01
    11    2.841959482083e-03
    12   -1.747758443312e+00
    13    1.119236137711e+00
    14   -1.795136217244e-02
    15   -5.860869795112e-02
    16   -1.320923793275e-02
    17   -7.492611493428e-03
    18   -7.629803803416e-03
    19   -2.919513246440e-01
    20   -7.303780115507e-02
    21    6.742158192252e-01
    22    9.528940465595e-02
    23    6.189092061970e-02
    24    8.206116033598e-03
    25   -2.674404270397e-02
    26   -2.510662843892e-01
    27   -5.263303796119e-01
    28    4.193444399111e-01
    29   -5.192538026044e-01
    30   -1.180974041609e-02
    31   -1.207582766766e+00
    32    1.687466797830e+00
    33    4.553463063751e-02
    34    5.865413867841e-02
    35    1.081702798732e-02
    36    1.015709128580e-02
    37   -3.743893394591e-02
    38    2.896511123047e-01
    39    4.189713731048e-02
    40   -1.105070504063e+00
    41    8.447273185155e-02
    42    1.193335480440e-01
    43    1.138800792436e-02
    44    7.301432316073e-02
    45   -6.742783580424e-01
    46   -5.698429790173e-02
    47   -9.828777454732e-02
    48   -8.539376345399e-03
[5D]

======= END OF MOLDEN-FORMATTED INPUT FILE =======


        *************************************************************
        *                                                           *
        *  Thank you very much for using Q-Chem.  Have a nice day.  *
        *                                                           *
        *************************************************************


