                  Welcome to Q-Chem
     A Quantum Leap Into The Future Of Chemistry


 Q-Chem 5.4 (devel), Q-Chem, Inc., Pleasanton, CA (2021)

 E. Epifanovsky,  A. T. B. Gilbert,  Xintian Feng,  Joonho Lee,  Yuezhi Mao,  
 N. Mardirossian,  P. Pokhilko,  A. White,  M. Wormit,  M. P. Coons,  
 A. L. Dempwolff,  Zhengting Gan,  D. Hait,  P. R. Horn,  L. D. Jacobson,  
 I. Kaliman,  J. Kussmann,  A. W. Lange,  Ka Un Lao,  D. S. Levine,  Jie Liu,  
 S. C. McKenzie,  A. F. Morrison,  K. Nanda,  F. Plasser,  D. R. Rehn,  
 M. L. Vidal,  Zhi-Qiang You,  Ying Zhu,  B. Alam,  B. Albrecht,  
 A. Aldossary,  E. Alguire,  J. H. Andersen,  D. Barton,  K. Begam,  A. Behn,  
 Y. A. Bernard,  E. J. Berquist,  H. Burton,  A. Carreras,  K. Carter-Fenk,  
 R. Chakraborty,  A. D. Chien,  K. D. Closser,  V. Cofer-Shabica,  
 S. Dasgupta,  Jia Deng,  M. de Wergifosse,  M. Diedenhofen,  Hainam Do,  
 S. Ehlert,  Po-Tung Fang,  S. Fatehi,  Qingguo Feng,  T. Friedhoff,  
 J. Gayvert,  Qinghui Ge,  G. Gidofalvi,  M. Goldey,  J. Gomes,  
 C. Gonzalez-Espinoza,  S. Gulania,  A. Gunina,  M. W. D. Hanson-Heine,  
 P. H. P. Harbach,  A. W. Hauser,  M. F. Herbst,  M. Hernandez Vera,  
 M. Hodecker,  Z. C. Holden,  S. Houck,  Xunkun Huang,  Kerwin Hui,  
 B. C. Huynh,  M. Ivanov,  Hyunjun Ji,  Hanjie Jiang,  B. Kaduk,  S. Kaehler,  
 K. Khistyaev,  Jaehoon Kim,  P. Klunzinger,  Z. Koczor-Benda,  
 Joong Hoon Koh,  D. Kosenkov,  L. Koulias,  T. Kowalczyk,  C. M. Krauter,  
 K. Kue,  A. Kunitsa,  T. Kus,  A. Landau,  K. V. Lawler,  D. Lefrancois,  
 S. Lehtola,  Rain Li,  Yi-Pei Li,  Jiashu Liang,  M. Liebenthal,  
 Hung-Hsuan Lin,  You-Sheng Lin,  Fenglai Liu,  Kuan-Yu Liu,  
 M. Loipersberger,  A. Luenser,  A. Manjanath,  P. Manohar,  E. Mansoor,  
 S. F. Manzer,  Shan-Ping Mao,  A. V. Marenich,  T. Markovich,  S. Mason,  
 S. A. Maurer,  P. F. McLaughlin,  M. F. S. J. Menger,  J.-M. Mewes,  
 S. A. Mewes,  P. Morgante,  J. W. Mullinax,  K. J. Oosterbaan,  G. Paran,  
 Alexander C. Paul,  Suranjan K. Paul,  F. Pavosevic,  Zheng Pei,  S. Prager,  
 E. I. Proynov,  E. Ramos,  B. Rana,  A. E. Rask,  A. Rettig,  R. M. Richard,  
 F. Rob,  E. Rossomme,  T. Scheele,  M. Scheurer,  M. Schneider,  
 N. Sergueev,  S. M. Sharada,  W. Skomorowski,  D. W. Small,  C. J. Stein,  
 Yu-Chuan Su,  E. J. Sundstrom,  Zhen Tao,  J. Thirman,  T. Tsuchimochi,  
 N. M. Tubman,  S. P. Veccham,  O. Vydrov,  J. Wenzel,  J. Witte,  A. Yamada,  
 Kun Yao,  S. Yeganeh,  S. R. Yost,  A. Zech,  Igor Ying Zhang,  Xing Zhang,  
 Yu Zhang,  D. Zuev,  A. Aspuru-Guzik,  A. T. Bell,  N. A. Besley,  
 K. B. Bravaya,  B. R. Brooks,  D. Casanova,  Jeng-Da Chai,  S. Coriani,  
 C. J. Cramer,  A. E. DePrince, III,  R. A. DiStasio Jr.,  A. Dreuw,  
 B. D. Dunietz,  T. R. Furlani,  W. A. Goddard III,  S. Grimme,  
 S. Hammes-Schiffer,  T. Head-Gordon,  W. J. Hehre,  Chao-Ping Hsu,  
 T.-C. Jagau,  Yousung Jung,  A. Klamt,  Jing Kong,  D. S. Lambrecht,  
 WanZhen Liang,  N. J. Mayhall,  C. W. McCurdy,  J. B. Neaton,  
 C. Ochsenfeld,  J. A. Parkhill,  R. Peverati,  V. A. Rassolov,  Yihan Shao,  
 L. V. Slipchenko,  T. Stauch,  R. P. Steele,  J. E. Subotnik,  
 A. J. W. Thom,  A. Tkatchenko,  D. G. Truhlar,  T. Van Voorhis,  
 T. A. Wesolowski,  K. B. Whaley,  H. L. Woodcock III,  P. M. Zimmerman,  
 S. Faraji,  P. M. W. Gill,  M. Head-Gordon,  J. M. Herbert,  A. I. Krylov

 Additional authors for Version 5.4.1: 
 S. Kotaru,  Shaozhi Li,  Xiangyuan Li,  F. Matz,  A. Molle,  Haisheng Ren,  
 Yingli Su,  Hung-Yi Tsai,  C. Utku,  Fang Wang

 Contributors to earlier versions of Q-Chem not listed above: 
 R. D. Adamson,  B. Austin,  R. Baer,  J. Baker,  G. J. O. Beran,  
 K. Brandhorst,  S. T. Brown,  E. F. C. Byrd,  A. K. Chakraborty,  
 G. K. L. Chan,  Chun-Min Chang,  Yunqing Chen,  C.-L. Cheng,  
 Siu Hung Chien,  D. M. Chipman,  D. L. Crittenden,  H. Dachsel,  
 R. J. Doerksen,  A. D. Dutoi,  R. G. Edgar,  J. Fosso-Tande,  
 L. Fusti-Molnar,  D. Ghosh,  A. Ghysels,  A. Golubeva-Zadorozhnaya,  
 J. Gonthier,  M. S. Gordon,  S. R. Gwaltney,  G. Hawkins,  J. E. Herr,  
 A. Heyden,  S. Hirata,  E. G. Hohenstein,  G. Kedziora,  F. J. Keil,  
 C. Kelley,  Jihan Kim,  R. A. King,  R. Z. Khaliullin,  P. P. Korambath,  
 W. Kurlancheek,  A. Laurent,  A. M. Lee,  M. S. Lee,  S. V. Levchenko,  
 Ching Yeh Lin,  D. Liotard,  E. Livshits,  R. C. Lochan,  I. Lotan,  
 L. A. Martinez-Martinez,  P. E. Maslen,  N. Nair,  D. P. O'Neill,  
 D. Neuhauser,  E. Neuscamman,  C. M. Oana,  R. Olivares-Amaya,  R. Olson,  
 T. M. Perrine,  B. Peters,  P. A. Pieniazek,  A. Prociuk,  Y. M. Rhee,  
 J. Ritchie,  M. A. Rohrdanz,  E. Rosta,  N. J. Russ,  H. F. Schaefer III,  
 M. W. Schmidt,  N. E. Schultz,  S. Sharma,  N. Shenvi,  C. D. Sherrill,  
 A. C. Simmonett,  A. Sodt,  T. Stein,  D. Stuck,  K. S. Thanthiriwatte,  
 V. Vanovschi,  L. Vogt,  Tao Wang,  A. Warshel,  M. A. Watson,  
 C. F. Williams,  Q. Wu,  X. Xu,  Jun Yang,  W. Zhang,  Yan Zhao

 Please cite Q-Chem as follows:
 Y. Shao et al., Mol. Phys. 113, 184-215 (2015)
 DOI: 10.1080/00268976.2014.952696

 Q-Chem 5.4.1 for Intel X86 EM64T Linux

 Parts of Q-Chem use Armadillo 9.800.1 (Horizon Scraper).
 http://arma.sourceforge.net/

 Q-Chem begins on Thu Nov 17 00:23:29 2022  

 Host: cpu316.baobab
0

     Scratch files written to /scratch/fum/qchem17597//
 Processing $rem in /home/share/wesolowski/qc5.aug2021.FDE/config/preferences:
 Processing $rem in /home/fum/.qchemrc:

 Checking the input file for inconsistencies... 	...done.

--------------------------------------------------------------
User input:
--------------------------------------------------------------
$comment
generated from CCJob.Templates
$end

$rem
sym_ignore = true
method = adc(2)
ee_states = 10
basis = cc-pVDZ
mem_static = 1024
mem_total = 30000
adc_davidson_maxiter = 900
adc_davidson_conv = 6
adc_print = 3
adc_prop_es = true
adc_prop_es2es = true
adc_prop_tpa = true
molden_format = True
state_analysis = true
print_orbitals = 15
gen_scfman = false
fde_export_density = true
fde_details = 3
$end

$molecule
0 1
H -0.0348278765 -0.2442097827 0.0636489606
C -1.0765972949 -0.5242748755 -0.0073551776
H -1.313264467 -1.5767591607 -0.0757276926
C -2.043634118 0.3926884087 0.0061254933
H -1.8137616575 1.4459188338 0.0804456828
H -3.085977293 0.114931858 -0.0593381042                     
$end
--------------------------------------------------------------
 ----------------------------------------------------------------
             Standard Nuclear Orientation (Angstroms)
    I     Atom           X                Y                Z
 ----------------------------------------------------------------
    1      H      -0.0348278765    -0.2442097827     0.0636489606
    2      C      -1.0765972949    -0.5242748755    -0.0073551776
    3      H      -1.3132644670    -1.5767591607    -0.0757276926
    4      C      -2.0436341180     0.3926884087     0.0061254933
    5      H      -1.8137616575     1.4459188338     0.0804456828
    6      H      -3.0859772930     0.1149318580    -0.0593381042
 ----------------------------------------------------------------
 Nuclear Repulsion Energy =          33.42318566 hartrees
 There are        8 alpha and        8 beta electrons
 Requested basis set is cc-pVDZ
 There are 24 shells and 48 basis functions
 Total memory of 30000 MB is distributed as follows: 
   MEM_STATIC is set to 1024 MB
   QALLOC/CCMAN JOB total memory use is  28976 MB
 Warning: actual memory use might exceed 30000 MB

 Total QAlloc Memory Limit  30000 MB
 Mega-Array Size      1001 MB
 MEM_STATIC part      1024 MB

                       Distance Matrix (Angstroms)
             H (  1)   C (  2)   H (  3)   C (  4)   H (  5)
   C (  2)  1.081093
   H (  3)  1.851895  1.080930
   C (  4)  2.108139  1.332728  2.102109
   H (  5)  2.453859  2.105418  3.067812  1.080583
   H (  6)  3.074674  2.109240  2.450428  1.080700  1.846510

 A cutoff of  1.0D-11 yielded    300 shell pairs
 There are      1220 function pairs (      1329 Cartesian)
 Smallest overlap matrix eigenvalue = 4.80E-03

 Scale SEOQF with 1.000000e-01/1.000000e-01/1.000000e+00

 Standard Electronic Orientation quadrupole field applied
 Nucleus-field energy     =     0.0000000022 hartrees
 Guess from superposition of atomic densities
 Warning:  Energy on first SCF cycle will be non-variational
 SAD guess density has 16.000000 electrons
 A restricted Hartree-Fock SCF calculation will be
 performed using Pulay DIIS extrapolation
 SCF converges when DIIS error is below 1.0E-08
 using 8 threads for integral computing
 -------------------------------------------------------
 OpenMP Integral computing Module                
 Release: version 1.0, May 2013, Q-Chem Inc. Pittsburgh 
 -------------------------------------------------------
 ---------------------------------------
  Cycle       Energy         DIIS Error
 ---------------------------------------
    1     -78.4387582479      1.01E-01
    2     -78.0176831551      7.21E-03
    3     -78.0383146887      1.84E-03
    4     -78.0397975635      5.73E-04
    5     -78.0399191641      5.79E-05
    6     -78.0399210399      9.33E-06
    7     -78.0399211005      2.24E-06
    8     -78.0399211034      9.06E-07
    9     -78.0399211037      9.20E-08
   10     -78.0399211037      1.11E-08
   11     -78.0399211037      2.71E-09 Convergence criterion met
 ---------------------------------------
 SCF time:  CPU 1.54 s  wall 2.14 s
 SCF   energy in the final basis set = -78.03992110
 Total energy in the final basis set = -78.03992110
Exporting Density Matrix to file 'Densmat_SCF.txt'.
Export successful
================================================================================
|                                                                              |
|                                 A D C  M A N                                 |
|                                                                              |
 ------------------------------------------------------------------------------ 
|                                                                              |
| Components:                                                                  |
|                                                                              |
| - libvmm - 1.3-trunk                                                         |
|   Authors:                                                                   |
|   Evgeny Epifanovsky, Ilya Kaliman                                           |
|                                                                              |
| - libtensor - 2.5-trunk                                                      |
|   Authors:                                                                   |
|   Evgeny Epifanovsky, Michael Wormit, Dmitry Zuev, Sam Manzer,               |
|   Ilya Kaliman                                                               |
|                                                                              |
| - libwfa - 1.1-trunk                                                         |
|   Authors:                                                                   |
|   Felix Plasser, Stefanie Mewes (Baeppler), Benjamin Thomitzni,              |
|   Michael Wormit, Feng Chen, Anna I. Krylov, Pavel Pokhilko                  |
|                                                                              |
| - libadc - 1.1-trunk                                                         |
|   Authors:                                                                   |
|   Michael Wormit, Adrian L. Dempwolff, Philipp H. P. Harbach,                |
|   Caroline Krauter, Dirk Rehn, Matthias Schneider, Jan Wenzel                |
|                                                                              |
| - adcman - 2.6-trunk                                                         |
|   Authors:                                                                   |
|   Michael Wormit, Adrian L. Dempwolff, Philipp H. P. Harbach,                |
|   Caroline Krauter, Daniel Lefrancois, Jan-Michael Mewes, Dirk Rehn,         |
|   Matthias Schneider, Jan Wenzel, Andreas Dreuw                              |
|                                                                              |
| Authors of earlier versions of ADCMAN:                                       |
| Andreas Dreuw, Jan Hendrik Starcke, Dirk Rehn, Michael Wormit                |
|                                                                              |
================================================================================

 Created directory /scratch/fum/qchem17597/plots
  Import QC data ...  CPU 0.00 s  wall 0.00 s

 Alpha MOs, Restricted
 -- Occupied --                  
-11.235 -11.233  -1.032  -0.790  -0.641  -0.582  -0.505  -0.374
  1 A     2 A     3 A     4 A     5 A     6 A     7 A     8 A                  
 -- Virtual --                   
  0.168   0.204   0.233   0.239   0.303   0.462   0.578   0.615
  9 A    10 A    11 A    12 A    13 A    14 A    15 A    16 A                  
  0.689   0.709   0.785   0.808   0.862   0.936   0.972   1.010
 17 A    18 A    19 A    20 A    21 A    22 A    23 A    24 A                  
  1.130   1.235   1.254   1.266   1.294   1.601   1.727   1.750
 25 A    26 A    27 A    28 A    29 A    30 A    31 A    32 A                  
  1.819   1.859   1.867   1.921   1.977   1.978   2.221   2.258
 33 A    34 A    35 A    36 A    37 A    38 A    39 A    40 A                  
  2.376   2.454   2.506   2.634   2.721   2.822   3.140   3.399
 41 A    42 A    43 A    44 A    45 A    46 A    47 A    48 A                  

 Beta MOs, Restricted
 -- Occupied --                  
-11.235 -11.233  -1.032  -0.790  -0.641  -0.582  -0.505  -0.374
  1 A     2 A     3 A     4 A     5 A     6 A     7 A     8 A                  
 -- Virtual --                   
  0.168   0.204   0.233   0.239   0.303   0.462   0.578   0.615
  9 A    10 A    11 A    12 A    13 A    14 A    15 A    16 A                  
  0.689   0.709   0.785   0.808   0.862   0.936   0.972   1.010
 17 A    18 A    19 A    20 A    21 A    22 A    23 A    24 A                  
  1.130   1.235   1.254   1.266   1.294   1.601   1.727   1.750
 25 A    26 A    27 A    28 A    29 A    30 A    31 A    32 A                  
  1.819   1.859   1.867   1.921   1.977   1.978   2.221   2.258
 33 A    34 A    35 A    36 A    37 A    38 A    39 A    40 A                  
  2.376   2.454   2.506   2.634   2.721   2.822   3.140   3.399
 41 A    42 A    43 A    44 A    45 A    46 A    47 A    48 A                  
  Import AO data ...  CPU 0.00 s  wall 0.00 s
  Using point group: C1
  Irreducible representations in point group: A
  Molecular orbitals: 
  Occupied MOs:
  Block   0:   1 (  A) A   2 (  A) A   3 (  A) A   4 (  A) A   5 (  A) A
                  -11.24      -11.23      -1.032     -0.7898     -0.6411
               6 (  A) A   7 (  A) A   8 (  A) A
                 -0.5819     -0.5046      -0.374
  Block   1:   1 (  A) B   2 (  A) B   3 (  A) B   4 (  A) B   5 (  A) B
                  -11.24      -11.23      -1.032     -0.7898     -0.6411
               6 (  A) B   7 (  A) B   8 (  A) B
                 -0.5819     -0.5046      -0.374
  Virtual MOs:
  Block   0:   9 (  A) A  10 (  A) A  11 (  A) A  12 (  A) A  13 (  A) A
                  0.1684      0.2037       0.233      0.2394      0.3033
              14 (  A) A  15 (  A) A  16 (  A) A  17 (  A) A  18 (  A) A
                   0.462      0.5775      0.6152      0.6892      0.7089
              19 (  A) A  20 (  A) A  21 (  A) A  22 (  A) A
                  0.7845       0.808      0.8623      0.9359
  Block   1:  23 (  A) A  24 (  A) A  25 (  A) A  26 (  A) A  27 (  A) A
                  0.9724        1.01        1.13       1.235       1.254
              28 (  A) A  29 (  A) A  30 (  A) A  31 (  A) A  32 (  A) A
                   1.266       1.294       1.601       1.727        1.75
              33 (  A) A  34 (  A) A  35 (  A) A  36 (  A) A
                   1.819       1.859       1.867       1.921
  Block   2:  37 (  A) A  38 (  A) A  39 (  A) A  40 (  A) A  41 (  A) A
                   1.977       1.978       2.221       2.258       2.376
              42 (  A) A  43 (  A) A  44 (  A) A  45 (  A) A  46 (  A) A
                   2.454       2.506       2.634       2.721       2.822
              47 (  A) A  48 (  A) A
                    3.14       3.399
  Block   3:   9 (  A) B  10 (  A) B  11 (  A) B  12 (  A) B  13 (  A) B
                  0.1684      0.2037       0.233      0.2394      0.3033
              14 (  A) B  15 (  A) B  16 (  A) B  17 (  A) B  18 (  A) B
                   0.462      0.5775      0.6152      0.6892      0.7089
              19 (  A) B  20 (  A) B  21 (  A) B  22 (  A) B
                  0.7845       0.808      0.8623      0.9359
  Block   4:  23 (  A) B  24 (  A) B  25 (  A) B  26 (  A) B  27 (  A) B
                  0.9724        1.01        1.13       1.235       1.254
              28 (  A) B  29 (  A) B  30 (  A) B  31 (  A) B  32 (  A) B
                   1.266       1.294       1.601       1.727        1.75
              33 (  A) B  34 (  A) B  35 (  A) B  36 (  A) B
                   1.819       1.859       1.867       1.921
  Block   5:  37 (  A) B  38 (  A) B  39 (  A) B  40 (  A) B  41 (  A) B
                   1.977       1.978       2.221       2.258       2.376
              42 (  A) B  43 (  A) B  44 (  A) B  45 (  A) B  46 (  A) B
                   2.454       2.506       2.634       2.721       2.822
              47 (  A) B  48 (  A) B
                    3.14       3.399
  Import MO data ...  CPU 0.07 s  wall 0.02 s
  Import HF data ...  CPU 0.93 s  wall 0.23 s
  Import 2e integrals ...  CPU 0.60 s  wall 0.09 s

--------------------------------------------------------------------------------
                                   HF Summary                                   
--------------------------------------------------------------------------------
  Energy:                                                  -78.0399211037 a.u.
  Dip. moment [a.u.]:                  [  -0.000930,    0.000478,    0.003193]
  Total dipole [Debye]:                                               0.008541
  <r^2> [a.u.]:                        [ 175.320265,   34.917270,   11.627125]
  Total <r^2> [a.u.]:                                               221.864660
--------------------------------------------------------------------------------
  HF properties ...  CPU 0.01 s  wall 0.00 s
  MP(1) calculation ...  CPU 0.01 s  wall 0.00 s
  N^6 prerequesite intermediates ...  CPU 0.45 s  wall 0.09 s
  Difference density matrix of state mp2_gs printed to ASCII file 'State_mp2_gs_Difference.txt'
Exporting MP density matrix to file 'Densmat_MP.txt'.
Export successful
  Total density matrix of state mp2_gs printed to ASCII file 'State_mp2_gs_Total.txt'
Exporting MP density matrix to file 'Densmat_MP.txt'.
Export successful

--------------------------------------------------------------------------------
                                 MP(2) Summary                                  
--------------------------------------------------------------------------------
  MP energy contribution:                                   -0.2797074492 a.u.
  Total energy:                                            -78.3196285529 a.u.
  Dip. moment [a.u.]:                  [  -0.000895,    0.000386,    0.003148]
  Total dipole [Debye]:                                               0.008376
  <r^2> [a.u.]:                        [ 175.367020,   34.957929,   11.458951]
  Total <r^2> [a.u.]:                                               221.783900

  Density matrix analysis:
  ------------------------
  NOs
    Occupation of frontier NOs:
       0.0453   1.9383
    Number of electrons: 16.000000
    Number of unpaired electrons: n_u =  0.40344, n_u,nl =  0.04508
    NO participation ratio (PR_NO): 13.857052
  
  
  Mulliken Population Analysis
  Atom      Charge (e)              h+              e-           Del q
  --------------------------------------------------------------------
   1 H        0.051007        0.014029       -0.011202        0.002827
   2 C       -0.100760        0.093231       -0.098849       -0.005617
   3 H        0.050495        0.014076       -0.011191        0.002885
   4 C       -0.101436        0.092982       -0.098905       -0.005923
   5 H        0.050150        0.014120       -0.011185        0.002935
   6 H        0.050544        0.014085       -0.011191        0.002893
  --------------------------------------------------------------------
  Sum:       -0.000000        0.242524       -0.242524        0.000000
  
  Multipole moment analysis of the density matrix
    Molecular charge:                      -0.000000
    Number of electrons:                   16.000000
      Center of electronic charge [Ang]: [ -1.560547,  -0.065615,  -0.000001]
    Total nuclear charge:                  16.000000
      Center of nuclear charge [Ang]:    [ -1.560576,  -0.065602,   0.000103]
    Dipole moment [D]:                     0.008376
      Cartesian components [D]:          [ -0.002275,   0.000981,   0.008001]
    RMS size of the density [Ang]:         1.200834
      Cartesian components [Ang]:        [  0.796197,   0.779436,   0.447830]
  
  Exciton analysis of the difference density matrix
    <r_h> [Ang]:                  [ -1.560344,  -0.065820,  -0.000518]
    <r_e> [Ang]:                  [ -1.560420,  -0.065620,  -0.000419]
    |<r_e - r_h>| [Ang]:            0.000237
    Hole size [Ang]:                1.393711
      Cartesian components [Ang]: [  0.846718,   0.834081,   0.727880]
    Electron size [Ang]:            1.359768
      Cartesian components [Ang]: [  0.877882,   0.861780,   0.579335]
--------------------------------------------------------------------------------
  MP(2) calculation ...  CPU 0.33 s  wall 0.12 s
  Start ADC(2)-s ...  CPU 0.00 s  wall 0.00 s
  ADC(2) intermediates ...  CPU 0.02 s  wall 0.01 s
  Starting Davidson for singlet states of irrep A ... 
--------------------------------------------------------------------------------
   It NVec Conv  Avg. Norm  Max. Norm  Conv. states           Remark
--------------------------------------------------------------------------------
        10    0  1.330e-01  4.687e-01  0.4119 n n n n n n n n Guess.
    1   20    0  2.307e-02  1.109e-01  0.3262 n n n n n n n n 
    2   30    0  5.931e-03  2.508e-02  0.3215 n n n n n n n n 
    3   40    0  2.033e-03  1.110e-02  0.3211 n n n n n n n n 
    4   50    0  5.272e-04  3.350e-03  0.3211 n n n n n n n n 
    5   20    0  2.630e-04  1.627e-03  0.3211 n n n n n n n n Subspace collapsed.
    6   30    0  1.669e-04  1.173e-03  0.3211 n n n n n n n n 
    7   40    0  1.413e-04  1.041e-03  0.3211 n n n n n n n n 
    8   50    0  9.747e-05  8.453e-04  0.3211 n n n n n n n n 
    9   20    1  4.456e-05  3.436e-04  0.3211 n y n n n n n n Subspace collapsed.
   10   30    3  3.299e-05  2.308e-04  0.3211 n y y y n n n n 
   11   40    3  1.658e-05  1.263e-04  0.3211 n y y y n n n n 
   12   50    5  1.012e-05  9.038e-05  0.3211 n y y y y y n n 
   13   20    6  9.055e-06  8.419e-05  0.3211 y y y y y y n n Subspace collapsed.
   14   30    6  1.271e-05  1.214e-04  0.3211 y y y y y y n n 
   15   40    6  1.156e-05  1.131e-04  0.3211 y y y y y y n n 
   16   50    6  9.432e-06  9.319e-05  0.3211 y y y y y y n n 
   17   20    6  4.966e-06  4.911e-05  0.3211 y y y y y y n n Subspace collapsed.
   18   30    6  3.504e-06  3.464e-05  0.3211 y y y y y y n n 
   19   40    7  1.730e-06  1.710e-05  0.3211 y y y y y y n y 
   20   50    8  1.854e-06  1.841e-05  0.3211 y y y y y y y y 
   21   20    9  9.726e-07  9.665e-06  0.3211 y y y y y y y y Subspace collapsed.
   22   30    8  2.143e-06  2.135e-05  0.3211 y y y y y y y y 
   23   40    8  1.884e-06  1.879e-05  0.3211 y y y y y y y y 
   24   41    8  1.890e-06  1.885e-05  0.3211 y y y y y y y y 
   25   42    8  1.886e-06  1.882e-05  0.3211 y y y y y y y y 
   26   43    8  1.824e-06  1.820e-05  0.3211 y y y y y y y y 
   27   43    8  1.824e-06  1.820e-05  0.3211 y y y y y y y y 
   28   50    8  1.840e-06  1.836e-05  0.3211 y y y y y y y y 
   29   16    9  1.178e-06  1.176e-05  0.3211 y y y y y y y y Subspace collapsed.
   30   22    9  9.979e-07  9.960e-06  0.3211 y y y y y y y y 
   31   28    9  6.162e-07  6.153e-06  0.3211 y y y y y y y y 
   32   33    9  7.635e-07  7.627e-06  0.3211 y y y y y y y y 
   33   33    9  7.635e-07  7.627e-06  0.3211 y y y y y y y y 
   34   43    9  8.526e-07  8.522e-06  0.3211 y y y y y y y y 
   35   47    9  5.226e-07  5.224e-06  0.3211 y y y y y y y y 
   36   50    9  2.498e-07  2.497e-06  0.3211 y y y y y y y y 
   37   14    9  1.170e-07  1.170e-06  0.3211 y y y y y y y y Subspace collapsed.
   38   18   10  8.607e-08  8.605e-07  0.3211 y y y y y y y y Converged.
--------------------------------------------------------------------------------
  Davidson Summary: 
 ------------------------------------------------------------
  State  0: excitation energy =   0.3211 a.u.   (converged)
  State  1: excitation energy =   0.3327 a.u.   (converged)
  State  2: excitation energy =   0.3370 a.u.   (converged)
  State  3: excitation energy =   0.3614 a.u.   (converged)
  State  4: excitation energy =   0.3753 a.u.   (converged)
  State  5: excitation energy =   0.3872 a.u.   (converged)
  State  6: excitation energy =   0.4247 a.u.   (converged)
  State  7: excitation energy =   0.4471 a.u.   (converged)
  State  8: excitation energy =   0.4563 a.u.   (converged)
  State  9: excitation energy =   0.4647 a.u.   (converged)
 ------------------------------------------------------------

  Singlet states of irrep A ...  CPU 92.46 s  wall 29.96 s
  TDMs ...  CPU 1.08 s  wall 0.34 s
  SDMs ...  CPU 2.94 s  wall 0.76 s
  Starting TPA DIIS iterations ... 
------------------------------------ 
   It     Res. Norm  Remark
------------------------------------
                       Guess.
    1     4.407e+00  
    2     5.843e+00  
    3     1.078e+00  
    4     2.568e-01  
    5     6.577e-02  
    6     2.676e-02  
    7     8.241e-03  
    8     1.441e-03  
    9     5.346e-04  
   10     9.005e-05  
   11     2.837e-05  
   12     4.404e-06  
   13     1.501e-06  
   14     4.428e-07  Converged.
   ... Converged in 14 steps (norm: 4.42835e-07)
------------------------------------
  Starting TPA DIIS iterations ... 
------------------------------------ 
   It     Res. Norm  Remark
------------------------------------
                       Guess.
    1     4.184e+00  
    2     5.540e+00  
    3     1.029e+00  
    4     2.555e-01  
    5     6.536e-02  
    6     2.672e-02  
    7     8.116e-03  
    8     1.455e-03  
    9     5.378e-04  
   10     8.996e-05  
   11     2.852e-05  
   12     4.414e-06  
   13     1.461e-06  
   14     4.498e-07  Converged.
   ... Converged in 14 steps (norm: 4.49768e-07)
------------------------------------
  Starting TPA DIIS iterations ... 
------------------------------------ 
   It     Res. Norm  Remark
------------------------------------
                       Guess.
    1     6.919e-01  
    2     4.925e-01  
    3     1.739e-01  
    4     1.008e-01  
    5     1.733e-02  
    6     6.257e-03  
    7     1.037e-03  
    8     4.479e-04  
    9     1.235e-04  
   10     2.997e-05  
   11     4.916e-06  
   12     1.671e-06  
   13     1.032e-06  
   14     2.759e-07  Converged.
   ... Converged in 14 steps (norm: 2.75936e-07)
------------------------------------
  Starting TPA DIIS iterations ... 
------------------------------------ 
   It     Res. Norm  Remark
------------------------------------
                       Guess.
    1     4.695e+00  
    2     6.360e+00  
    3     1.159e+00  
    4     2.854e-01  
    5     7.411e-02  
    6     3.041e-02  
    7     9.348e-03  
    8     1.632e-03  
    9     6.100e-04  
   10     1.033e-04  
   11     3.290e-05  
   12     5.149e-06  
   13     1.784e-06  
   14     5.227e-07  Converged.
   ... Converged in 14 steps (norm: 5.22689e-07)
------------------------------------
  Starting TPA DIIS iterations ... 
------------------------------------ 
   It     Res. Norm  Remark
------------------------------------
                       Guess.
    1     4.456e+00  
    2     6.029e+00  
    3     1.106e+00  
    4     2.837e-01  
    5     7.367e-02  
    6     3.039e-02  
    7     9.209e-03  
    8     1.649e-03  
    9     6.138e-04  
   10     1.032e-04  
   11     3.306e-05  
   12     5.170e-06  
   13     1.728e-06  
   14     5.338e-07  Converged.
   ... Converged in 14 steps (norm: 5.33805e-07)
------------------------------------
  Starting TPA DIIS iterations ... 
------------------------------------ 
   It     Res. Norm  Remark
------------------------------------
                       Guess.
    1     7.045e-01  
    2     5.113e-01  
    3     1.844e-01  
    4     1.134e-01  
    5     1.871e-02  
    6     6.898e-03  
    7     1.171e-03  
    8     5.281e-04  
    9     1.494e-04  
   10     3.442e-05  
   11     5.557e-06  
   12     1.946e-06  
   13     1.238e-06  
   14     3.329e-07  Converged.
   ... Converged in 14 steps (norm: 3.32948e-07)
------------------------------------
  Starting TPA DIIS iterations ... 
------------------------------------ 
   It     Res. Norm  Remark
------------------------------------
                       Guess.
    1     4.808e+00  
    2     6.566e+00  
    3     1.191e+00  
    4     2.970e-01  
    5     7.749e-02  
    6     3.190e-02  
    7     9.797e-03  
    8     1.709e-03  
    9     6.408e-04  
   10     1.087e-04  
   11     3.477e-05  
   12     5.457e-06  
   13     1.904e-06  
   14     5.560e-07  Converged.
   ... Converged in 14 steps (norm: 5.55974e-07)
------------------------------------
  Starting TPA DIIS iterations ... 
------------------------------------ 
   It     Res. Norm  Remark
------------------------------------
                       Guess.
    1     4.563e+00  
    2     6.225e+00  
    3     1.137e+00  
    4     2.952e-01  
    5     7.703e-02  
    6     3.188e-02  
    7     9.652e-03  
    8     1.728e-03  
    9     6.447e-04  
   10     1.087e-04  
   11     3.494e-05  
   12     5.483e-06  
   13     1.839e-06  
   14     5.690e-07  Converged.
   ... Converged in 14 steps (norm: 5.69042e-07)
------------------------------------
  Starting TPA DIIS iterations ... 
------------------------------------ 
   It     Res. Norm  Remark
------------------------------------
                       Guess.
    1     7.092e-01  
    2     5.185e-01  
    3     1.884e-01  
    4     1.185e-01  
    5     1.926e-02  
    6     7.158e-03  
    7     1.226e-03  
    8     5.616e-04  
    9     1.602e-04  
   10     3.589e-05  
   11     5.811e-06  
   12     2.059e-06  
   13     1.323e-06  
   14     3.569e-07  Converged.
   ... Converged in 14 steps (norm: 3.56911e-07)
------------------------------------
  Starting TPA DIIS iterations ... 
------------------------------------ 
   It     Res. Norm  Remark
------------------------------------
                       Guess.
    1     5.549e+00  
    2     7.947e+00  
    3     1.398e+00  
    4     3.772e-01  
    5     1.008e-01  
    6     4.229e-02  
    7     1.290e-02  
    8     2.243e-03  
    9     8.553e-04  
   10     1.465e-04  
   11     4.812e-05  
   12     7.653e-06  
   13     2.799e-06  
   14     8.016e-07  Converged.
   ... Converged in 14 steps (norm: 8.01604e-07)
------------------------------------
  Starting TPA DIIS iterations ... 
------------------------------------ 
   It     Res. Norm  Remark
------------------------------------
                       Guess.
    1     5.264e+00  
    2     7.533e+00  
    3     1.334e+00  
    4     3.741e-01  
    5     1.003e-01  
    6     4.233e-02  
    7     1.272e-02  
    8     2.270e-03  
    9     8.607e-04  
   10     1.466e-04  
   11     4.829e-05  
   12     7.736e-06  
   13     2.663e-06  
   14     8.311e-07  Converged.
   ... Converged in 14 steps (norm: 8.31144e-07)
------------------------------------
  Starting TPA DIIS iterations ... 
------------------------------------ 
   It     Res. Norm  Remark
------------------------------------
                       Guess.
    1     7.374e-01  
    2     5.639e-01  
    3     2.145e-01  
    4     1.523e-01  
    5     2.295e-02  
    6     8.953e-03  
    7     1.624e-03  
    8     7.999e-04  
    9     2.356e-04  
   10     4.171e-05  
   11     7.507e-06  
   12     2.848e-06  
   13     1.935e-06  
   14     5.340e-07  Converged.
   ... Converged in 14 steps (norm: 5.34012e-07)
------------------------------------
  Starting TPA DIIS iterations ... 
------------------------------------ 
   It     Res. Norm  Remark
------------------------------------
                       Guess.
    1     6.059e+00  
    2     8.932e+00  
    3     1.540e+00  
    4     4.366e-01  
    5     1.182e-01  
    6     5.007e-02  
    7     1.521e-02  
    8     2.636e-03  
    9     1.016e-03  
   10     1.749e-04  
   11     5.837e-05  
   12     9.338e-06  
   13     3.536e-06  
   14     1.003e-06  
   15     5.647e-07  Converged.
   ... Converged in 15 steps (norm: 5.64724e-07)
------------------------------------
  Starting TPA DIIS iterations ... 
------------------------------------ 
   It     Res. Norm  Remark
------------------------------------
                       Guess.
    1     5.747e+00  
    2     8.467e+00  
    3     1.469e+00  
    4     4.326e-01  
    5     1.176e-01  
    6     5.017e-02  
    7     1.500e-02  
    8     2.671e-03  
    9     1.022e-03  
   10     1.750e-04  
   11     5.853e-05  
   12     9.488e-06  
   13     3.325e-06  
   14     1.046e-06  
   15     3.340e-07  Converged.
   ... Converged in 15 steps (norm: 3.33992e-07)
------------------------------------
  Starting TPA DIIS iterations ... 
------------------------------------ 
   It     Res. Norm  Remark
------------------------------------
                       Guess.
    1     7.547e-01  
    2     5.935e-01  
    3     2.320e-01  
    4     1.758e-01  
    5     2.559e-02  
    6     1.028e-02  
    7     1.936e-03  
    8     9.720e-04  
    9     2.892e-04  
   10     4.297e-05  
   11     8.746e-06  
   12     3.425e-06  
   13     2.392e-06  
   14     6.758e-07  Converged.
   ... Converged in 14 steps (norm: 6.75842e-07)
------------------------------------
  Starting TPA DIIS iterations ... 
------------------------------------ 
   It     Res. Norm  Remark
------------------------------------
                       Guess.
    1     6.559e+00  
    2     9.922e+00  
    3     1.679e+00  
    4     4.978e-01  
    5     1.360e-01  
    6     5.816e-02  
    7     1.758e-02  
    8     3.041e-03  
    9     1.183e-03  
   10     2.043e-04  
   11     6.915e-05  
   12     1.110e-05  
   13     4.353e-06  
   14     1.233e-06  
   15     7.419e-07  Converged.
   ... Converged in 15 steps (norm: 7.41898e-07)
------------------------------------
  Starting TPA DIIS iterations ... 
------------------------------------ 
   It     Res. Norm  Remark
------------------------------------
                       Guess.
    1     6.220e+00  
    2     9.404e+00  
    3     1.601e+00  
    4     4.927e-01  
    5     1.353e-01  
    6     5.832e-02  
    7     1.734e-02  
    8     3.083e-03  
    9     1.190e-03  
   10     2.045e-04  
   11     6.929e-05  
   12     1.135e-05  
   13     4.046e-06  
   14     1.285e-06  
   15     4.136e-07  Converged.
   ... Converged in 15 steps (norm: 4.13553e-07)
------------------------------------
  Starting TPA DIIS iterations ... 
------------------------------------ 
   It     Res. Norm  Remark
------------------------------------
                       Guess.
    1     7.703e-01  
    2     6.216e-01  
    3     2.488e-01  
    4     1.985e-01  
    5     2.825e-02  
    6     1.166e-02  
    7     2.269e-03  
    8     1.136e-03  
    9     3.406e-04  
   10     4.346e-05  
   11     1.003e-05  
   12     4.009e-06  
   13     2.855e-06  
   14     8.293e-07  Converged.
   ... Converged in 14 steps (norm: 8.29269e-07)
------------------------------------
  Starting TPA DIIS iterations ... 
------------------------------------ 
   It     Res. Norm  Remark
------------------------------------
                       Guess.
    1     8.668e+00  
    2     1.434e+01  
    3     2.252e+00  
    4     7.834e-01  
    5     2.192e-01  
    6     9.673e-02  
    7     2.866e-02  
    8     4.920e-03  
    9     1.977e-03  
   10     3.434e-04  
   11     1.207e-04  
   12     1.954e-05  
   13     8.881e-06  
   14     2.732e-06  
   15     1.869e-06  
   16     8.095e-07  Converged.
   ... Converged in 16 steps (norm: 8.09545e-07)
------------------------------------
  Starting TPA DIIS iterations ... 
------------------------------------ 
   It     Res. Norm  Remark
------------------------------------
                       Guess.
    1     8.217e+00  
    2     1.359e+01  
    3     2.146e+00  
    4     7.722e-01  
    5     2.183e-01  
    6     9.725e-02  
    7     2.830e-02  
    8     5.000e-03  
    9     1.988e-03  
   10     3.443e-04  
   11     1.208e-04  
   12     2.064e-05  
   13     7.792e-06  
   14     2.627e-06  
   15     8.593e-07  Converged.
   ... Converged in 15 steps (norm: 8.59301e-07)
------------------------------------
  Starting TPA DIIS iterations ... 
------------------------------------ 
   It     Res. Norm  Remark
------------------------------------
                       Guess.
    1     8.254e-01  
    2     7.322e-01  
    3     3.165e-01  
    4     2.846e-01  
    5     4.012e-02  
    6     1.797e-02  
    7     3.938e-03  
    8     1.658e-03  
    9     5.390e-04  
   10     5.191e-05  
   11     1.632e-05  
   12     6.683e-06  
   13     4.960e-06  
   14     1.596e-06  
   15     5.633e-07  Converged.
   ... Converged in 15 steps (norm: 5.63293e-07)
------------------------------------
  Starting TPA DIIS iterations ... 
------------------------------------ 
   It     Res. Norm  Remark
------------------------------------
                       Guess.
    1     1.049e+01  
    2     1.844e+01  
    3     2.735e+00  
    4     1.058e+00  
    5     3.000e-01  
    6     1.351e-01  
    7     3.942e-02  
    8     6.735e-03  
    9     2.764e-03  
   10     4.797e-04  
   11     1.704e-04  
   12     2.787e-05  
   13     1.430e-05  
   14     5.060e-06  
   15     3.424e-06  
   16     1.644e-06  
   17     9.083e-07  Converged.
   ... Converged in 17 steps (norm: 9.08301e-07)
------------------------------------
  Starting TPA DIIS iterations ... 
------------------------------------ 
   It     Res. Norm  Remark
------------------------------------
                       Guess.
    1     9.944e+00  
    2     1.747e+01  
    3     2.605e+00  
    4     1.040e+00  
    5     2.990e-01  
    6     1.360e-01  
    7     3.893e-02  
    8     6.852e-03  
    9     2.777e-03  
   10     4.815e-04  
   11     1.707e-04  
   12     3.050e-05  
   13     1.183e-05  
   14     4.198e-06  
   15     1.465e-06  
   16     6.993e-07  Converged.
   ... Converged in 16 steps (norm: 6.99267e-07)
------------------------------------
  Starting TPA DIIS iterations ... 
------------------------------------ 
   It     Res. Norm  Remark
------------------------------------
                       Guess.
    1     8.641e-01  
    2     8.216e-01  
    3     3.714e-01  
    4     3.434e-01  
    5     5.102e-02  
    6     2.370e-02  
    7     5.622e-03  
    8     1.874e-03  
    9     6.910e-04  
   10     6.953e-05  
   11     2.263e-05  
   12     9.427e-06  
   13     7.420e-06  
   14     2.292e-06  
   15     8.399e-07  Converged.
   ... Converged in 15 steps (norm: 8.39937e-07)
------------------------------------
  Starting TPA DIIS iterations ... 
------------------------------------ 
   It     Res. Norm  Remark
------------------------------------
                       Guess.
    1     1.143e+01  
    2     2.064e+01  
    3     2.980e+00  
    4     1.207e+00  
    5     3.443e-01  
    6     1.563e-01  
    7     4.532e-02  
    8     7.727e-03  
    9     3.201e-03  
   10     5.545e-04  
   11     1.972e-04  
   12     3.252e-05  
   13     1.768e-05  
   14     6.696e-06  
   15     4.482e-06  
   16     2.213e-06  
   17     1.140e-06  
   18     4.849e-07  Converged.
   ... Converged in 18 steps (norm: 4.84924e-07)
------------------------------------
  Starting TPA DIIS iterations ... 
------------------------------------ 
   It     Res. Norm  Remark
------------------------------------
                       Guess.
    1     1.083e+01  
    2     1.956e+01  
    3     2.837e+00  
    4     1.185e+00  
    5     3.431e-01  
    6     1.575e-01  
    7     4.475e-02  
    8     7.865e-03  
    9     3.215e-03  
   10     5.570e-04  
   11     1.978e-04  
   12     3.626e-05  
   13     1.416e-05  
   14     5.148e-06  
   15     1.901e-06  
   16     9.130e-07  Converged.
   ... Converged in 16 steps (norm: 9.13024e-07)
------------------------------------
  Starting TPA DIIS iterations ... 
------------------------------------ 
   It     Res. Norm  Remark
------------------------------------
                       Guess.
    1     8.819e-01  
    2     8.664e-01  
    3     3.985e-01  
    4     3.686e-01  
    5     5.680e-02  
    6     2.661e-02  
    7     6.541e-03  
    8     1.932e-03  
    9     7.649e-04  
   10     8.022e-05  
   11     2.614e-05  
   12     1.109e-05  
   13     9.185e-06  
   14     2.607e-06  
   15     1.013e-06  
   16     3.184e-07  Converged.
   ... Converged in 16 steps (norm: 3.18355e-07)
------------------------------------
  Starting TPA DIIS iterations ... 
------------------------------------ 
   It     Res. Norm  Remark
------------------------------------
                       Guess.
    1     1.241e+01  
    2     2.298e+01  
    3     3.230e+00  
    4     1.366e+00  
    5     3.920e-01  
    6     1.795e-01  
    7     5.167e-02  
    8     8.795e-03  
    9     3.674e-03  
   10     6.350e-04  
   11     2.260e-04  
   12     3.763e-05  
   13     2.161e-05  
   14     8.694e-06  
   15     5.794e-06  
   16     2.920e-06  
   17     1.401e-06  
   18     6.234e-07  Converged.
   ... Converged in 18 steps (norm: 6.23445e-07)
------------------------------------
  Starting TPA DIIS iterations ... 
------------------------------------ 
   It     Res. Norm  Remark
------------------------------------
                       Guess.
    1     1.176e+01  
    2     2.178e+01  
    3     3.075e+00  
    4     1.340e+00  
    5     3.907e-01  
    6     1.809e-01  
    7     5.102e-02  
    8     8.955e-03  
    9     3.690e-03  
   10     6.384e-04  
   11     2.270e-04  
   12     4.274e-05  
   13     1.674e-05  
   14     6.244e-06  
   15     2.458e-06  
   16     1.180e-06  
   17     6.228e-07  Converged.
   ... Converged in 17 steps (norm: 6.22774e-07)
------------------------------------
  Starting TPA DIIS iterations ... 
------------------------------------ 
   It     Res. Norm  Remark
------------------------------------
                       Guess.
    1     8.993e-01  
    2     9.124e-01  
    3     4.258e-01  
    4     3.919e-01  
    5     6.290e-02  
    6     2.952e-02  
    7     7.518e-03  
    8     1.975e-03  
    9     8.395e-04  
   10     9.169e-05  
   11     2.994e-05  
   12     1.306e-05  
   13     1.148e-05  
   14     2.886e-06  
   15     1.223e-06  
   16     3.705e-07  Converged.
   ... Converged in 16 steps (norm: 3.7052e-07)
------------------------------------
  Two-photon absorbption ...  CPU 86.65 s  wall 21.59 s
  Transition density matrix of state singlet_A_1 printed to ASCII file 'State_singlet_A_1_Transition.txt'
  Transition density matrix of state singlet_A_2 printed to ASCII file 'State_singlet_A_2_Transition.txt'
  Transition density matrix of state singlet_A_3 printed to ASCII file 'State_singlet_A_3_Transition.txt'
  Transition density matrix of state singlet_A_4 printed to ASCII file 'State_singlet_A_4_Transition.txt'
  Transition density matrix of state singlet_A_5 printed to ASCII file 'State_singlet_A_5_Transition.txt'
  Transition density matrix of state singlet_A_6 printed to ASCII file 'State_singlet_A_6_Transition.txt'
  Transition density matrix of state singlet_A_7 printed to ASCII file 'State_singlet_A_7_Transition.txt'
  Transition density matrix of state singlet_A_8 printed to ASCII file 'State_singlet_A_8_Transition.txt'
  Transition density matrix of state singlet_A_9 printed to ASCII file 'State_singlet_A_9_Transition.txt'
  Transition density matrix of state singlet_A_10 printed to ASCII file 'State_singlet_A_10_Transition.txt'
  Transition properties ...  CPU 0.13 s  wall 0.36 s
  Difference density matrix of state singlet_A_1 printed to ASCII file 'State_singlet_A_1_Difference.txt'
  Total density matrix of state singlet_A_1 printed to ASCII file 'State_singlet_A_1_Total.txt'
  Difference density matrix of state singlet_A_2 printed to ASCII file 'State_singlet_A_2_Difference.txt'
  Total density matrix of state singlet_A_2 printed to ASCII file 'State_singlet_A_2_Total.txt'
  Difference density matrix of state singlet_A_3 printed to ASCII file 'State_singlet_A_3_Difference.txt'
  Total density matrix of state singlet_A_3 printed to ASCII file 'State_singlet_A_3_Total.txt'
  Difference density matrix of state singlet_A_4 printed to ASCII file 'State_singlet_A_4_Difference.txt'
  Total density matrix of state singlet_A_4 printed to ASCII file 'State_singlet_A_4_Total.txt'
  Difference density matrix of state singlet_A_5 printed to ASCII file 'State_singlet_A_5_Difference.txt'
  Total density matrix of state singlet_A_5 printed to ASCII file 'State_singlet_A_5_Total.txt'
  Difference density matrix of state singlet_A_6 printed to ASCII file 'State_singlet_A_6_Difference.txt'
  Total density matrix of state singlet_A_6 printed to ASCII file 'State_singlet_A_6_Total.txt'
  Difference density matrix of state singlet_A_7 printed to ASCII file 'State_singlet_A_7_Difference.txt'
  Total density matrix of state singlet_A_7 printed to ASCII file 'State_singlet_A_7_Total.txt'
  Difference density matrix of state singlet_A_8 printed to ASCII file 'State_singlet_A_8_Difference.txt'
  Total density matrix of state singlet_A_8 printed to ASCII file 'State_singlet_A_8_Total.txt'
  Difference density matrix of state singlet_A_9 printed to ASCII file 'State_singlet_A_9_Difference.txt'
  Total density matrix of state singlet_A_9 printed to ASCII file 'State_singlet_A_9_Total.txt'
  Difference density matrix of state singlet_A_10 printed to ASCII file 'State_singlet_A_10_Difference.txt'
  Total density matrix of state singlet_A_10 printed to ASCII file 'State_singlet_A_10_Total.txt'
  Properties ...  CPU 0.23 s  wall 0.43 s
  ISR TDMS ...  CPU 17.17 s  wall 4.68 s
  ISR transition properties ...  CPU 0.29 s  wall 0.10 s
  Sum-over-states TPA ...  CPU 0.00 s  wall 0.00 s

--------------------------------------------------------------------------------
                   State-averaged natural transition orbitals
--------------------------------------------------------------------------------
--------------------------------------------------------------------------------
  SA-NTO decomposition ...  CPU 0.01 s  wall 0.02 s

--------------------------------------------------------------------------------
                             Excited State Summary
--------------------------------------------------------------------------------
--------------------------------------------------------------------------------

  Excited state 1 (singlet, A)                                     [converged]
  ----------------------------------------------------------------------------
  Term symbol:  2 (1) A                                     R^2 =  7.01896e-14

  Total energy:                                            -77.9985627236 a.u.
  Excitation energy:                                               8.736646 eV

  Osc. strength:                                                      0.445587
  Trans. dip. moment [a.u.]:           [  -1.045766,    0.993924,    0.015657]
  <i|r^2|0> [a.u.]:                    [  -6.166360,    0.246810,    0.000551]
  Two-photon absorption cross-section (SoS) [a.u.]:                   0.000491
  Two-photon absorption matrix (SoS) [a.u.]:
                                       |   -0.005038    0.001631    0.002365 |
                                       |    0.001631   -0.001649   -0.001474 |
                                       |    0.002365   -0.001474   -0.004033 |
  Two-photon absorption cross-section [a.u.]:                         0.000675
  Two-photon absorption matrix [a.u.]:
                                       |    0.000458    0.002799    0.003804 |
                                       |    0.002799    0.006442   -0.005673 |
                                       |    0.003804   -0.005673   -0.003498 |

  Dip. moment [a.u.]:                  [  -0.000901,    0.000240,    0.003901]
  Total dipole [Debye]:                                               0.010194
  <r^2> [a.u.]:                        [ 176.120855,   35.648387,   11.868803]
  Total <r^2> [a.u.]:                                               223.638045

  V1^2 = 0.9715, V2^2 = 0.0285

  Important amplitudes:
      occ i     occ j     vir a      vir b          v   
    -----------------------------------------------------
     8 (A) A              9 (A) A                -0.6811
     6 (A) A             14 (A) A                 0.0623
     4 (A) A             10 (A) A                 0.0606
     7 (A) A             16 (A) A                -0.0569
     5 (A) A             13 (A) A                 0.0513
     6 (A) A             23 (A) A                 0.0486
     8 (A) A             20 (A) A                -0.0350
     6 (A) A             19 (A) A                 0.0309
     3 (A) A             12 (A) A                -0.0281
     5 (A) A             22 (A) A                -0.0215
     7 (A) A             11 (A) A                -0.0209
     4 (A) A             24 (A) A                 0.0187
     3 (A) A             26 (A) A                 0.0185
     8 (A) A   8 (A) B   17 (A) A   20 (A) B      0.0184
     8 (A) A   8 (A) B    9 (A) A   28 (A) B      0.0168
     6 (A) A             26 (A) A                 0.0163
     7 (A) A             21 (A) A                -0.0148
     3 (A) A             14 (A) A                 0.0139
     6 (A) A             12 (A) A                 0.0132
     3 (A) A   4 (A) B    9 (A) A    9 (A) B     -0.0129
     3 (A) A             19 (A) A                 0.0119
     8 (A) A   8 (A) B   18 (A) A   19 (A) B     -0.0113
     7 (A) A             32 (A) A                -0.0096
     7 (A) A             36 (A) A                -0.0086
     3 (A) A             23 (A) A                 0.0080
     8 (A) A   8 (A) B   25 (A) A   29 (A) B     -0.0076
     6 (A) A             35 (A) A                 0.0072
     6 (A) A             40 (A) A                 0.0068
     3 (A) A   6 (A) B    9 (A) A   28 (A) B      0.0065
     6 (A) A   8 (A) A   19 (A) A   28 (A) A      0.0061
     5 (A) A   7 (A) B    9 (A) A    9 (A) B      0.0060
     5 (A) A   8 (A) B   11 (A) A   20 (A) B      0.0059
     7 (A) A   8 (A) B   13 (A) A   20 (A) B     -0.0059
     5 (A) A   8 (A) B   16 (A) A    9 (A) B      0.0059
     5 (A) A   8 (A) B   11 (A) A    9 (A) B     -0.0059
     3 (A) A   5 (A) B    9 (A) A   25 (A) B      0.0058
     3 (A) A             40 (A) A                 0.0057
     7 (A) A   8 (A) B   22 (A) A   20 (A) B      0.0057
     6 (A) A   8 (A) A    9 (A) A   18 (A) A      0.0057
     8 (A) A   8 (A) B   19 (A) A   30 (A) B     -0.0056
    -----------------------------------------------------

  Density matrix analysis:
  ------------------------
  NOs
    Occupation of frontier NOs:
       0.9495   1.0217
    Number of electrons: 16.000000
    Number of unpaired electrons: n_u =  2.31340, n_u,nl =  2.03264
    NO participation ratio (PR_NO):  2.863917
  
  
  Mulliken Population Analysis
  Atom      Charge (e)              h+              e-           Del q
  --------------------------------------------------------------------
   1 H        0.058728        0.020289       -0.012568        0.007721
   2 C       -0.115946        0.490892       -0.506078       -0.015186
   3 H        0.058049        0.020174       -0.012621        0.007553
   4 C       -0.116975        0.490725       -0.506264       -0.015540
   5 H        0.057805        0.020211       -0.012556        0.007655
   6 H        0.058340        0.020317       -0.012521        0.007796
  --------------------------------------------------------------------
  Sum:       -0.000000        1.062608       -1.062608        0.000000
  
  Multipole moment analysis of the density matrix
    Molecular charge:                      -0.000000
    Number of electrons:                   16.000000
      Center of electronic charge [Ang]: [ -1.560546,  -0.065610,  -0.000026]
    Total nuclear charge:                  16.000000
      Center of nuclear charge [Ang]:    [ -1.560576,  -0.065602,   0.000103]
    Dipole moment [D]:                     0.010194
      Cartesian components [D]:          [ -0.002289,   0.000610,   0.009915]
    RMS size of the density [Ang]:         1.214271
      Cartesian components [Ang]:        [  0.804440,   0.787150,   0.455769]
  
  Exciton analysis of the difference density matrix
    <r_h> [Ang]:                  [ -1.560160,  -0.065727,  -0.001586]
    <r_e> [Ang]:                  [ -1.560157,  -0.065654,  -0.001961]
    |<r_e - r_h>| [Ang]:            0.000382
    Hole size [Ang]:                1.285454
      Cartesian components [Ang]: [  0.728478,   0.712646,   0.783484]
    Electron size [Ang]:            1.463226
      Cartesian components [Ang]: [  0.854018,   0.830560,   0.849620]

  Transition density matrix analysis:
  -----------------------------------
  
  CT numbers (Mulliken)
    omega =     0.9535
    <Phe> =    -0.1607
  
  Exciton analysis of the transition density matrix
    Trans. dipole moment [D]:             1.833653
      Cartesian components [D]:         [ -1.329036,   1.263151,   0.019897]
    <r_h> [Ang]:                        [ -1.560034,  -0.065869,  -0.001292]
    <r_e> [Ang]:                        [ -1.560165,  -0.065630,  -0.002212]
    |<r_e - r_h>| [Ang]:                  0.000959
    Hole size [Ang]:                      1.214167
      Cartesian components [Ang]:       [  0.649581,   0.636468,   0.804459]
    Electron size [Ang]:                  1.486078
      Cartesian components [Ang]:       [  0.864472,   0.839445,   0.869741]
    RMS electron-hole separation [Ang]:   1.936761
      Cartesian components [Ang]:       [  1.106778,   1.075179,   1.170501]
    Covariance(r_h, r_e) [Ang^2]:        -0.034205
    Correlation coefficient:             -0.018957
    Center-of-mass size [Ang]:            0.950555
      Cartesian components [Ang]:       [  0.527631,   0.515633,   0.599403]

  Decomposition into state-averaged NTOs
    H- 0 -> L+ 0: -0.6699 ( 89.8%)
    H- 2 -> L+ 5:  0.0837 (  1.4%)
                   omega =  95.4%
  ----------------------------------------------------------------------------


  Excited state 2 (singlet, A)                                     [converged]
  ----------------------------------------------------------------------------
  Term symbol:  3 (1) A                                     R^2 =  1.21511e-13

  Total energy:                                            -77.9868890639 a.u.
  Excitation energy:                                               9.054302 eV

  Osc. strength:                                                      0.000007
  Trans. dip. moment [a.u.]:           [   0.001993,   -0.005102,    0.001298]
  <i|r^2|0> [a.u.]:                    [  -0.041675,   -0.098248,    0.150492]
  Two-photon absorption cross-section (SoS) [a.u.]:                   4.892055
  Two-photon absorption matrix (SoS) [a.u.]:
                                       |   -0.034178   -0.057860    0.541925 |
                                       |   -0.057860   -0.082183    0.551007 |
                                       |    0.541925    0.551007    0.117525 |
  Two-photon absorption cross-section [a.u.]:                         0.091348
  Two-photon absorption matrix [a.u.]:
                                       |    0.048104    0.009157   -0.058249 |
                                       |    0.009157   -0.033355   -0.078214 |
                                       |   -0.058249   -0.078214   -0.014907 |

  Dip. moment [a.u.]:                  [  -0.005545,    0.008048,    0.007449]
  Total dipole [Debye]:                                               0.031233
  <r^2> [a.u.]:                        [ 174.505807,   33.975174,   13.174430]
  Total <r^2> [a.u.]:                                               221.655411

  V1^2 = 0.9542, V2^2 = 0.0458

  Important amplitudes:
      occ i     occ j     vir a      vir b          v   
    -----------------------------------------------------
     7 (A) A              9 (A) A                 0.6692
     8 (A) A             11 (A) A                 0.1481
     7 (A) A             20 (A) A                 0.0759
     5 (A) A   8 (A) B    9 (A) A    9 (A) B     -0.0316
     8 (A) A             16 (A) A                -0.0273
     8 (A) A             21 (A) A                 0.0175
     5 (A) A             28 (A) A                -0.0151
     4 (A) A   7 (A) B    9 (A) A   19 (A) B     -0.0135
     5 (A) A   7 (A) B    9 (A) A   16 (A) B      0.0134
     7 (A) A   8 (A) B   20 (A) A   17 (A) B     -0.0105
     7 (A) A   8 (A) A    9 (A) A   28 (A) A      0.0098
     5 (A) A   8 (A) B    9 (A) A   20 (A) B     -0.0096
     4 (A) A   6 (A) B    9 (A) A   16 (A) B      0.0091
     5 (A) A   6 (A) A    9 (A) A   23 (A) A     -0.0091
     5 (A) A   6 (A) A    9 (A) A   14 (A) A     -0.0089
     5 (A) A   6 (A) B    9 (A) A   19 (A) B     -0.0087
     8 (A) A   7 (A) B    9 (A) A   28 (A) B     -0.0085
     4 (A) A   5 (A) A    9 (A) A   10 (A) A      0.0085
     6 (A) A   7 (A) B    9 (A) A   18 (A) B     -0.0083
     5 (A) A   6 (A) B    9 (A) A   23 (A) B     -0.0080
     3 (A) A   7 (A) B    9 (A) A   18 (A) B      0.0080
     5 (A) A   7 (A) A    9 (A) A   16 (A) A      0.0079
     4 (A) A   8 (A) B    9 (A) A   25 (A) B      0.0077
     7 (A) A   8 (A) B   17 (A) A   20 (A) B     -0.0074
     4 (A) A   7 (A) B   19 (A) A    9 (A) B     -0.0074
     5 (A) A   5 (A) B    9 (A) A   13 (A) B     -0.0072
     7 (A) A   8 (A) B   19 (A) A   18 (A) B      0.0072
     5 (A) A   8 (A) A    9 (A) A   20 (A) A     -0.0069
     4 (A) A   5 (A) B    9 (A) A   18 (A) B     -0.0068
     7 (A) A   7 (A) B   20 (A) A   22 (A) B     -0.0065
     7 (A) A   8 (A) B   17 (A) A    9 (A) B     -0.0065
     5 (A) A   6 (A) B    9 (A) A   14 (A) B     -0.0063
     4 (A) A   7 (A) A    9 (A) A   19 (A) A     -0.0061
     4 (A) A   5 (A) B   10 (A) A    9 (A) B     -0.0061
     5 (A) A             38 (A) A                -0.0061
     5 (A) A   7 (A) B   11 (A) A   20 (A) B     -0.0060
     4 (A) A   7 (A) B    9 (A) A   14 (A) B      0.0060
     4 (A) A   8 (A) A    9 (A) A   25 (A) A      0.0057
     6 (A) A   7 (A) A   19 (A) A   28 (A) A     -0.0057
     5 (A) A   7 (A) A   11 (A) A   20 (A) A     -0.0053
    -----------------------------------------------------

  Density matrix analysis:
  ------------------------
  NOs
    Occupation of frontier NOs:
       0.9581   1.0537
    Number of electrons: 16.000000
    Number of unpaired electrons: n_u =  2.35533, n_u,nl =  2.06272
    NO participation ratio (PR_NO):  3.027025
  
  
  Mulliken Population Analysis
  Atom      Charge (e)              h+              e-           Del q
  --------------------------------------------------------------------
   1 H        0.149089        0.121969       -0.023887        0.098082
   2 C       -0.301967        0.270852       -0.472059       -0.201207
   3 H        0.152044        0.126670       -0.025122        0.101549
   4 C       -0.302567        0.273135       -0.474266       -0.201131
   5 H        0.154032        0.127746       -0.023865        0.103882
   6 H        0.149369        0.123670       -0.024845        0.098826
  --------------------------------------------------------------------
  Sum:       -0.000000        1.044043       -1.044043        0.000000
  
  Multipole moment analysis of the density matrix
    Molecular charge:                      -0.000000
    Number of electrons:                   16.000000
      Center of electronic charge [Ang]: [ -1.560393,  -0.065868,  -0.000143]
    Total nuclear charge:                  16.000000
      Center of nuclear charge [Ang]:    [ -1.560576,  -0.065602,   0.000103]
    Dipole moment [D]:                     0.031233
      Cartesian components [D]:          [ -0.014094,   0.020455,   0.018934]
    RMS size of the density [Ang]:         1.200083
      Cartesian components [Ang]:        [  0.786980,   0.768302,   0.480183]
  
  Exciton analysis of the difference density matrix
    <r_h> [Ang]:                  [ -1.564784,  -0.062606,   0.000463]
    <r_e> [Ang]:                  [ -1.562428,  -0.066489,  -0.001717]
    |<r_e - r_h>| [Ang]:            0.005039
    Hole size [Ang]:                1.486319
      Cartesian components [Ang]: [  1.000307,   1.001034,   0.454380]
    Electron size [Ang]:            1.477007
      Cartesian components [Ang]: [  0.881473,   0.859056,   0.816441]

  Transition density matrix analysis:
  -----------------------------------
  
  CT numbers (Mulliken)
    omega =     0.9218
    <Phe> =    -0.0121
  
  Exciton analysis of the transition density matrix
    Trans. dipole moment [D]:             0.007153
      Cartesian components [D]:         [  0.002532,  -0.006483,   0.001650]
    <r_h> [Ang]:                        [ -1.565468,  -0.062029,   0.000918]
    <r_e> [Ang]:                        [ -1.561943,  -0.067013,  -0.002210]
    |<r_e - r_h>| [Ang]:                  0.006859
    Hole size [Ang]:                      1.515003
      Cartesian components [Ang]:       [  1.023059,   1.025406,   0.443988]
    Electron size [Ang]:                  1.474069
      Cartesian components [Ang]:       [  0.872068,   0.848355,   0.832269]
    RMS electron-hole separation [Ang]:   2.093976
      Cartesian components [Ang]:       [  1.328427,   1.315908,   0.942550]
    Covariance(r_h, r_e) [Ang^2]:         0.041713
    Correlation coefficient:              0.018678
    Center-of-mass size [Ang]:            1.066717
      Cartesian components [Ang]:       [  0.679999,   0.672818,   0.472018]

  Decomposition into state-averaged NTOs
    H- 1 -> L+ 0:  0.6616 ( 87.5%)
    H- 0 -> L+ 2: -0.1481 (  4.4%)
                   omega =  92.2%
  ----------------------------------------------------------------------------


  Excited state 3 (singlet, A)                                     [converged]
  ----------------------------------------------------------------------------
  Term symbol:  4 (1) A                                     R^2 =  1.93229e-13

  Total energy:                                            -77.9826140252 a.u.
  Excitation energy:                                               9.170632 eV

  Osc. strength:                                                      0.025221
  Trans. dip. moment [a.u.]:           [   0.022585,    0.013408,   -0.334014]
  <i|r^2|0> [a.u.]:                    [   0.132420,   -0.001234,    0.001923]
  Two-photon absorption cross-section (SoS) [a.u.]:                   0.008647
  Two-photon absorption matrix (SoS) [a.u.]:
                                       |    0.016724    0.001803   -0.010985 |
                                       |    0.001803   -0.007139   -0.007193 |
                                       |   -0.010985   -0.007193    0.027887 |
  Two-photon absorption cross-section [a.u.]:                         0.009375
  Two-photon absorption matrix [a.u.]:
                                       |    0.024162   -0.002576   -0.012987 |
                                       |   -0.002576    0.005450   -0.003178 |
                                       |   -0.012987   -0.003178    0.016804 |

  Dip. moment [a.u.]:                  [   0.000387,    0.010188,   -0.003672]
  Total dipole [Debye]:                                               0.027543
  <r^2> [a.u.]:                        [ 180.868818,   40.604671,   11.029154]
  Total <r^2> [a.u.]:                                               232.502643

  V1^2 = 0.9587, V2^2 = 0.0413

  Important amplitudes:
      occ i     occ j     vir a      vir b          v   
    -----------------------------------------------------
     8 (A) A             10 (A) A                 0.6891
     8 (A) A             24 (A) A                 0.0507
     8 (A) A             18 (A) A                -0.0312
     4 (A) A              9 (A) A                -0.0238
     8 (A) A   8 (A) B    9 (A) A   12 (A) B      0.0219
     8 (A) A   8 (A) B   10 (A) A   17 (A) B      0.0173
     8 (A) A             15 (A) A                 0.0169
     5 (A) A   8 (A) B   11 (A) A   10 (A) B      0.0165
     7 (A) A   8 (A) B   13 (A) A   10 (A) B     -0.0141
     4 (A) A   8 (A) B   12 (A) A   10 (A) B     -0.0111
     6 (A) A   8 (A) A   10 (A) A   15 (A) A     -0.0110
     7 (A) A   8 (A) B   22 (A) A   10 (A) B      0.0108
     6 (A) A   8 (A) B   15 (A) A   10 (A) B      0.0108
     4 (A) A   8 (A) A   10 (A) A   12 (A) A      0.0106
     7 (A) A   8 (A) A   10 (A) A   22 (A) A     -0.0099
     7 (A) A   8 (A) A   10 (A) A   13 (A) A      0.0097
     5 (A) A   8 (A) B   21 (A) A   10 (A) B      0.0094
     5 (A) A   8 (A) A   10 (A) A   11 (A) A     -0.0094
     6 (A) A   8 (A) A   10 (A) A   18 (A) A     -0.0088
     6 (A) A   8 (A) B   10 (A) A   10 (A) B     -0.0087
     7 (A) A   8 (A) A   12 (A) A   16 (A) A      0.0082
     5 (A) A   8 (A) A   10 (A) A   21 (A) A     -0.0080
     3 (A) A   4 (A) B   10 (A) A    9 (A) B      0.0079
     4 (A) A   8 (A) B   19 (A) A   10 (A) B      0.0075
     8 (A) A   8 (A) B    9 (A) A   23 (A) B      0.0075
     8 (A) A   8 (A) B   10 (A) A   28 (A) B     -0.0073
     3 (A) A   8 (A) B   10 (A) A   10 (A) B      0.0072
     5 (A) A   8 (A) B   10 (A) A   11 (A) B      0.0071
     3 (A) A   8 (A) A   10 (A) A   24 (A) A     -0.0071
     7 (A) A   8 (A) B   16 (A) A   12 (A) B     -0.0070
     3 (A) A   8 (A) B   10 (A) A   18 (A) B     -0.0069
     8 (A) A   8 (A) B    9 (A) A   19 (A) B     -0.0068
     6 (A) A   8 (A) B   18 (A) A   10 (A) B      0.0067
     3 (A) A   6 (A) B   10 (A) A   28 (A) B     -0.0062
     7 (A) A   8 (A) B   12 (A) A   11 (A) B      0.0058
     6 (A) A             28 (A) A                 0.0057
     3 (A) A   5 (A) B   10 (A) A   25 (A) B     -0.0056
     5 (A) A   8 (A) A   10 (A) A   16 (A) A      0.0056
     3 (A) A   8 (A) A   10 (A) A   18 (A) A     -0.0056
     4 (A) A   8 (A) A   10 (A) A   23 (A) A      0.0055
    -----------------------------------------------------

  Density matrix analysis:
  ------------------------
  NOs
    Occupation of frontier NOs:
       0.9814   0.9850
    Number of electrons: 16.000000
    Number of unpaired electrons: n_u =  2.28525, n_u,nl =  2.02440
    NO participation ratio (PR_NO):  2.691888
  
  
  Mulliken Population Analysis
  Atom      Charge (e)              h+              e-           Del q
  --------------------------------------------------------------------
   1 H       -0.162824        0.053878       -0.267709       -0.213831
   2 C        0.327709        0.538860       -0.110390        0.428470
   3 H       -0.165774        0.053752       -0.270021       -0.216270
   4 C        0.326781        0.537627       -0.109410        0.428217
   5 H       -0.162714        0.053943       -0.266807       -0.212864
   6 H       -0.163177        0.053894       -0.267615       -0.213721
  --------------------------------------------------------------------
  Sum:       -0.000000        1.291954       -1.291954       -0.000000
  
  Multipole moment analysis of the density matrix
    Molecular charge:                      -0.000000
    Number of electrons:                   16.000000
      Center of electronic charge [Ang]: [ -1.560589,  -0.065939,   0.000225]
    Total nuclear charge:                  16.000000
      Center of nuclear charge [Ang]:    [ -1.560576,  -0.065602,   0.000103]
    Dipole moment [D]:                     0.027543
      Cartesian components [D]:          [  0.000983,   0.025895,  -0.009332]
    RMS size of the density [Ang]:         1.276489
      Cartesian components [Ang]:        [  0.854452,   0.840420,   0.439352]
  
  Exciton analysis of the difference density matrix
    <r_h> [Ang]:                  [ -1.560071,  -0.066011,  -0.000881]
    <r_e> [Ang]:                  [ -1.560596,  -0.070025,   0.001912]
    |<r_e - r_h>| [Ang]:            0.004919
    Hole size [Ang]:                1.410252
      Cartesian components [Ang]: [  0.834023,   0.819755,   0.788174]
    Electron size [Ang]:            2.076028
      Cartesian components [Ang]: [  1.373485,   1.376725,   0.726675]

  Transition density matrix analysis:
  -----------------------------------
  
  CT numbers (Mulliken)
    omega =     0.9259
    <Phe> =    -0.0109
  
  Exciton analysis of the transition density matrix
    Trans. dipole moment [D]:             0.425800
      Cartesian components [D]:         [  0.028702,   0.017040,  -0.424490]
    <r_h> [Ang]:                        [ -1.559770,  -0.065738,  -0.001717]
    <r_e> [Ang]:                        [ -1.560525,  -0.071575,   0.002634]
    |<r_e - r_h>| [Ang]:                  0.007319
    Hole size [Ang]:                      1.212953
      Cartesian components [Ang]:       [  0.636525,   0.623438,   0.823054]
    Electron size [Ang]:                  2.296449
      Cartesian components [Ang]:       [  1.518189,   1.524247,   0.803400]
    RMS electron-hole separation [Ang]:   2.587207
      Cartesian components [Ang]:       [  1.638733,   1.639846,   1.148520]
    Covariance(r_h, r_e) [Ang^2]:         0.025675
    Correlation coefficient:              0.009217
    Center-of-mass size [Ang]:            1.303484
      Cartesian components [Ang]:       [  0.826843,   0.826884,   0.575903]

  Decomposition into state-averaged NTOs
    H- 0 -> L+ 1:  0.6797 ( 92.4%)
                   omega =  92.6%
  ----------------------------------------------------------------------------


  Excited state 4 (singlet, A)                                     [converged]
  ----------------------------------------------------------------------------
  Term symbol:  5 (1) A                                     R^2 =  1.62955e-13

  Total energy:                                            -77.9582608677 a.u.
  Excitation energy:                                               9.833315 eV

  Osc. strength:                                                      0.000001
  Trans. dip. moment [a.u.]:           [  -0.000927,    0.001384,   -0.000684]
  <i|r^2|0> [a.u.]:                    [  -0.020976,   -0.020280,    0.036232]
  Two-photon absorption cross-section (SoS) [a.u.]:                 149.652153
  Two-photon absorption matrix (SoS) [a.u.]:
                                       |   -0.225357   -0.322601    3.017233 |
                                       |   -0.322601   -0.421978    3.028753 |
                                       |    3.017233    3.028753    0.649586 |
  Two-photon absorption cross-section [a.u.]:                        91.957462
  Two-photon absorption matrix [a.u.]:
                                       |   -0.144040   -0.250825    2.362781 |
                                       |   -0.250825   -0.362148    2.375605 |
                                       |    2.362781    2.375605    0.509081 |

  Dip. moment [a.u.]:                  [  -0.009913,   -0.004191,   -0.005360]
  Total dipole [Debye]:                                               0.030559
  <r^2> [a.u.]:                        [ 181.256759,   40.518619,   10.766034]
  Total <r^2> [a.u.]:                                               232.541412

  V1^2 = 0.9635, V2^2 = 0.0365

  Important amplitudes:
      occ i     occ j     vir a      vir b          v   
    -----------------------------------------------------
     8 (A) A             11 (A) A                 0.6697
     7 (A) A              9 (A) A                -0.1502
     8 (A) A             21 (A) A                 0.0781
     8 (A) A             16 (A) A                -0.0646
     8 (A) A   8 (A) B    9 (A) A   13 (A) B     -0.0167
     5 (A) A   8 (A) B   11 (A) A   11 (A) B      0.0155
     8 (A) A   8 (A) B   11 (A) A   17 (A) B      0.0140
     7 (A) A             20 (A) A                -0.0137
     7 (A) A   8 (A) B   13 (A) A   11 (A) B     -0.0127
     8 (A) A             12 (A) A                 0.0116
     5 (A) A   8 (A) A   11 (A) A   21 (A) A     -0.0110
     4 (A) A   8 (A) B   12 (A) A   11 (A) B     -0.0110
     8 (A) A   8 (A) B    9 (A) A   22 (A) B      0.0108
     7 (A) A   8 (A) A   11 (A) A   22 (A) A     -0.0096
     6 (A) A   8 (A) B   15 (A) A   11 (A) B      0.0090
     6 (A) A   8 (A) B   10 (A) A   11 (A) B     -0.0090
     7 (A) A   8 (A) B   22 (A) A   11 (A) B      0.0089
     3 (A) A   4 (A) B   11 (A) A    9 (A) B      0.0083
     3 (A) A   8 (A) B   11 (A) A   18 (A) B     -0.0081
     6 (A) A   8 (A) A   11 (A) A   15 (A) A     -0.0080
     7 (A) A   8 (A) A   13 (A) A   16 (A) A     -0.0078
     7 (A) A   8 (A) A   11 (A) A   13 (A) A      0.0077
     6 (A) A              9 (A) A                 0.0074
     5 (A) A   8 (A) B   21 (A) A   11 (A) B      0.0071
     4 (A) A   8 (A) B   19 (A) A   11 (A) B      0.0070
     5 (A) A   8 (A) B    9 (A) A    9 (A) B      0.0068
     4 (A) A   8 (A) A   11 (A) A   12 (A) A      0.0062
     6 (A) A   8 (A) A   11 (A) A   18 (A) A     -0.0062
     3 (A) A   6 (A) B   11 (A) A   28 (A) B     -0.0060
     6 (A) A   8 (A) B   18 (A) A   11 (A) B      0.0060
     7 (A) A   8 (A) B   16 (A) A   13 (A) B      0.0057
     3 (A) A   8 (A) A   11 (A) A   18 (A) A     -0.0056
     5 (A) A   8 (A) B   10 (A) A   10 (A) B      0.0056
     3 (A) A   8 (A) B   11 (A) A   30 (A) B     -0.0055
     3 (A) A   5 (A) B   11 (A) A   25 (A) B     -0.0054
     6 (A) A   8 (A) B   11 (A) A   10 (A) B     -0.0054
     7 (A) A   8 (A) B   12 (A) A   10 (A) B      0.0054
     8 (A) A   8 (A) B   20 (A) A   22 (A) B      0.0053
     3 (A) A   8 (A) A   11 (A) A   24 (A) A     -0.0053
     5 (A) A   8 (A) A   11 (A) A   16 (A) A      0.0048
    -----------------------------------------------------

  Density matrix analysis:
  ------------------------
  NOs
    Occupation of frontier NOs:
       0.9408   1.0277
    Number of electrons: 16.000000
    Number of unpaired electrons: n_u =  2.31914, n_u,nl =  2.04907
    NO participation ratio (PR_NO):  2.914191
  
  
  Mulliken Population Analysis
  Atom      Charge (e)              h+              e-           Del q
  --------------------------------------------------------------------
   1 H       -0.146542        0.045789       -0.243338       -0.197549
   2 C        0.274960        0.497166       -0.121446        0.375720
   3 H       -0.128661        0.046915       -0.226071       -0.179156
   4 C        0.273222        0.496838       -0.122180        0.374658
   5 H       -0.130077        0.047036       -0.227263       -0.180226
   6 H       -0.142902        0.045861       -0.239307       -0.193446
  --------------------------------------------------------------------
  Sum:       -0.000000        1.179605       -1.179605       -0.000000
  
  Multipole moment analysis of the density matrix
    Molecular charge:                      -0.000000
    Number of electrons:                   16.000000
      Center of electronic charge [Ang]: [ -1.560248,  -0.065464,   0.000280]
    Total nuclear charge:                  16.000000
      Center of nuclear charge [Ang]:    [ -1.560576,  -0.065602,   0.000103]
    Dipole moment [D]:                     0.030559
      Cartesian components [D]:          [ -0.025195,  -0.010654,  -0.013623]
    RMS size of the density [Ang]:         1.277196
      Cartesian components [Ang]:        [  0.859035,   0.839561,   0.434079]
  
  Exciton analysis of the difference density matrix
    <r_h> [Ang]:                  [ -1.560127,  -0.065450,  -0.000994]
    <r_e> [Ang]:                  [ -1.556082,  -0.063397,   0.002822]
    |<r_e - r_h>| [Ang]:            0.005929
    Hole size [Ang]:                1.394839
      Cartesian components [Ang]: [  0.818407,   0.806711,   0.790571]
    Electron size [Ang]:            2.124190
      Cartesian components [Ang]: [  1.442419,   1.403962,   0.678603]

  Transition density matrix analysis:
  -----------------------------------
  
  CT numbers (Mulliken)
    omega =     0.9298
    <Phe> =    -0.0135
  
  Exciton analysis of the transition density matrix
    Trans. dipole moment [D]:             0.002289
      Cartesian components [D]:         [ -0.001178,   0.001760,  -0.000870]
    <r_h> [Ang]:                        [ -1.560364,  -0.065573,  -0.001609]
    <r_e> [Ang]:                        [ -1.555362,  -0.062854,   0.003383]
    |<r_e - r_h>| [Ang]:                  0.007572
    Hole size [Ang]:                      1.227956
      Cartesian components [Ang]:       [  0.658006,   0.650094,   0.807640]
    Electron size [Ang]:                  2.262296
      Cartesian components [Ang]:       [  1.536859,   1.495443,   0.720903]
    RMS electron-hole separation [Ang]:   2.563400
      Cartesian components [Ang]:       [  1.663244,   1.622852,   1.082122]
    Covariance(r_h, r_e) [Ang^2]:         0.027450
    Correlation coefficient:              0.009881
    Center-of-mass size [Ang]:            1.292358
      Cartesian components [Ang]:       [  0.840157,   0.819192,   0.541527]

  Decomposition into state-averaged NTOs
    H- 0 -> L+ 2: -0.6650 ( 88.4%)
    H- 1 -> L+ 0: -0.1482 (  4.4%)
                   omega =  93.0%
  ----------------------------------------------------------------------------


  Excited state 5 (singlet, A)                                     [converged]
  ----------------------------------------------------------------------------
  Term symbol:  6 (1) A                                     R^2 =  3.25620e-13

  Total energy:                                            -77.9443539725 a.u.
  Excitation energy:                                              10.211741 eV

  Osc. strength:                                                      0.000000
  Trans. dip. moment [a.u.]:           [   0.000224,    0.000157,    0.000353]
  <i|r^2|0> [a.u.]:                    [   0.085833,   -0.106563,    0.018963]
  Two-photon absorption cross-section (SoS) [a.u.]:                 178.082644
  Two-photon absorption matrix (SoS) [a.u.]:
                                       |    0.266125    0.071691   -3.346159 |
                                       |    0.071691   -0.442894    3.304392 |
                                       |   -3.346159    3.304392    0.089607 |
  Two-photon absorption cross-section [a.u.]:                        79.691582
  Two-photon absorption matrix [a.u.]:
                                       |    0.149218    0.029173   -2.227781 |
                                       |    0.029173   -0.327361    2.219800 |
                                       |   -2.227781    2.219800    0.069164 |

  Dip. moment [a.u.]:                  [   0.007580,   -0.010324,    0.001357]
  Total dipole [Debye]:                                               0.032737
[...]
    16   -1.675364023146e-03
    17   -1.570997003162e-03
    18   -4.846953886150e-05
    19   -3.314985326607e-03
    20    1.076439229214e-02
    21    9.346516209146e-01
    22   -2.741576726973e-04
    23    1.399977305981e-02
    24    7.110114206244e-04
    25    7.025639933102e-02
    26   -5.226583733237e-02
    27   -1.399007174510e+00
    28    9.775827245245e-02
    29   -9.285849185112e-02
    30    1.338832303355e-04
    31    3.842792994456e-01
    32   -3.633441694777e-01
    33    7.845955356592e-04
    34    1.563408998562e-02
    35   -1.564055229374e-03
    36   -1.699730981543e-03
    37   -3.575457887033e-05
    38   -3.131791311338e-03
    39    9.933753987197e-03
    40    9.329491024891e-01
    41    2.375656915249e-04
    42   -1.394523602866e-02
    43   -7.852228908151e-04
    44    1.001615685887e-02
    45    9.389881937230e-01
    46    1.410729028829e-02
    47    3.683905432253e-04
    48    7.300936324334e-04
Sym=X
Ene= 0.232967
Spin=Alpha
Occup=0
     1    2.624559158155e-02
     2    1.234184766544e+00
     3   -1.432190289325e-02
     4   -3.815647003756e-03
     5   -9.391143855037e-04
     6    3.086454602096e-03
     7   -3.468663666418e-03
     8   -4.862478068181e-02
     9   -1.549014181043e-01
    10   -1.585256903093e-01
    11   -1.673663462893e-02
    12   -5.561463878087e-01
    13   -5.584857699723e-01
    14   -5.938055491935e-02
    15    4.980962575390e-04
    16   -2.661896806282e-04
    17   -2.588244790814e-04
    18   -2.134024416542e-04
    19   -3.289046005455e-04
    20   -2.497842507484e-02
    21   -1.160158626694e+00
    22   -2.500702763105e-03
    23   -1.356761303092e-02
    24   -8.899241010262e-04
    25   -2.877945589294e-03
    26    3.272510675402e-03
    27    4.342192845972e-02
    28   -1.541133696884e-01
    29   -1.588641010169e-01
    30   -1.681892822738e-02
    31   -5.483680732559e-01
    32   -5.551535157638e-01
    33   -5.924798228504e-02
    34   -5.131776381833e-04
    35    1.898146581103e-04
    36    1.602899048687e-04
    37    3.895512480186e-04
    38    3.519503500870e-04
    39    2.503550390498e-02
    40    1.156629981507e+00
    41   -2.458068295744e-03
    42   -1.359022829374e-02
    43   -9.071160996224e-04
    44   -2.623691675210e-02
    45   -1.223997036743e+00
    46   -1.427010580098e-02
    47   -3.769358085856e-03
    48   -9.266812652351e-04
Sym=X
Ene= 0.239411
Spin=Alpha
Occup=0
     1   -1.594781849618e-02
     2   -1.049488730846e+00
     3    1.648471019961e-02
     4    9.095625575355e-03
     5    1.462102076150e-03
     6   -8.650483428729e-02
     7    7.973546806425e-02
     8    1.593166055268e+00
     9    5.298044909827e-02
    10   -6.084930096374e-02
    11    8.597953476436e-04
    12    2.101041615059e-01
    13   -2.367751386009e-01
    14    3.406261812630e-03
    15   -2.255219785099e-02
    16    2.700885259463e-03
    17    2.866469998004e-03
    18   -5.433063925676e-04
    19    1.286585182954e-02
    20   -1.702489350715e-02
    21   -1.126550710548e+00
    22   -8.544051894892e-03
    23   -1.780758505413e-02
    24   -1.317863634846e-03
    25    8.642976208029e-02
    26   -7.929401322467e-02
    27   -1.596107950670e+00
    28    5.323286339814e-02
    29   -6.131141586139e-02
    30   -1.775693983940e-03
    31    2.107708993030e-01
    32   -2.411647750456e-01
    33   -7.804962724808e-03
    34    2.260830329742e-02
    35   -2.456556848663e-03
    36   -3.128323488388e-03
    37    7.197983624163e-04
    38   -1.279044945417e-02
    39    1.682057900859e-02
    40    1.131786844913e+00
    41   -8.626658206289e-03
    42   -1.790880204483e-02
    43   -1.507879417410e-03
    44    1.563351606830e-02
    45    1.047467634964e+00
    46    1.642101489688e-02
    47    9.265215279958e-03
    48    1.296325243656e-03
Sym=X
Ene= 0.303260
Spin=Alpha
Occup=0
     1   -2.067150261311e-02
     2    1.690682701926e+00
     3   -2.290957010286e-02
     4    2.854861893106e-04
     5   -1.090991990508e-03
     6   -2.000737445940e-04
     7    1.636631223639e-04
     8    3.157849229577e-03
     9   -1.338901844203e-01
    10   -1.395882535183e-01
    11   -1.458442424698e-02
    12   -1.143993485175e+00
    13   -1.193889943238e+00
    14   -1.249729037521e-01
    15   -1.951261964699e-04
    16   -1.933213025476e-03
    17    1.561574187990e-03
    18   -3.266278158489e-02
    19   -1.522799367717e-03
    20    2.004840442991e-02
    21   -1.690577482614e+00
    22    1.416744798884e-03
    23   -2.291087129377e-02
    24   -1.263035694909e-03
    25    7.806351165122e-05
    26    2.590784766685e-04
    27   -8.104517006889e-03
    28    1.346779696992e-01
    29    1.402834458228e-01
    30    1.478447798210e-02
    31    1.139983440743e+00
    32    1.197415563761e+00
    33    1.254308901676e-01
    34    8.176642711029e-05
    35   -1.517318246881e-03
    36    1.989779521983e-03
    37   -3.250540341505e-02
    38   -1.684048327058e-03
    39    1.960572664347e-02
    40   -1.692346777781e+00
    41   -1.612177816332e-03
    42    2.283553049921e-02
    43    1.389899724661e-03
    44   -2.009470970912e-02
    45    1.698395801167e+00
    46    2.304699137359e-02
    47   -3.620271245185e-04
    48    9.706568816999e-04
Sym=X
Ene= 0.462037
Spin=Alpha
Occup=0
     1   -1.158620277054e-01
     2   -7.131045826288e-01
     3   -1.568633890439e-02
     4   -1.029449741643e-02
     5   -1.284805088055e-03
     6    6.080498395525e-02
     7    1.737316298435e-02
     8   -3.591469937793e+00
     9    1.029526792095e-01
    10   -9.910325183785e-02
    11    1.027187548953e-03
    12    2.425432466423e+00
    13   -2.303503381009e+00
    14   -2.901612700315e-02
    15    5.364696060441e-02
    16   -3.224006768392e-03
    17   -4.762357678823e-03
    18   -8.149144381083e-04
    19    1.799547755017e-02
    20   -1.208810026889e-01
    21   -7.035276302278e-01
    22    8.754693680835e-03
    23    1.635901908663e-02
    24    1.445493387681e-03
    25   -6.094805336047e-02
    26   -1.625355259131e-02
    27    3.590906449657e+00
    28    1.051489980321e-01
    29   -1.004905758789e-01
    30   -5.385750404482e-04
    31    2.422821544320e+00
    32   -2.297875048030e+00
    33   -3.595719328601e-02
    34   -5.269929726339e-02
    35    3.271743781875e-03
    36    4.523365730036e-03
    37    6.791477042033e-04
    38   -1.903743439935e-02
    39    1.149913511281e-01
    40    7.094480941954e-01
    41    8.607530572771e-03
    42    1.623285455820e-02
    43    1.381268540579e-03
    44    1.109733926952e-01
    45    7.178705475899e-01
    46   -1.546786958564e-02
    47   -9.915979201952e-03
    48   -1.329966898743e-03
Sym=X
Ene= 0.577509
Spin=Alpha
Occup=0
     1    2.471556087578e-01
     2    4.004053847262e-02
     3   -1.846878708286e-02
     4    2.574098729859e-02
     5    5.554119489465e-04
     6   -4.443726457507e-03
     7   -1.571508885304e-01
     8   -4.664790735620e-01
     9    2.989384110824e-01
    10   -2.877709194367e-01
    11   -4.309962521419e-03
    12   -7.193851316815e-01
    13    6.962159898569e-01
    14    6.056891569977e-03
    15   -5.883606618008e-03
    16    3.913308568135e-03
    17    3.695035475123e-03
    18   -4.255715916140e-03
    19    6.024984123623e-02
    20    2.552336729918e-01
    21    2.994103702618e-02
    22   -2.638245099087e-02
    23    1.644822994048e-02
    24   -3.650091539925e-04
    25   -5.637419348229e-03
    26   -1.578614412475e-01
    27   -4.093528193980e-01
    28   -2.974868874796e-01
    29    2.850609459496e-01
    30    4.076997966811e-03
    31    7.630359864923e-01
    32   -7.330543659801e-01
    33   -8.041079349221e-03
    34   -5.866854953348e-03
    35    3.934844312980e-03
    36    3.672007159736e-03
    37   -3.634665502591e-03
    38    6.020683227240e-02
    39    2.505304690530e-01
    40    5.045650130068e-02
    41    2.721866368195e-02
    42   -1.703754263893e-02
    43    2.245708621545e-04
    44    2.493467567369e-01
    45    5.578405383526e-02
    46    1.839978528882e-02
    47   -2.588610517672e-02
    48   -7.194601497869e-04
Sym=X
Ene= 0.615151
Spin=Alpha
Occup=0
     1   -5.221671697529e-01
     2    2.010403919190e-01
     3   -6.132249816186e-02
     4    3.767093071547e-02
     5   -8.857933839390e-04
     6   -5.575904460906e-04
     7    2.969880834006e-04
     8   -1.551751216074e-02
     9   -4.029090267109e-02
    10   -3.867893627536e-02
    11   -4.176348894536e-03
    12    3.030802992597e-01
    13    2.810091458239e-01
    14    3.077368462473e-02
    15    1.704495262042e-03
    16   -8.370548718459e-03
    17    7.435859098473e-03
    18   -1.479817336306e-01
    19   -6.454434915346e-03
    20    5.082353261179e-01
    21   -2.039086505557e-01
    22    4.173846562412e-02
    23   -5.848688635931e-02
    24   -1.284180192246e-03
    25    3.843951288894e-04
    26   -9.627614554386e-04
    27    2.251429712676e-02
    28   -3.988429359764e-02
    29   -4.039216930641e-02
    30   -4.235952504021e-03
    31    3.020208575125e-01
    32    2.914713042231e-01
    33    3.176290928982e-02
    34   -1.370121193183e-03
    35    7.214312135446e-03
    36   -8.801792896623e-03
    37    1.491286820950e-01
    38    6.340297592386e-03
    39   -5.153173671245e-01
    40    2.068673157911e-01
    41    4.089254637107e-02
    42   -5.862112759788e-02
    43   -1.721500785758e-03
    44    5.214309240822e-01
    45   -2.044628265426e-01
    46   -6.143894277434e-02
    47    3.763766255221e-02
    48   -4.889517889543e-04
Sym=X
Ene= 0.689162
Spin=Alpha
Occup=0
     1   -2.586584097638e-04
     2   -4.677039143807e-03
     3    1.837356730375e-03
     4    1.168642593092e-03
     5   -2.091563537944e-02
     6   -2.769369656385e-06
     7    3.530823972252e-03
     8   -4.856244986697e-03
     9    3.082067268801e-02
    10    4.051633824034e-02
    11   -6.703374463966e-01
    12   -2.173946670801e-02
    13   -4.315048776445e-02
    14    6.134949053998e-01
    15   -2.738362064467e-03
    16    8.271677727596e-02
    17   -7.824310288925e-02
    18   -8.585457740833e-03
    19   -1.742662513823e-03
    20   -1.828720939349e-04
    21   -4.870643096270e-03
    22    1.076239503013e-03
    23    3.838757437952e-04
    24   -2.103254749396e-02
    25    2.145434593098e-04
    26    1.380983002756e-03
    27    2.008383163144e-03
    28    3.183727201444e-02
    29    3.995798414965e-02
    30   -6.701298058735e-01
    31   -2.273834331140e-02
    32   -4.268192472171e-02
    33    6.131665022749e-01
    34    1.203470065337e-03
    35   -8.266319149699e-02
    36    7.853415277534e-02
    37    8.506593036679e-03
    38    2.315880225443e-03
    39    3.463781808597e-03
    40    1.795116234877e-03
    41    1.388678720435e-03
    42    1.667625384803e-03
    43   -2.103183854986e-02
    44    3.485037067729e-03
    45    1.991801106983e-03
    46    6.140653745889e-04
    47    8.822545266630e-04
    48   -2.108867245494e-02
Sym=X
Ene= 0.708918
Spin=Alpha
Occup=0
     1   -4.756913121081e-01
     2    1.589662950356e-01
     3   -8.068964778592e-02
     4   -4.431718733764e-02
     5   -6.275816714217e-03
     6   -4.780684645369e-02
     7   -3.199532625109e-01
     8    5.094551959448e-01
     9    2.039922657041e-01
    10   -1.920131545426e-01
    11   -5.047338537587e-03
    12   -9.868463619731e-02
    13    8.043979497316e-02
    14    8.408448458522e-03
    15    1.940339227901e-01
    16   -2.016158479238e-02
    17   -2.419723610911e-02
    18    3.125252426101e-03
    19   -7.745792602076e-02
    20   -4.782131828226e-01
    21    1.494395053293e-01
    22    4.092136428601e-02
    23    8.172099959311e-02
    24    6.940274455363e-03
    25   -4.672461490279e-02
    26   -3.210724289873e-01
    27    4.629241490766e-01
    28   -2.040208089583e-01
    29    1.920815821851e-01
    30   -4.442802222281e-04
    31    6.469969773430e-02
    32   -5.194553457588e-02
    33   -1.486484218484e-03
    34    1.936456006932e-01
    35   -1.995390241097e-02
    36   -2.427918062177e-02
    37    2.368718325284e-03
    38   -7.556624251828e-02
    39   -4.721299244393e-01
    40    1.354904828927e-01
    41   -4.066338943622e-02
    42   -8.100086951313e-02
    43   -7.153300606196e-03
    44   -4.746311141197e-01
    45    1.460590707337e-01
    46    8.053049067907e-02
    47    4.400339573274e-02
    48    6.042235923657e-03
Sym=X
Ene= 0.784538
Spin=Alpha
Occup=0
     1    5.270546582062e-01
     2   -4.705343036121e-01
     3    1.104250976630e-01
     4    2.603211393807e-02
     5    6.778225957883e-03
     6    9.096563710192e-02
     7   -2.157985723761e-01
     8   -6.417363265984e-01
     9    1.098497412772e-01
    10   -1.068471953952e-01
    11    2.695280949782e-03
    12    3.188920780001e-01
    13   -2.909895684249e-01
    14   -1.341461084166e-02
    15   -2.063349847352e-01
    16    1.830062286922e-02
    17    2.094925910934e-02
    18   -9.610154584161e-04
    19    9.219550520877e-03
    20    5.356149297986e-01
    21   -4.666308082985e-01
    22   -2.025944829902e-02
    23   -1.121427345901e-01
    24   -7.558305883326e-03
    25   -9.137619079855e-02
    26    2.129506608153e-01
    27    6.561886633829e-01
    28    1.118426961143e-01
    29   -1.054027446563e-01
    30   -7.589051096601e-03
    31    3.090048727422e-01
    32   -2.884111348231e-01
    33    6.790116206160e-03
    34    2.076493490355e-01
    35   -1.701235233504e-02
    36   -2.274231507734e-02
    37    1.604084975209e-03
    38   -8.853025188315e-03
    39   -5.415417406995e-01
    40    4.662971025743e-01
    41   -2.046583849144e-02
    42   -1.127942993256e-01
    43   -7.962780685715e-03
    44   -5.316316663075e-01
    45    4.649332413022e-01
    46    1.100875322239e-01
    47    2.679730473437e-02
    48    6.580530334421e-03
Sym=X
Ene= 0.807963
Spin=Alpha
Occup=0
     1    3.277736241583e-03
     2   -4.721652307521e-03
     3    3.217775563936e-03
     4    1.784131426089e-03
     5   -3.371926815094e-02
     6    5.443279976048e-04
     7    5.186089923424e-04
     8   -2.064026073714e-03
     9    3.688173911082e-02
    10    4.432199281482e-02
    11   -7.630110775064e-01
    12   -5.018952030871e-02
    13   -6.957535434294e-02
    14    1.126887540081e+00
    15   -4.807517386114e-04
    16   -6.508156502377e-02
    17    6.200482482306e-02
    18    6.826865555775e-03
    19    1.010329875396e-03
    20    3.292238209206e-03
    21   -4.272553190867e-03
    22    1.974433482354e-03
    23    4.728405169027e-04
    24   -3.459570914214e-02
    25   -7.091631008468e-04
    26    3.159939155972e-03
    27    1.486891715221e-04
    28   -3.316004756548e-02
    29   -4.860754489265e-02
    30    7.631609948813e-01
    31    5.261321904796e-02
    32    6.854441495126e-02
    33   -1.126927476316e+00
    34    3.316568220691e-03
    35   -6.531494662692e-02
    36    6.165310709147e-02
    37    6.669081408114e-03
    38    1.815262029026e-03
    39   -3.371641245664e-03
    40    3.161146843454e-03
    41   -1.496977988520e-03
    42   -2.780223594503e-03
    43    3.419629413139e-02
    44   -3.261383067504e-03
    45    3.748491445523e-03
    46   -8.110542047240e-04
    47   -2.050193986788e-03
    48    3.379751945677e-02
Sym=X
Ene= 0.862263
Spin=Alpha
Occup=0
     1    1.321601712550e-02
     2   -1.096170487297e+00
     3    1.483266638192e-01
     4    5.643606244595e-02
     5    1.094793950406e-02
     6    7.937365305485e-05
     7   -6.218672656604e-04
     8    1.687839745317e-03
     9   -4.073244541000e-01
    10   -4.285872890172e-01
    11   -4.447914307215e-02
    12    9.484691474198e-01
    13    9.982866540794e-01
    14    1.035970218575e-01
    15   -3.004607825632e-04
    16    1.209034948333e-02
    17   -1.312876420654e-02
    18    2.353148709262e-01
    19    9.587699085390e-03
    20   -1.400175785313e-02
    21    1.103262277114e+00
    22    5.032930903622e-02
    23    1.514795186350e-01
    24    1.077212845396e-02
    25   -2.469269037810e-05
    26    1.264665341456e-03
    27   -1.634647140348e-03
    28   -4.069403594534e-01
    29   -4.292118118171e-01
    30   -4.508518487994e-02
    31    9.472452805026e-01
    32    1.001745808866e+00
    33    1.051014777780e-01
    34    1.536778472223e-04
    35   -1.194247040672e-02
    36    1.342186596158e-02
    37   -2.364325278086e-01
    38   -1.034376831533e-02
    39    1.220173011659e-02
    40   -1.102288814837e+00
    41    4.893220909079e-02
    42    1.516760684994e-01
    43    1.120370539379e-02
    44   -1.123563089235e-02
    45    1.094880492500e+00
    46    1.486610920546e-01
    47    5.567547715895e-02
    48    1.053121445879e-02
Sym=X
Ene= 0.935924
Spin=Alpha
Occup=0
     1   -1.132939345478e-01
     2    1.280338671318e+00
     3   -1.813538262798e-01
     4    5.217876218596e-03
     5   -8.104347808127e-03
     6    8.205280488923e-05
     7   -1.349389711312e-03
     8   -1.645458372283e-03
     9    4.734911852877e-01
    10    4.987726743427e-01
    11    5.201303335205e-02
    12   -1.467115124904e+00
    13   -1.539275303025e+00
    14   -1.607751526189e-01
    15   -1.183918814214e-03
    16   -6.039706890956e-03
    17    6.751997959030e-03
    18   -1.202851035959e-01
    19   -2.710609890072e-03
    20    1.172079993128e-01
    21   -1.285796622814e+00
    22    1.175653098112e-02
    23   -1.827698197621e-01
    24   -1.041007133426e-02
    25    4.397501825092e-06
    26    8.425956342483e-05
    27   -7.569268926680e-04
    28   -4.745554851935e-01
    29   -4.975286649376e-01
    30   -5.218620746169e-02
    31    1.469623890329e+00
    32    1.532632800431e+00
    33    1.610716230045e-01
    34   -3.019623168480e-04
    35   -4.936998518715e-03
    36    8.183796507852e-03
    37   -1.206744186676e-01
    38   -4.890951334983e-03
    39    1.165239834704e-01
    40   -1.281454514028e+00
    41   -1.345691969824e-02
    42    1.818407603969e-01
    43    1.105565384761e-02
    44   -1.154002155316e-01
    45    1.286623632043e+00
    46    1.821019549040e-01
    47   -5.386742477132e-03
    48    7.489465402629e-03
Sym=X
Ene= 0.972433
Spin=Alpha
Occup=0
     1   -6.444327349523e-02
     2    9.252053586262e-01
     3   -9.079088545076e-02
     4   -9.848052499324e-02
     5   -1.112849662829e-02
     6    2.532293376782e-02
     7    2.537182102003e-01
     8    5.175784199255e-01
     9    4.809471062764e-01
    10   -4.548799120189e-01
    11   -2.848747407629e-03
    12   -1.494155580649e+00
    13    1.408969444363e+00
    14    1.031720932253e-02
    15   -5.380612298762e-02
    16   -1.449624818633e-02
    17   -8.131947429731e-03
    18    1.383562252642e-02
    19   -3.016082028335e-01
    20   -6.273750720335e-02
    21    9.112666010901e-01
    22    9.534641719628e-02
    23    9.329043101898e-02
    24    9.066157613514e-03
    25   -2.513446754447e-02
    26   -2.369962589445e-01
    27   -5.453077215469e-01
    28    4.778090284555e-01
    29   -4.550702578855e-01
    30   -6.927582411575e-03
    31   -1.483870206314e+00
    32    1.416194244675e+00
    33    2.205784926678e-02
    34    5.271667836084e-02
    35    1.414933619402e-02
    36    8.400888235122e-03
    37   -1.438100547302e-02
    38    2.989434111657e-01
    39    6.241510972435e-02
    40   -9.095365143993e-01
    41    9.418619628142e-02
    42    9.291123805510e-02
    43    9.806405320888e-03
    44    6.580555820848e-02
    45   -9.098505336501e-01
    46   -8.875935744707e-02
    47   -9.781967967253e-02
    48   -1.021656170796e-02
[5D]

======= END OF MOLDEN-FORMATTED INPUT FILE =======


        *************************************************************
        *                                                           *
        *  Thank you very much for using Q-Chem.  Have a nice day.  *
        *                                                           *
        *************************************************************


