                  Welcome to Q-Chem
     A Quantum Leap Into The Future Of Chemistry


 Q-Chem 5.4 (devel), Q-Chem, Inc., Pleasanton, CA (2021)

 E. Epifanovsky,  A. T. B. Gilbert,  Xintian Feng,  Joonho Lee,  Yuezhi Mao,  
 N. Mardirossian,  P. Pokhilko,  A. White,  M. Wormit,  M. P. Coons,  
 A. L. Dempwolff,  Zhengting Gan,  D. Hait,  P. R. Horn,  L. D. Jacobson,  
 I. Kaliman,  J. Kussmann,  A. W. Lange,  Ka Un Lao,  D. S. Levine,  Jie Liu,  
 S. C. McKenzie,  A. F. Morrison,  K. Nanda,  F. Plasser,  D. R. Rehn,  
 M. L. Vidal,  Zhi-Qiang You,  Ying Zhu,  B. Alam,  B. Albrecht,  
 A. Aldossary,  E. Alguire,  J. H. Andersen,  D. Barton,  K. Begam,  A. Behn,  
 Y. A. Bernard,  E. J. Berquist,  H. Burton,  A. Carreras,  K. Carter-Fenk,  
 R. Chakraborty,  A. D. Chien,  K. D. Closser,  V. Cofer-Shabica,  
 S. Dasgupta,  Jia Deng,  M. de Wergifosse,  M. Diedenhofen,  Hainam Do,  
 S. Ehlert,  Po-Tung Fang,  S. Fatehi,  Qingguo Feng,  T. Friedhoff,  
 J. Gayvert,  Qinghui Ge,  G. Gidofalvi,  M. Goldey,  J. Gomes,  
 C. Gonzalez-Espinoza,  S. Gulania,  A. Gunina,  M. W. D. Hanson-Heine,  
 P. H. P. Harbach,  A. W. Hauser,  M. F. Herbst,  M. Hernandez Vera,  
 M. Hodecker,  Z. C. Holden,  S. Houck,  Xunkun Huang,  Kerwin Hui,  
 B. C. Huynh,  M. Ivanov,  Hyunjun Ji,  Hanjie Jiang,  B. Kaduk,  S. Kaehler,  
 K. Khistyaev,  Jaehoon Kim,  P. Klunzinger,  Z. Koczor-Benda,  
 Joong Hoon Koh,  D. Kosenkov,  L. Koulias,  T. Kowalczyk,  C. M. Krauter,  
 K. Kue,  A. Kunitsa,  T. Kus,  A. Landau,  K. V. Lawler,  D. Lefrancois,  
 S. Lehtola,  Rain Li,  Yi-Pei Li,  Jiashu Liang,  M. Liebenthal,  
 Hung-Hsuan Lin,  You-Sheng Lin,  Fenglai Liu,  Kuan-Yu Liu,  
 M. Loipersberger,  A. Luenser,  A. Manjanath,  P. Manohar,  E. Mansoor,  
 S. F. Manzer,  Shan-Ping Mao,  A. V. Marenich,  T. Markovich,  S. Mason,  
 S. A. Maurer,  P. F. McLaughlin,  M. F. S. J. Menger,  J.-M. Mewes,  
 S. A. Mewes,  P. Morgante,  J. W. Mullinax,  K. J. Oosterbaan,  G. Paran,  
 Alexander C. Paul,  Suranjan K. Paul,  F. Pavosevic,  Zheng Pei,  S. Prager,  
 E. I. Proynov,  E. Ramos,  B. Rana,  A. E. Rask,  A. Rettig,  R. M. Richard,  
 F. Rob,  E. Rossomme,  T. Scheele,  M. Scheurer,  M. Schneider,  
 N. Sergueev,  S. M. Sharada,  W. Skomorowski,  D. W. Small,  C. J. Stein,  
 Yu-Chuan Su,  E. J. Sundstrom,  Zhen Tao,  J. Thirman,  T. Tsuchimochi,  
 N. M. Tubman,  S. P. Veccham,  O. Vydrov,  J. Wenzel,  J. Witte,  A. Yamada,  
 Kun Yao,  S. Yeganeh,  S. R. Yost,  A. Zech,  Igor Ying Zhang,  Xing Zhang,  
 Yu Zhang,  D. Zuev,  A. Aspuru-Guzik,  A. T. Bell,  N. A. Besley,  
 K. B. Bravaya,  B. R. Brooks,  D. Casanova,  Jeng-Da Chai,  S. Coriani,  
 C. J. Cramer,  A. E. DePrince, III,  R. A. DiStasio Jr.,  A. Dreuw,  
 B. D. Dunietz,  T. R. Furlani,  W. A. Goddard III,  S. Grimme,  
 S. Hammes-Schiffer,  T. Head-Gordon,  W. J. Hehre,  Chao-Ping Hsu,  
 T.-C. Jagau,  Yousung Jung,  A. Klamt,  Jing Kong,  D. S. Lambrecht,  
 WanZhen Liang,  N. J. Mayhall,  C. W. McCurdy,  J. B. Neaton,  
 C. Ochsenfeld,  J. A. Parkhill,  R. Peverati,  V. A. Rassolov,  Yihan Shao,  
 L. V. Slipchenko,  T. Stauch,  R. P. Steele,  J. E. Subotnik,  
 A. J. W. Thom,  A. Tkatchenko,  D. G. Truhlar,  T. Van Voorhis,  
 T. A. Wesolowski,  K. B. Whaley,  H. L. Woodcock III,  P. M. Zimmerman,  
 S. Faraji,  P. M. W. Gill,  M. Head-Gordon,  J. M. Herbert,  A. I. Krylov

 Additional authors for Version 5.4.1: 
 S. Kotaru,  Shaozhi Li,  Xiangyuan Li,  F. Matz,  A. Molle,  Haisheng Ren,  
 Yingli Su,  Hung-Yi Tsai,  C. Utku,  Fang Wang

 Contributors to earlier versions of Q-Chem not listed above: 
 R. D. Adamson,  B. Austin,  R. Baer,  J. Baker,  G. J. O. Beran,  
 K. Brandhorst,  S. T. Brown,  E. F. C. Byrd,  A. K. Chakraborty,  
 G. K. L. Chan,  Chun-Min Chang,  Yunqing Chen,  C.-L. Cheng,  
 Siu Hung Chien,  D. M. Chipman,  D. L. Crittenden,  H. Dachsel,  
 R. J. Doerksen,  A. D. Dutoi,  R. G. Edgar,  J. Fosso-Tande,  
 L. Fusti-Molnar,  D. Ghosh,  A. Ghysels,  A. Golubeva-Zadorozhnaya,  
 J. Gonthier,  M. S. Gordon,  S. R. Gwaltney,  G. Hawkins,  J. E. Herr,  
 A. Heyden,  S. Hirata,  E. G. Hohenstein,  G. Kedziora,  F. J. Keil,  
 C. Kelley,  Jihan Kim,  R. A. King,  R. Z. Khaliullin,  P. P. Korambath,  
 W. Kurlancheek,  A. Laurent,  A. M. Lee,  M. S. Lee,  S. V. Levchenko,  
 Ching Yeh Lin,  D. Liotard,  E. Livshits,  R. C. Lochan,  I. Lotan,  
 L. A. Martinez-Martinez,  P. E. Maslen,  N. Nair,  D. P. O'Neill,  
 D. Neuhauser,  E. Neuscamman,  C. M. Oana,  R. Olivares-Amaya,  R. Olson,  
 T. M. Perrine,  B. Peters,  P. A. Pieniazek,  A. Prociuk,  Y. M. Rhee,  
 J. Ritchie,  M. A. Rohrdanz,  E. Rosta,  N. J. Russ,  H. F. Schaefer III,  
 M. W. Schmidt,  N. E. Schultz,  S. Sharma,  N. Shenvi,  C. D. Sherrill,  
 A. C. Simmonett,  A. Sodt,  T. Stein,  D. Stuck,  K. S. Thanthiriwatte,  
 V. Vanovschi,  L. Vogt,  Tao Wang,  A. Warshel,  M. A. Watson,  
 C. F. Williams,  Q. Wu,  X. Xu,  Jun Yang,  W. Zhang,  Yan Zhao

 Please cite Q-Chem as follows:
 Y. Shao et al., Mol. Phys. 113, 184-215 (2015)
 DOI: 10.1080/00268976.2014.952696

 Q-Chem 5.4.1 for Intel X86 EM64T Linux

 Parts of Q-Chem use Armadillo 9.800.1 (Horizon Scraper).
 http://arma.sourceforge.net/

 Q-Chem begins on Mon Mar 20 18:32:54 2023  

 Host: cpu186.baobab
0

     Scratch files written to /scratch/fum/qchem79120//
 Processing $rem in /home/share/wesolowski/qc5.aug2021.FDE/config/preferences:
 Processing $rem in /home/fum/.qchemrc:

 Checking the input file for inconsistencies... 	...done.

--------------------------------------------------------------
User input:
--------------------------------------------------------------
$comment
generated from CCJob.Templates
$end

$rem
sym_ignore = true
method = adc(2)
ee_states = 10
basis = cc-pVDZ
mem_static = 1024
mem_total = 40000
adc_davidson_maxiter = 900
adc_davidson_conv = 6
adc_print = 3
adc_prop_es = true
adc_prop_es2es = true
adc_prop_tpa = true
molden_format = True
state_analysis = true
print_orbitals = 15
gen_scfman = false
fde_export_density = true
fde_details = 3
$end

$molecule
0 1
H -0.03712926049123801 -0.2193744172357494 0.06614970562105349
C -1.1016321142458796 -0.5493794631350613 -0.005123741266580753
H -1.2729078918184826 -1.6071848366394277 -0.0770841783079706
C -2.02103859335402 0.41880352623506123 0.009370120766404972
H -1.8498026567816177 1.476619685739076 0.08131100380799569
H -3.085552910208988 0.08881070673607583 -0.06182238832047592                     
$end
--------------------------------------------------------------
 ----------------------------------------------------------------
             Standard Nuclear Orientation (Angstroms)
    I     Atom           X                Y                Z
 ----------------------------------------------------------------
    1      H      -0.0371292605    -0.2193744172     0.0661497056
    2      C      -1.1016321142    -0.5493794631    -0.0051237413
    3      H      -1.2729078918    -1.6071848366    -0.0770841783
    4      C      -2.0210385934     0.4188035262     0.0093701208
    5      H      -1.8498026568     1.4766196857     0.0813110038
    6      H      -3.0855529102     0.0888107067    -0.0618223883
 ----------------------------------------------------------------
 Nuclear Repulsion Energy =          33.18510799 hartrees
 There are        8 alpha and        8 beta electrons
 Requested basis set is cc-pVDZ
 There are 24 shells and 48 basis functions
 Total memory of 40000 MB is distributed as follows: 
   MEM_STATIC is set to 1024 MB
   QALLOC/CCMAN JOB total memory use is  38976 MB
 Warning: actual memory use might exceed 40000 MB

 Total QAlloc Memory Limit  40000 MB
 Mega-Array Size      1001 MB
 MEM_STATIC part      1024 MB

                       Distance Matrix (Angstroms)
             H (  1)   C (  2)   H (  3)   C (  4)   H (  5)
   C (  2)  1.116759
   H (  3)  1.863782  1.073995
   C (  4)  2.084800  1.335252  2.161435
   H (  5)  2.482420  2.161458  3.141297  1.073998
   H (  6)  3.066634  2.084812  2.482401  1.116761  1.863754

 A cutoff of  1.0D-11 yielded    300 shell pairs
 There are      1220 function pairs (      1329 Cartesian)
 Smallest overlap matrix eigenvalue = 4.77E-03

 Scale SEOQF with 1.000000e-01/1.000000e-01/1.000000e+00

 Standard Electronic Orientation quadrupole field applied
 Nucleus-field energy     =     0.0000000022 hartrees
 Guess from superposition of atomic densities
 Warning:  Energy on first SCF cycle will be non-variational
 SAD guess density has 16.000000 electrons
 A restricted Hartree-Fock SCF calculation will be
 performed using Pulay DIIS extrapolation
 SCF converges when DIIS error is below 1.0E-08
 using 10 threads for integral computing
 -------------------------------------------------------
 OpenMP Integral computing Module                
 Release: version 1.0, May 2013, Q-Chem Inc. Pittsburgh 
 -------------------------------------------------------
 ---------------------------------------
  Cycle       Energy         DIIS Error
 ---------------------------------------
    1     -78.3927300798      9.91E-02
    2     -78.0136495524      7.11E-03
    3     -78.0341089948      1.82E-03
    4     -78.0355818215      5.56E-04
    5     -78.0356961290      5.90E-05
    6     -78.0356980236      9.41E-06
    7     -78.0356980863      1.95E-06
    8     -78.0356980891      1.68E-07
    9     -78.0356980891      1.74E-08
   10     -78.0356980891      3.76E-09 Convergence criterion met
 ---------------------------------------
 SCF time:  CPU 1.92 s  wall 2.26 s
 SCF   energy in the final basis set = -78.03569809
 Total energy in the final basis set = -78.03569809
Exporting Density Matrix to file 'Densmat_SCF.txt'.
Export successful
================================================================================
|                                                                              |
|                                 A D C  M A N                                 |
|                                                                              |
 ------------------------------------------------------------------------------ 
|                                                                              |
| Components:                                                                  |
|                                                                              |
| - libvmm - 1.3-trunk                                                         |
|   Authors:                                                                   |
|   Evgeny Epifanovsky, Ilya Kaliman                                           |
|                                                                              |
| - libtensor - 2.5-trunk                                                      |
|   Authors:                                                                   |
|   Evgeny Epifanovsky, Michael Wormit, Dmitry Zuev, Sam Manzer,               |
|   Ilya Kaliman                                                               |
|                                                                              |
| - libwfa - 1.1-trunk                                                         |
|   Authors:                                                                   |
|   Felix Plasser, Stefanie Mewes (Baeppler), Benjamin Thomitzni,              |
|   Michael Wormit, Feng Chen, Anna I. Krylov, Pavel Pokhilko                  |
|                                                                              |
| - libadc - 1.1-trunk                                                         |
|   Authors:                                                                   |
|   Michael Wormit, Adrian L. Dempwolff, Philipp H. P. Harbach,                |
|   Caroline Krauter, Dirk Rehn, Matthias Schneider, Jan Wenzel                |
|                                                                              |
| - adcman - 2.6-trunk                                                         |
|   Authors:                                                                   |
|   Michael Wormit, Adrian L. Dempwolff, Philipp H. P. Harbach,                |
|   Caroline Krauter, Daniel Lefrancois, Jan-Michael Mewes, Dirk Rehn,         |
|   Matthias Schneider, Jan Wenzel, Andreas Dreuw                              |
|                                                                              |
| Authors of earlier versions of ADCMAN:                                       |
| Andreas Dreuw, Jan Hendrik Starcke, Dirk Rehn, Michael Wormit                |
|                                                                              |
================================================================================

 Created directory /scratch/fum/qchem79120/plots
  Import QC data ...  CPU 0.00 s  wall 0.00 s

 Alpha MOs, Restricted
 -- Occupied --                  
-11.240 -11.238  -1.030  -0.787  -0.634  -0.589  -0.492  -0.374
  1 A     2 A     3 A     4 A     5 A     6 A     7 A     8 A                  
 -- Virtual --                   
  0.167   0.202   0.230   0.237   0.301   0.461   0.580   0.609
  9 A    10 A    11 A    12 A    13 A    14 A    15 A    16 A                  
  0.689   0.704   0.777   0.807   0.858   0.923   0.973   1.007
 17 A    18 A    19 A    20 A    21 A    22 A    23 A    24 A                  
  1.129   1.233   1.236   1.254   1.299   1.594   1.720   1.739
 25 A    26 A    27 A    28 A    29 A    30 A    31 A    32 A                  
  1.803   1.826   1.857   1.930   1.961   1.971   2.238   2.246
 33 A    34 A    35 A    36 A    37 A    38 A    39 A    40 A                  
  2.347   2.411   2.505   2.608   2.673   2.809   3.081   3.377
 41 A    42 A    43 A    44 A    45 A    46 A    47 A    48 A                  

 Beta MOs, Restricted
 -- Occupied --                  
-11.240 -11.238  -1.030  -0.787  -0.634  -0.589  -0.492  -0.374
  1 A     2 A     3 A     4 A     5 A     6 A     7 A     8 A                  
 -- Virtual --                   
  0.167   0.202   0.230   0.237   0.301   0.461   0.580   0.609
  9 A    10 A    11 A    12 A    13 A    14 A    15 A    16 A                  
  0.689   0.704   0.777   0.807   0.858   0.923   0.973   1.007
 17 A    18 A    19 A    20 A    21 A    22 A    23 A    24 A                  
  1.129   1.233   1.236   1.254   1.299   1.594   1.720   1.739
 25 A    26 A    27 A    28 A    29 A    30 A    31 A    32 A                  
  1.803   1.826   1.857   1.930   1.961   1.971   2.238   2.246
 33 A    34 A    35 A    36 A    37 A    38 A    39 A    40 A                  
  2.347   2.411   2.505   2.608   2.673   2.809   3.081   3.377
 41 A    42 A    43 A    44 A    45 A    46 A    47 A    48 A                  
  Import AO data ...  CPU 0.00 s  wall 0.00 s
  Using point group: C1
  Irreducible representations in point group: A
  Molecular orbitals: 
  Occupied MOs:
  Block   0:   1 (  A) A   2 (  A) A   3 (  A) A   4 (  A) A   5 (  A) A
                  -11.24      -11.24       -1.03     -0.7871     -0.6336
               6 (  A) A   7 (  A) A   8 (  A) A
                 -0.5885     -0.4922     -0.3744
  Block   1:   1 (  A) B   2 (  A) B   3 (  A) B   4 (  A) B   5 (  A) B
                  -11.24      -11.24       -1.03     -0.7871     -0.6336
               6 (  A) B   7 (  A) B   8 (  A) B
                 -0.5885     -0.4922     -0.3744
  Virtual MOs:
  Block   0:   9 (  A) A  10 (  A) A  11 (  A) A  12 (  A) A  13 (  A) A
                  0.1672      0.2023      0.2301      0.2366      0.3014
              14 (  A) A  15 (  A) A  16 (  A) A  17 (  A) A  18 (  A) A
                  0.4605      0.5802      0.6086      0.6886      0.7043
              19 (  A) A  20 (  A) A  21 (  A) A  22 (  A) A
                   0.777      0.8068      0.8581      0.9232
  Block   1:  23 (  A) A  24 (  A) A  25 (  A) A  26 (  A) A  27 (  A) A
                  0.9728       1.007       1.129       1.233       1.236
              28 (  A) A  29 (  A) A  30 (  A) A  31 (  A) A  32 (  A) A
                   1.254       1.299       1.594        1.72       1.739
              33 (  A) A  34 (  A) A  35 (  A) A  36 (  A) A
                   1.803       1.826       1.857        1.93
  Block   2:  37 (  A) A  38 (  A) A  39 (  A) A  40 (  A) A  41 (  A) A
                   1.961       1.971       2.238       2.246       2.347
              42 (  A) A  43 (  A) A  44 (  A) A  45 (  A) A  46 (  A) A
                   2.411       2.505       2.608       2.673       2.809
              47 (  A) A  48 (  A) A
                   3.081       3.377
  Block   3:   9 (  A) B  10 (  A) B  11 (  A) B  12 (  A) B  13 (  A) B
                  0.1672      0.2023      0.2301      0.2366      0.3014
              14 (  A) B  15 (  A) B  16 (  A) B  17 (  A) B  18 (  A) B
                  0.4605      0.5802      0.6086      0.6886      0.7043
              19 (  A) B  20 (  A) B  21 (  A) B  22 (  A) B
                   0.777      0.8068      0.8581      0.9232
  Block   4:  23 (  A) B  24 (  A) B  25 (  A) B  26 (  A) B  27 (  A) B
                  0.9728       1.007       1.129       1.233       1.236
              28 (  A) B  29 (  A) B  30 (  A) B  31 (  A) B  32 (  A) B
                   1.254       1.299       1.594        1.72       1.739
              33 (  A) B  34 (  A) B  35 (  A) B  36 (  A) B
                   1.803       1.826       1.857        1.93
  Block   5:  37 (  A) B  38 (  A) B  39 (  A) B  40 (  A) B  41 (  A) B
                   1.961       1.971       2.238       2.246       2.347
              42 (  A) B  43 (  A) B  44 (  A) B  45 (  A) B  46 (  A) B
                   2.411       2.505       2.608       2.673       2.809
              47 (  A) B  48 (  A) B
                   3.081       3.377
  Import MO data ...  CPU 0.02 s  wall 0.01 s
  Import HF data ...  CPU 0.83 s  wall 0.23 s
  Import 2e integrals ...  CPU 1.17 s  wall 0.22 s

--------------------------------------------------------------------------------
                                   HF Summary                                   
--------------------------------------------------------------------------------
  Energy:                                                  -78.0356980891 a.u.
  Dip. moment [a.u.]:                  [  -0.000005,    0.000003,    0.000016]
  Total dipole [Debye]:                                               0.000043
  <r^2> [a.u.]:                        [ 174.976020,   36.234730,   11.691140]
  Total <r^2> [a.u.]:                                               222.901891
--------------------------------------------------------------------------------
  HF properties ...  CPU 0.03 s  wall 0.02 s
  MP(1) calculation ...  CPU 0.01 s  wall 0.01 s
  N^6 prerequesite intermediates ...  CPU 0.74 s  wall 0.14 s
  Difference density matrix of state mp2_gs printed to ASCII file 'State_mp2_gs_Difference.txt'
Exporting MP density matrix to file 'Densmat_MP.txt'.
Export successful
  Total density matrix of state mp2_gs printed to ASCII file 'State_mp2_gs_Total.txt'
Exporting MP density matrix to file 'Densmat_MP.txt'.
Export successful

--------------------------------------------------------------------------------
                                 MP(2) Summary                                  
--------------------------------------------------------------------------------
  MP energy contribution:                                   -0.2809460202 a.u.
  Total energy:                                            -78.3166441092 a.u.
  Dip. moment [a.u.]:                  [  -0.000005,    0.000002,    0.000016]
  Total dipole [Debye]:                                               0.000042
  <r^2> [a.u.]:                        [ 174.987549,   36.294786,   11.516697]
  Total <r^2> [a.u.]:                                               222.799032

  Density matrix analysis:
  ------------------------
  NOs
    Occupation of frontier NOs:
       0.0457   1.9378
    Number of electrons: 16.000000
    Number of unpaired electrons: n_u =  0.40881, n_u,nl =  0.04620
    NO participation ratio (PR_NO): 13.878662
  
  
  Mulliken Population Analysis
  Atom      Charge (e)              h+              e-           Del q
  --------------------------------------------------------------------
   1 H        0.053391        0.014328       -0.011239        0.003089
   2 C       -0.109255        0.094886       -0.100301       -0.005415
   3 H        0.055870        0.013742       -0.011416        0.002327
   4 C       -0.109265        0.094885       -0.100301       -0.005416
   5 H        0.055870        0.013743       -0.011416        0.002327
   6 H        0.053388        0.014328       -0.011239        0.003089
  --------------------------------------------------------------------
  Sum:        0.000000        0.245912       -0.245912        0.000000
  
  Multipole moment analysis of the density matrix
    Molecular charge:                      0.000000
    Number of electrons:                   16.000000
      Center of electronic charge [Ang]: [ -1.561338,  -0.065287,   0.002127]
    Total nuclear charge:                  16.000000
      Center of nuclear charge [Ang]:    [ -1.561339,  -0.065287,   0.002127]
    Dipole moment [D]:                     0.000042
      Cartesian components [D]:          [ -0.000011,   0.000006,   0.000040]
    RMS size of the density [Ang]:         1.207202
      Cartesian components [Ang]:        [  0.790453,   0.794331,   0.448952]
  
  Exciton analysis of the difference density matrix
    <r_h> [Ang]:                  [ -1.561338,  -0.065287,   0.002124]
    <r_e> [Ang]:                  [ -1.561338,  -0.065285,   0.002125]
    |<r_e - r_h>| [Ang]:            0.000001
    Hole size [Ang]:                1.403702
      Cartesian components [Ang]: [  0.856935,   0.838953,   0.729520]
    Electron size [Ang]:            1.361342
      Cartesian components [Ang]: [  0.864561,   0.878766,   0.577543]
--------------------------------------------------------------------------------
  MP(2) calculation ...  CPU 0.75 s  wall 0.30 s
  Start ADC(2)-s ...  CPU 0.02 s  wall 0.01 s
  ADC(2) intermediates ...  CPU 0.04 s  wall 0.01 s
  Starting Davidson for singlet states of irrep A ... 
--------------------------------------------------------------------------------
   It NVec Conv  Avg. Norm  Max. Norm  Conv. states           Remark
--------------------------------------------------------------------------------
        10    0  1.329e-01  4.714e-01  0.4112 n n n n n n n n Guess.
    1   20    0  2.484e-02  1.313e-01  0.3235 n n n n n n n n 
    2   30    0  6.691e-03  4.042e-02  0.3208 n n n n n n n n 
    3   40    0  2.540e-03  2.013e-02  0.3204 n n n n n n n n 
    4   50    0  1.055e-03  9.622e-03  0.3204 n n n n n n n n 
    5   20    0  7.352e-04  7.064e-03  0.3203 n n n n n n n n Subspace collapsed.
    6   30    0  1.502e-03  1.500e-02  0.3203 n n n n n n n n 
    7   40    0  1.044e-03  1.043e-02  0.3203 n n n n n n n n 
    8   50    0  8.860e-04  8.854e-03  0.3203 n n n n n n n n 
    9   20    1  4.892e-04  4.886e-03  0.3203 n y n n n n n n Subspace collapsed.
   10   30    4  4.332e-04  4.328e-03  0.3203 n y y y y n n n 
   11   40    5  1.802e-04  1.800e-03  0.3203 n y y y y y n n 
   12   50    5  1.829e-04  1.829e-03  0.3203 n y y y y y n n 
   13   20    6  1.269e-04  1.268e-03  0.3203 y y y y y y n n Subspace collapsed.
   14   30    6  2.078e-04  2.078e-03  0.3203 y y y y y y n n 
   15   40    7  1.762e-04  1.762e-03  0.3203 y y y y y y n y 
   16   50    7  1.790e-04  1.790e-03  0.3203 y y y y y y n y 
   17   20    7  1.084e-04  1.084e-03  0.3203 y y y y y y n y Subspace collapsed.
   18   30    8  8.852e-05  8.852e-04  0.3203 y y y y y y y y 
   19   40    8  4.052e-05  4.052e-04  0.3203 y y y y y y y y 
   20   50    8  4.463e-05  4.463e-04  0.3203 y y y y y y y y 
   21   11    8  4.368e-05  4.368e-04  0.3203 y y y y y y y y Subspace collapsed.
   22   12    8  4.365e-05  4.364e-04  0.3203 y y y y y y y y 
   23   13    8  4.370e-05  4.370e-04  0.3203 y y y y y y y y 
   24   14    8  4.378e-05  4.378e-04  0.3203 y y y y y y y y 
   25   15    8  4.393e-05  4.393e-04  0.3203 y y y y y y y y 
   26   24    9  2.565e-05  2.565e-04  0.3203 y y y y y y y y 
   27   33    8  4.506e-05  4.506e-04  0.3203 y y y y y y y y 
   28   42    8  4.701e-05  4.701e-04  0.3203 y y y y y y y y 
   29   49    9  3.654e-05  3.654e-04  0.3203 y y y y y y y y 
   30   50    9  3.626e-05  3.626e-04  0.3203 y y y y y y y y 
   31   15    9  1.728e-05  1.728e-04  0.3203 y y y y y y y y Subspace collapsed.
   32   20    9  1.269e-05  1.269e-04  0.3203 y y y y y y y y 
   33   25    9  7.719e-06  7.719e-05  0.3203 y y y y y y y y 
   34   29    9  4.895e-06  4.895e-05  0.3203 y y y y y y y y 
   35   33    9  5.660e-06  5.660e-05  0.3203 y y y y y y y y 
   36   37    9  7.021e-06  7.021e-05  0.3203 y y y y y y y y 
   37   41    9  4.995e-06  4.995e-05  0.3203 y y y y y y y y 
   38   45    9  2.435e-06  2.435e-05  0.3203 y y y y y y y y 
   39   49    9  1.175e-06  1.175e-05  0.3203 y y y y y y y y 
   40   50    9  1.132e-06  1.132e-05  0.3203 y y y y y y y y 
   41   14    9  6.357e-07  6.357e-06  0.3203 y y y y y y y y Subspace collapsed.
   42   18    9  4.909e-07  4.909e-06  0.3203 y y y y y y y y 
   43   22    9  3.249e-07  3.249e-06  0.3203 y y y y y y y y 
   44   26    9  1.630e-07  1.630e-06  0.3203 y y y y y y y y 
   45   30   10  8.375e-08  8.375e-07  0.3203 y y y y y y y y Converged.
--------------------------------------------------------------------------------
  Davidson Summary: 
 ------------------------------------------------------------
  State  0: excitation energy =   0.3203 a.u.   (converged)
  State  1: excitation energy =   0.3213 a.u.   (converged)
  State  2: excitation energy =   0.3354 a.u.   (converged)
  State  3: excitation energy =   0.3569 a.u.   (converged)
  State  4: excitation energy =   0.3747 a.u.   (converged)
  State  5: excitation energy =   0.3910 a.u.   (converged)
  State  6: excitation energy =   0.4145 a.u.   (converged)
  State  7: excitation energy =   0.4416 a.u.   (converged)
  State  8: excitation energy =   0.4516 a.u.   (converged)
  State  9: excitation energy =   0.4523 a.u.   (converged)
 ------------------------------------------------------------

  Singlet states of irrep A ...  CPU 234.82 s  wall 75.18 s
  TDMs ...  CPU 2.08 s  wall 0.79 s
  SDMs ...  CPU 4.86 s  wall 1.47 s
  Starting TPA DIIS iterations ... 
------------------------------------ 
   It     Res. Norm  Remark
------------------------------------
                       Guess.
    1     4.133e+00  
    2     5.530e+00  
    3     1.094e+00  
    4     2.885e-01  
    5     6.611e-02  
    6     2.951e-02  
    7     8.702e-03  
    8     1.871e-03  
    9     6.727e-04  
   10     1.076e-04  
   11     4.004e-05  
   12     5.595e-06  
   13     2.102e-06  
   14     5.171e-07  Converged.
   ... Converged in 14 steps (norm: 5.17118e-07)
------------------------------------
  Starting TPA DIIS iterations ... 
------------------------------------ 
   It     Res. Norm  Remark
------------------------------------
                       Guess.
    1     4.487e+00  
    2     5.910e+00  
    3     1.039e+00  
    4     2.490e-01  
    5     6.630e-02  
    6     2.624e-02  
    7     8.084e-03  
    8     1.429e-03  
    9     5.898e-04  
   10     8.896e-05  
   11     3.079e-05  
   12     4.991e-06  
   13     1.693e-06  
   14     5.393e-07  Converged.
   ... Converged in 14 steps (norm: 5.39269e-07)
------------------------------------
  Starting TPA DIIS iterations ... 
------------------------------------ 
   It     Res. Norm  Remark
------------------------------------
                       Guess.
    1     6.907e-01  
    2     4.879e-01  
    3     1.714e-01  
    4     9.391e-02  
    5     1.825e-02  
    6     6.515e-03  
    7     1.113e-03  
    8     4.804e-04  
    9     1.328e-04  
   10     2.940e-05  
   11     5.301e-06  
   12     2.186e-06  
   13     1.209e-06  
   14     3.745e-07  Converged.
   ... Converged in 14 steps (norm: 3.74483e-07)
------------------------------------
  Starting TPA DIIS iterations ... 
------------------------------------ 
   It     Res. Norm  Remark
------------------------------------
                       Guess.
    1     4.154e+00  
    2     5.568e+00  
    3     1.101e+00  
    4     2.910e-01  
    5     6.676e-02  
    6     2.983e-02  
    7     8.796e-03  
    8     1.892e-03  
    9     6.803e-04  
   10     1.089e-04  
   11     4.053e-05  
   12     5.667e-06  
   13     2.131e-06  
   14     5.242e-07  Converged.
   ... Converged in 14 steps (norm: 5.24187e-07)
------------------------------------
  Starting TPA DIIS iterations ... 
------------------------------------ 
   It     Res. Norm  Remark
------------------------------------
                       Guess.
    1     4.510e+00  
    2     5.951e+00  
    3     1.045e+00  
    4     2.511e-01  
    5     6.695e-02  
    6     2.651e-02  
    7     8.168e-03  
    8     1.444e-03  
    9     5.965e-04  
   10     8.999e-05  
   11     3.117e-05  
   12     5.058e-06  
   13     1.717e-06  
   14     5.467e-07  Converged.
   ... Converged in 14 steps (norm: 5.46712e-07)
------------------------------------
  Starting TPA DIIS iterations ... 
------------------------------------ 
   It     Res. Norm  Remark
------------------------------------
                       Guess.
    1     6.917e-01  
    2     4.893e-01  
    3     1.722e-01  
    4     9.484e-02  
    5     1.836e-02  
    6     6.566e-03  
    7     1.124e-03  
    8     4.867e-04  
    9     1.347e-04  
   10     2.973e-05  
   11     5.351e-06  
   12     2.215e-06  
   13     1.227e-06  
   14     3.805e-07  Converged.
   ... Converged in 14 steps (norm: 3.80461e-07)
------------------------------------
  Starting TPA DIIS iterations ... 
------------------------------------ 
   It     Res. Norm  Remark
------------------------------------
                       Guess.
    1     4.486e+00  
    2     6.173e+00  
    3     1.201e+00  
    4     3.313e-01  
    5     7.721e-02  
    6     3.502e-02  
    7     1.030e-02  
    8     2.224e-03  
    9     8.035e-04  
   10     1.291e-04  
   11     4.848e-05  
   12     6.840e-06  
   13     2.589e-06  
   14     6.414e-07  Converged.
   ... Converged in 14 steps (norm: 6.41387e-07)
------------------------------------
  Starting TPA DIIS iterations ... 
------------------------------------ 
   It     Res. Norm  Remark
------------------------------------
                       Guess.
    1     4.871e+00  
    2     6.597e+00  
    3     1.141e+00  
    4     2.854e-01  
    5     7.741e-02  
    6     3.092e-02  
    7     9.515e-03  
    8     1.686e-03  
    9     7.050e-04  
   10     1.067e-04  
   11     3.744e-05  
   12     6.157e-06  
   13     2.112e-06  
   14     6.689e-07  Converged.
   ... Converged in 14 steps (norm: 6.68944e-07)
------------------------------------
  Starting TPA DIIS iterations ... 
------------------------------------ 
   It     Res. Norm  Remark
------------------------------------
                       Guess.
    1     7.069e-01  
    2     5.116e-01  
    3     1.847e-01  
    4     1.097e-01  
    5     2.013e-02  
    6     7.384e-03  
    7     1.301e-03  
    8     5.917e-04  
    9     1.661e-04  
   10     3.440e-05  
   11     6.157e-06  
   12     2.695e-06  
   13     1.530e-06  
   14     4.801e-07  Converged.
   ... Converged in 14 steps (norm: 4.80117e-07)
------------------------------------
  Starting TPA DIIS iterations ... 
------------------------------------ 
   It     Res. Norm  Remark
------------------------------------
                       Guess.
    1     5.083e+00  
    2     7.294e+00  
    3     1.381e+00  
    4     4.090e-01  
    5     9.738e-02  
    6     4.519e-02  
    7     1.322e-02  
    8     2.870e-03  
    9     1.044e-03  
   10     1.686e-04  
   11     6.410e-05  
   12     9.165e-06  
   13     3.499e-06  
   14     8.860e-07  Converged.
   ... Converged in 14 steps (norm: 8.86014e-07)
------------------------------------
  Starting TPA DIIS iterations ... 
------------------------------------ 
   It     Res. Norm  Remark
------------------------------------
                       Guess.
    1     5.518e+00  
    2     7.794e+00  
    3     1.314e+00  
    4     3.512e-01  
    5     9.754e-02  
    6     3.949e-02  
    7     1.212e-02  
    8     2.155e-03  
    9     9.185e-04  
   10     1.397e-04  
   11     5.007e-05  
   12     8.377e-06  
   13     2.931e-06  
   14     9.166e-07  Converged.
   ... Converged in 14 steps (norm: 9.16643e-07)
------------------------------------
  Starting TPA DIIS iterations ... 
------------------------------------ 
   It     Res. Norm  Remark
------------------------------------
                       Guess.
    1     7.313e-01  
    2     5.495e-01  
    3     2.065e-01  
    4     1.377e-01  
    5     2.339e-02  
    6     8.952e-03  
    7     1.655e-03  
    8     8.031e-04  
    9     2.281e-04  
   10     4.078e-05  
   11     7.708e-06  
   12     3.665e-06  
   13     2.167e-06  
   14     6.867e-07  Converged.
   ... Converged in 14 steps (norm: 6.86709e-07)
------------------------------------
  Starting TPA DIIS iterations ... 
------------------------------------ 
   It     Res. Norm  Remark
------------------------------------
                       Guess.
    1     5.685e+00  
    2     8.465e+00  
    3     1.560e+00  
    4     4.938e-01  
    5     1.194e-01  
    6     5.646e-02  
    7     1.641e-02  
    8     3.580e-03  
    9     1.310e-03  
   10     2.121e-04  
   11     8.116e-05  
   12     1.174e-05  
   13     4.476e-06  
   14     1.179e-06  
   15     3.295e-07  Converged.
   ... Converged in 15 steps (norm: 3.29493e-07)
------------------------------------
  Starting TPA DIIS iterations ... 
------------------------------------ 
   It     Res. Norm  Remark
------------------------------------
                       Guess.
    1     6.170e+00  
    2     9.044e+00  
    3     1.487e+00  
    4     4.224e-01  
    5     1.194e-01  
    6     4.890e-02  
    7     1.495e-02  
    8     2.669e-03  
    9     1.156e-03  
   10     1.763e-04  
   11     6.446e-05  
   12     1.090e-05  
   13     3.891e-06  
   14     1.202e-06  
   15     3.863e-07  Converged.
   ... Converged in 15 steps (norm: 3.86306e-07)
------------------------------------
  Starting TPA DIIS iterations ... 
------------------------------------ 
   It     Res. Norm  Remark
------------------------------------
                       Guess.
    1     7.531e-01  
    2     5.854e-01  
    3     2.278e-01  
    4     1.667e-01  
    5     2.680e-02  
    6     1.065e-02  
    7     2.058e-03  
    8     1.030e-03  
    9     2.929e-04  
   10     4.531e-05  
   11     9.423e-06  
   12     4.754e-06  
   13     2.912e-06  
   14     9.261e-07  Converged.
   ... Converged in 14 steps (norm: 9.26094e-07)
------------------------------------
  Starting TPA DIIS iterations ... 
------------------------------------ 
   It     Res. Norm  Remark
------------------------------------
                       Guess.
    1     6.346e+00  
    2     9.793e+00  
    3     1.755e+00  
    4     5.935e-01  
    5     1.452e-01  
    6     6.990e-02  
    7     2.017e-02  
    8     4.419e-03  
    9     1.626e-03  
   10     2.637e-04  
   11     1.008e-04  
   12     1.482e-05  
   13     5.541e-06  
   14     1.554e-06  
   15     4.154e-07  Converged.
   ... Converged in 15 steps (norm: 4.15399e-07)
------------------------------------
  Starting TPA DIIS iterations ... 
------------------------------------ 
   It     Res. Norm  Remark
------------------------------------
                       Guess.
    1     6.885e+00  
    2     1.046e+01  
    3     1.676e+00  
    4     5.056e-01  
    5     1.450e-01  
    6     6.004e-02  
    7     1.827e-02  
    8     3.275e-03  
    9     1.440e-03  
   10     2.200e-04  
   11     8.197e-05  
   12     1.394e-05  
   13     5.086e-06  
   14     1.556e-06  
   15     5.049e-07  Converged.
   ... Converged in 15 steps (norm: 5.04924e-07)
------------------------------------
  Starting TPA DIIS iterations ... 
------------------------------------ 
   It     Res. Norm  Remark
------------------------------------
                       Guess.
    1     7.744e-01  
    2     6.228e-01  
    3     2.506e-01  
    4     1.983e-01  
    5     3.066e-02  
    6     1.264e-02  
    7     2.553e-03  
    8     1.273e-03  
    9     3.628e-04  
   10     4.966e-05  
   11     1.150e-05  
   12     6.050e-06  
   13     3.833e-06  
   14     1.219e-06  
   15     5.278e-07  Converged.
   ... Converged in 15 steps (norm: 5.27814e-07)
------------------------------------
  Starting TPA DIIS iterations ... 
------------------------------------ 
   It     Res. Norm  Remark
------------------------------------
                       Guess.
    1     7.543e+00  
    2     1.230e+01  
    3     2.102e+00  
    4     7.891e-01  
    5     1.959e-01  
    6     9.677e-02  
    7     2.758e-02  
    8     6.082e-03  
    9     2.254e-03  
   10     3.656e-04  
   11     1.372e-04  
   12     2.111e-05  
   13     7.288e-06  
   14     2.369e-06  
   15     6.091e-07  Converged.
   ... Converged in 15 steps (norm: 6.09122e-07)
------------------------------------
  Starting TPA DIIS iterations ... 
------------------------------------ 
   It     Res. Norm  Remark
------------------------------------
                       Guess.
    1     8.175e+00  
    2     1.313e+01  
    3     2.012e+00  
    4     6.674e-01  
    5     1.950e-01  
    6     8.214e-02  
    7     2.478e-02  
    8     4.474e-03  
    9     2.010e-03  
   10     3.072e-04  
   11     1.175e-04  
   12     2.006e-05  
   13     7.566e-06  
   14     2.314e-06  
   15     7.472e-07  Converged.
   ... Converged in 15 steps (norm: 7.47219e-07)
------------------------------------
  Starting TPA DIIS iterations ... 
------------------------------------ 
   It     Res. Norm  Remark
------------------------------------
                       Guess.
    1     8.077e-01  
    2     6.864e-01  
    3     2.902e-01  
    4     2.526e-01  
    5     3.793e-02  
    6     1.649e-02  
    7     3.569e-03  
    8     1.651e-03  
    9     4.823e-04  
   10     5.909e-05  
   11     1.574e-05  
   12     8.616e-06  
   13     5.752e-06  
   14     1.813e-06  
   15     7.773e-07  Converged.
   ... Converged in 15 steps (norm: 7.77325e-07)
------------------------------------
  Starting TPA DIIS iterations ... 
------------------------------------ 
   It     Res. Norm  Remark
------------------------------------
                       Guess.
    1     9.439e+00  
    2     1.652e+01  
    3     2.639e+00  
    4     1.130e+00  
    5     2.851e-01  
    6     1.452e-01  
    7     4.065e-02  
    8     9.042e-03  
    9     3.373e-03  
   10     5.458e-04  
   11     1.948e-04  
   12     3.414e-05  
   13     1.016e-05  
   14     3.970e-06  
   15     1.213e-06  
   16     3.099e-07  Converged.
   ... Converged in 16 steps (norm: 3.09907e-07)
------------------------------------
  Starting TPA DIIS iterations ... 
------------------------------------ 
   It     Res. Norm  Remark
------------------------------------
                       Guess.
    1     1.021e+01  
    2     1.763e+01  
    3     2.534e+00  
    4     9.475e-01  
    5     2.825e-01  
    6     1.216e-01  
    7     3.623e-02  
    8     6.607e-03  
    9     3.042e-03  
   10     4.639e-04  
   11     1.815e-04  
   12     3.099e-05  
   13     1.210e-05  
   14     3.853e-06  
   15     1.213e-06  
   16     3.368e-07  Converged.
   ... Converged in 16 steps (norm: 3.36785e-07)
------------------------------------
  Starting TPA DIIS iterations ... 
------------------------------------ 
   It     Res. Norm  Remark
------------------------------------
                       Guess.
    1     8.513e-01  
    2     7.796e-01  
    3     3.495e-01  
    4     3.256e-01  
    5     5.003e-02  
    6     2.292e-02  
    7     5.420e-03  
    8     2.046e-03  
    9     6.552e-04  
   10     8.008e-05  
   11     2.365e-05  
   12     1.327e-05  
   13     9.549e-06  
   14     2.840e-06  
   15     1.195e-06  
   16     2.953e-07  Converged.
   ... Converged in 16 steps (norm: 2.953e-07)
------------------------------------
  Starting TPA DIIS iterations ... 
------------------------------------ 
   It     Res. Norm  Remark
------------------------------------
                       Guess.
    1     1.033e+01  
    2     1.861e+01  
    3     2.887e+00  
    4     1.300e+00  
    5     3.304e-01  
    6     1.702e-01  
    7     4.729e-02  
    8     1.056e-02  
    9     3.947e-03  
   10     6.373e-04  
   11     2.224e-04  
   12     4.198e-05  
   13     1.195e-05  
   14     4.824e-06  
   15     1.650e-06  
   16     4.026e-07  Converged.
   ... Converged in 16 steps (norm: 4.02571e-07)
------------------------------------
  Starting TPA DIIS iterations ... 
------------------------------------ 
   It     Res. Norm  Remark
------------------------------------
                       Guess.
    1     1.117e+01  
    2     1.984e+01  
    3     2.775e+00  
    4     1.087e+00  
    5     3.268e-01  
    6     1.419e-01  
    7     4.205e-02  
    8     7.701e-03  
    9     3.577e-03  
   10     5.443e-04  
   11     2.141e-04  
   12     3.659e-05  
   13     1.444e-05  
   14     4.731e-06  
   15     1.492e-06  
   16     4.381e-07  Converged.
   ... Converged in 16 steps (norm: 4.38147e-07)
------------------------------------
  Starting TPA DIIS iterations ... 
------------------------------------ 
   It     Res. Norm  Remark
------------------------------------
                       Guess.
    1     8.691e-01  
    2     8.216e-01  
    3     3.762e-01  
    4     3.541e-01  
    5     5.593e-02  
    6     2.596e-02  
    7     6.360e-03  
    8     2.164e-03  
    9     7.319e-04  
   10     9.170e-05  
   11     2.781e-05  
   12     1.578e-05  
   13     1.176e-05  
   14     3.327e-06  
   15     1.391e-06  
   16     3.625e-07  Converged.
   ... Converged in 16 steps (norm: 3.62546e-07)
------------------------------------
  Starting TPA DIIS iterations ... 
------------------------------------ 
   It     Res. Norm  Remark
------------------------------------
                       Guess.
    1     1.040e+01  
    2     1.876e+01  
    3     2.905e+00  
    4     1.313e+00  
    5     3.338e-01  
    6     1.721e-01  
    7     4.780e-02  
    8     1.067e-02  
    9     3.990e-03  
   10     6.442e-04  
   11     2.245e-04  
   12     4.261e-05  
   13     1.210e-05  
   14     4.890e-06  
   15     1.686e-06  
   16     4.103e-07  Converged.
   ... Converged in 16 steps (norm: 4.10349e-07)
------------------------------------
  Starting TPA DIIS iterations ... 
------------------------------------ 
   It     Res. Norm  Remark
------------------------------------
                       Guess.
    1     1.124e+01  
    2     2.001e+01  
    3     2.792e+00  
    4     1.098e+00  
    5     3.302e-01  
    6     1.434e-01  
    7     4.249e-02  
    8     7.784e-03  
    9     3.618e-03  
   10     5.504e-04  
   11     2.166e-04  
   12     3.702e-05  
   13     1.462e-05  
   14     4.800e-06  
   15     1.515e-06  
   16     4.465e-07  Converged.
   ... Converged in 16 steps (norm: 4.4651e-07)
------------------------------------
  Starting TPA DIIS iterations ... 
------------------------------------ 
   It     Res. Norm  Remark
------------------------------------
                       Guess.
    1     8.704e-01  
    2     8.246e-01  
    3     3.782e-01  
    4     3.561e-01  
    5     5.637e-02  
    6     2.619e-02  
    7     6.431e-03  
    8     2.171e-03  
    9     7.375e-04  
   10     9.259e-05  
   11     2.813e-05  
   12     1.597e-05  
   13     1.193e-05  
   14     3.362e-06  
   15     1.405e-06  
   16     3.674e-07  Converged.
   ... Converged in 16 steps (norm: 3.67366e-07)
------------------------------------
  Two-photon absorbption ...  CPU 156.55 s  wall 41.87 s
  Transition density matrix of state singlet_A_1 printed to ASCII file 'State_singlet_A_1_Transition.txt'
  Transition density matrix of state singlet_A_2 printed to ASCII file 'State_singlet_A_2_Transition.txt'
  Transition density matrix of state singlet_A_3 printed to ASCII file 'State_singlet_A_3_Transition.txt'
  Transition density matrix of state singlet_A_4 printed to ASCII file 'State_singlet_A_4_Transition.txt'
  Transition density matrix of state singlet_A_5 printed to ASCII file 'State_singlet_A_5_Transition.txt'
  Transition density matrix of state singlet_A_6 printed to ASCII file 'State_singlet_A_6_Transition.txt'
  Transition density matrix of state singlet_A_7 printed to ASCII file 'State_singlet_A_7_Transition.txt'
  Transition density matrix of state singlet_A_8 printed to ASCII file 'State_singlet_A_8_Transition.txt'
  Transition density matrix of state singlet_A_9 printed to ASCII file 'State_singlet_A_9_Transition.txt'
  Transition density matrix of state singlet_A_10 printed to ASCII file 'State_singlet_A_10_Transition.txt'
  Transition properties ...  CPU 0.33 s  wall 0.64 s
  Difference density matrix of state singlet_A_1 printed to ASCII file 'State_singlet_A_1_Difference.txt'
  Total density matrix of state singlet_A_1 printed to ASCII file 'State_singlet_A_1_Total.txt'
  Difference density matrix of state singlet_A_2 printed to ASCII file 'State_singlet_A_2_Difference.txt'
  Total density matrix of state singlet_A_2 printed to ASCII file 'State_singlet_A_2_Total.txt'
  Difference density matrix of state singlet_A_3 printed to ASCII file 'State_singlet_A_3_Difference.txt'
  Total density matrix of state singlet_A_3 printed to ASCII file 'State_singlet_A_3_Total.txt'
  Difference density matrix of state singlet_A_4 printed to ASCII file 'State_singlet_A_4_Difference.txt'
  Total density matrix of state singlet_A_4 printed to ASCII file 'State_singlet_A_4_Total.txt'
  Difference density matrix of state singlet_A_5 printed to ASCII file 'State_singlet_A_5_Difference.txt'
  Total density matrix of state singlet_A_5 printed to ASCII file 'State_singlet_A_5_Total.txt'
  Difference density matrix of state singlet_A_6 printed to ASCII file 'State_singlet_A_6_Difference.txt'
  Total density matrix of state singlet_A_6 printed to ASCII file 'State_singlet_A_6_Total.txt'
  Difference density matrix of state singlet_A_7 printed to ASCII file 'State_singlet_A_7_Difference.txt'
  Total density matrix of state singlet_A_7 printed to ASCII file 'State_singlet_A_7_Total.txt'
  Difference density matrix of state singlet_A_8 printed to ASCII file 'State_singlet_A_8_Difference.txt'
  Total density matrix of state singlet_A_8 printed to ASCII file 'State_singlet_A_8_Total.txt'
  Difference density matrix of state singlet_A_9 printed to ASCII file 'State_singlet_A_9_Difference.txt'
  Total density matrix of state singlet_A_9 printed to ASCII file 'State_singlet_A_9_Total.txt'
  Difference density matrix of state singlet_A_10 printed to ASCII file 'State_singlet_A_10_Difference.txt'
  Total density matrix of state singlet_A_10 printed to ASCII file 'State_singlet_A_10_Total.txt'
  Properties ...  CPU 0.60 s  wall 0.96 s
  ISR TDMS ...  CPU 31.12 s  wall 9.72 s
  ISR transition properties ...  CPU 0.52 s  wall 0.25 s
  Sum-over-states TPA ...  CPU 0.00 s  wall 0.00 s

--------------------------------------------------------------------------------
                   State-averaged natural transition orbitals
--------------------------------------------------------------------------------
--------------------------------------------------------------------------------
  SA-NTO decomposition ...  CPU 0.01 s  wall 0.03 s

--------------------------------------------------------------------------------
                             Excited State Summary
--------------------------------------------------------------------------------
--------------------------------------------------------------------------------

  Excited state 1 (singlet, A)                                     [converged]
  ----------------------------------------------------------------------------
  Term symbol:  2 (1) A                                     R^2 =  3.73026e-13

  Total energy:                                            -77.9962952950 a.u.
  Excitation energy:                                               8.717135 eV

  Osc. strength:                                                      0.445724
  Trans. dip. moment [a.u.]:           [   1.036561,   -1.006216,   -0.011213]
  <i|r^2|0> [a.u.]:                    [   6.116337,   -0.248524,    0.000738]
  Two-photon absorption cross-section (SoS) [a.u.]:                   0.000039
  Two-photon absorption matrix (SoS) [a.u.]:
                                       |   -0.000081   -0.000156    0.001110 |
                                       |   -0.000156   -0.000197    0.001865 |
                                       |    0.001110    0.001865    0.000350 |
  Two-photon absorption cross-section [a.u.]:                         0.000034
  Two-photon absorption matrix [a.u.]:
                                       |    0.000196    0.000115   -0.002045 |
                                       |    0.000115   -0.000035    0.000050 |
                                       |   -0.002045    0.000050   -0.000181 |

  Dip. moment [a.u.]:                  [  -0.000002,    0.000003,   -0.000011]
  Total dipole [Debye]:                                               0.000029
  <r^2> [a.u.]:                        [ 175.653787,   37.061594,   11.923652]
  Total <r^2> [a.u.]:                                               224.639033

  V1^2 = 0.9713, V2^2 = 0.0287

  Important amplitudes:
      occ i     occ j     vir a      vir b          v   
    -----------------------------------------------------
     8 (A) A              9 (A) A                 0.6806
     6 (A) A             14 (A) A                 0.0619
     4 (A) A             10 (A) A                 0.0608
     7 (A) A             16 (A) A                -0.0543
     5 (A) A             13 (A) A                 0.0532
     6 (A) A             23 (A) A                -0.0460
     8 (A) A             20 (A) A                 0.0350
     6 (A) A             19 (A) A                -0.0270
     3 (A) A             12 (A) A                -0.0269
     5 (A) A             22 (A) A                 0.0219
     3 (A) A             27 (A) A                -0.0186
     4 (A) A             24 (A) A                 0.0185
     8 (A) A   8 (A) B   17 (A) A   20 (A) B     -0.0184
     7 (A) A             11 (A) A                 0.0178
     7 (A) A             21 (A) A                -0.0175
     6 (A) A             16 (A) A                 0.0166
     6 (A) A             27 (A) A                 0.0159
     8 (A) A   8 (A) B    9 (A) A   28 (A) B      0.0157
     7 (A) A             12 (A) A                -0.0148
     3 (A) A             14 (A) A                -0.0146
     7 (A) A             23 (A) A                -0.0145
     3 (A) A   4 (A) B    9 (A) A    9 (A) B     -0.0129
     5 (A) A             10 (A) A                -0.0122
     6 (A) A             12 (A) A                -0.0121
     3 (A) A             19 (A) A                 0.0117
     8 (A) A   8 (A) B   18 (A) A   19 (A) B     -0.0108
     7 (A) A             19 (A) A                -0.0107
     7 (A) A             14 (A) A                 0.0106
     7 (A) A             32 (A) A                -0.0094
     3 (A) A             11 (A) A                -0.0094
     3 (A) A             23 (A) A                 0.0082
     7 (A) A             36 (A) A                -0.0078
     8 (A) A   8 (A) B   25 (A) A   29 (A) B      0.0069
     6 (A) A             34 (A) A                -0.0068
     6 (A) A             40 (A) A                -0.0062
     3 (A) A   6 (A) B    9 (A) A   28 (A) B     -0.0062
     8 (A) A   8 (A) B    9 (A) A   29 (A) B     -0.0061
     5 (A) A   7 (A) B    9 (A) A    9 (A) B      0.0059
     5 (A) A             26 (A) A                -0.0058
     5 (A) A   8 (A) B   16 (A) A    9 (A) B     -0.0058
    -----------------------------------------------------

  Density matrix analysis:
  ------------------------
  NOs
    Occupation of frontier NOs:
       0.9484   1.0226
    Number of electrons: 16.000000
    Number of unpaired electrons: n_u =  2.31771, n_u,nl =  2.03371
    NO participation ratio (PR_NO):  2.879928
  
  
  Mulliken Population Analysis
  Atom      Charge (e)              h+              e-           Del q
  --------------------------------------------------------------------
   1 H        0.059812        0.019479       -0.013058        0.006421
   2 C       -0.124829        0.490414       -0.505988       -0.015575
   3 H        0.065025        0.021162       -0.012008        0.009155
   4 C       -0.124841        0.490413       -0.505989       -0.015577
   5 H        0.065025        0.021162       -0.012007        0.009155
   6 H        0.059809        0.019479       -0.013058        0.006421
  --------------------------------------------------------------------
  Sum:        0.000000        1.062109       -1.062109        0.000000
  
  Multipole moment analysis of the density matrix
    Molecular charge:                      -0.000000
    Number of electrons:                   16.000000
      Center of electronic charge [Ang]: [ -1.561338,  -0.065287,   0.002127]
    Total nuclear charge:                  16.000000
      Center of nuclear charge [Ang]:    [ -1.561339,  -0.065287,   0.002127]
    Dipole moment [D]:                     0.000029
      Cartesian components [D]:          [ -0.000005,   0.000008,  -0.000027]
    RMS size of the density [Ang]:         1.220467
      Cartesian components [Ang]:        [  0.797795,   0.802734,   0.456816]
  
  Exciton analysis of the difference density matrix
    <r_h> [Ang]:                  [ -1.561333,  -0.065283,   0.002045]
    <r_e> [Ang]:                  [ -1.561334,  -0.065284,   0.002058]
    |<r_e - r_h>| [Ang]:            0.000013
    Hole size [Ang]:                1.287542
      Cartesian components [Ang]: [  0.717768,   0.727694,   0.782965]
    Electron size [Ang]:            1.463859
      Cartesian components [Ang]: [  0.831170,   0.855400,   0.848722]

  Transition density matrix analysis:
  -----------------------------------
  
  CT numbers (Mulliken)
    omega =     0.9530
    <Phe> =    -0.1602
  
  Exciton analysis of the transition density matrix
    Trans. dipole moment [D]:             1.835985
      Cartesian components [D]:         [  1.317338,  -1.278773,  -0.014250]
    <r_h> [Ang]:                        [ -1.561335,  -0.065289,   0.002118]
    <r_e> [Ang]:                        [ -1.561335,  -0.065285,   0.002077]
    |<r_e - r_h>| [Ang]:                  0.000042
    Hole size [Ang]:                      1.215001
      Cartesian components [Ang]:       [  0.639350,   0.648984,   0.803915]
    Electron size [Ang]:                  1.486354
      Cartesian components [Ang]:       [  0.840785,   0.864769,   0.868621]
    RMS electron-hole separation [Ang]:   1.936922
      Cartesian components [Ang]:       [  1.074406,   1.108836,   1.169531]
    Covariance(r_h, r_e) [Ang^2]:        -0.033096
    Correlation coefficient:             -0.018327
    Center-of-mass size [Ang]:            0.951221
      Cartesian components [Ang]:       [  0.518899,   0.526425,   0.598699]

  Decomposition into state-averaged NTOs
    H- 0 -> L+ 0:  0.6694 ( 89.6%)
    H- 2 -> L+ 5: -0.0822 (  1.4%)
                   omega =  95.3%
  ----------------------------------------------------------------------------


  Excited state 2 (singlet, A)                                     [converged]
  ----------------------------------------------------------------------------
  Term symbol:  3 (1) A                                     R^2 =  7.17357e-13

  Total energy:                                            -77.9953285185 a.u.
  Excitation energy:                                               8.743442 eV

  Osc. strength:                                                      0.000010
  Trans. dip. moment [a.u.]:           [   0.004886,   -0.004721,   -0.000050]
  <i|r^2|0> [a.u.]:                    [   0.115337,    0.050317,   -0.137982]
  Two-photon absorption cross-section (SoS) [a.u.]:                   2.212858
  Two-photon absorption matrix (SoS) [a.u.]:
                                       |    0.026298    0.038048   -0.281214 |
                                       |    0.038048    0.053391   -0.437131 |
                                       |   -0.281214   -0.437131   -0.080296 |
  Two-photon absorption cross-section [a.u.]:                         1.300243
  Two-photon absorption matrix [a.u.]:
                                       |   -0.040829   -0.022293    0.398350 |
                                       |   -0.022293    0.007163   -0.044063 |
                                       |    0.398350   -0.044063    0.033165 |

  Dip. moment [a.u.]:                  [  -0.000056,    0.000036,    0.000069]
  Total dipole [Debye]:                                               0.000244
  <r^2> [a.u.]:                        [ 172.830829,   36.377633,   13.249816]
  Total <r^2> [a.u.]:                                               222.458278

  V1^2 = 0.9552, V2^2 = 0.0448

  Important amplitudes:
      occ i     occ j     vir a      vir b          v   
    -----------------------------------------------------
     7 (A) A              9 (A) A                 0.6744
     8 (A) A             11 (A) A                 0.1052
     7 (A) A             20 (A) A                 0.0772
     8 (A) A             12 (A) A                -0.0507
     6 (A) A              9 (A) A                 0.0402
     5 (A) A   8 (A) B    9 (A) A    9 (A) B      0.0302
     8 (A) A             16 (A) A                 0.0218
     3 (A) A              9 (A) A                -0.0161
     4 (A) A   7 (A) B    9 (A) A   19 (A) B     -0.0135
     5 (A) A             28 (A) A                -0.0133
     8 (A) A             21 (A) A                -0.0129
     5 (A) A   7 (A) B    9 (A) A   16 (A) B      0.0122
     7 (A) A   8 (A) B   20 (A) A   17 (A) B     -0.0106
     8 (A) A             19 (A) A                 0.0091
     5 (A) A   8 (A) B    9 (A) A   20 (A) B      0.0090
     6 (A) A             20 (A) A                 0.0086
     5 (A) A   6 (A) A    9 (A) A   23 (A) A      0.0085
     7 (A) A   8 (A) A    9 (A) A   28 (A) A     -0.0085
     8 (A) A   7 (A) B    9 (A) A   28 (A) B      0.0085
     5 (A) A   6 (A) A    9 (A) A   14 (A) A     -0.0084
     4 (A) A   5 (A) A    9 (A) A   10 (A) A      0.0080
     3 (A) A   7 (A) B    9 (A) A   18 (A) B      0.0079
     4 (A) A   6 (A) B    9 (A) A   16 (A) B     -0.0077
     5 (A) A   6 (A) B    9 (A) A   23 (A) B      0.0075
     5 (A) A   7 (A) A    9 (A) A   16 (A) A      0.0075
     7 (A) A   8 (A) B   17 (A) A   20 (A) B     -0.0075
     4 (A) A   7 (A) B   19 (A) A    9 (A) B     -0.0071
     4 (A) A   8 (A) B    9 (A) A   25 (A) B      0.0071
     5 (A) A   6 (A) B    9 (A) A   19 (A) B      0.0071
     8 (A) A             14 (A) A                 0.0071
     7 (A) A   8 (A) B   19 (A) A   18 (A) B     -0.0069
     5 (A) A   5 (A) B    9 (A) A   13 (A) B     -0.0067
     6 (A) A   7 (A) B    9 (A) A   18 (A) B      0.0067
     5 (A) A   8 (A) A    9 (A) A   20 (A) A      0.0066
     7 (A) A   8 (A) B   17 (A) A    9 (A) B     -0.0065
     5 (A) A   6 (A) B    9 (A) A   14 (A) B     -0.0065
     7 (A) A   7 (A) B   20 (A) A   22 (A) B      0.0064
     4 (A) A   7 (A) A    9 (A) A   19 (A) A     -0.0063
     4 (A) A   5 (A) B    9 (A) A   18 (A) B     -0.0063
     5 (A) A   7 (A) B    9 (A) A   19 (A) B      0.0061
    -----------------------------------------------------

  Density matrix analysis:
  ------------------------
  NOs
    Occupation of frontier NOs:
       0.9748   1.0345
    Number of electrons: 16.000000
    Number of unpaired electrons: n_u =  2.35415, n_u,nl =  2.05089
    NO participation ratio (PR_NO):  2.921807
  
  
  Mulliken Population Analysis
  Atom      Charge (e)              h+              e-           Del q
  --------------------------------------------------------------------
   1 H        0.200490        0.170121       -0.023022        0.147099
   2 C       -0.311098        0.286226       -0.488069       -0.201843
   3 H        0.110602        0.070673       -0.015941        0.054732
   4 C       -0.311105        0.286243       -0.488084       -0.201840
   5 H        0.110610        0.070680       -0.015940        0.054740
   6 H        0.200501        0.170133       -0.023021        0.147112
  --------------------------------------------------------------------
  Sum:        0.000000        1.054077       -1.054077        0.000000
  
  Multipole moment analysis of the density matrix
    Molecular charge:                      0.000000
    Number of electrons:                   16.000000
      Center of electronic charge [Ang]: [ -1.561337,  -0.065288,   0.002125]
    Total nuclear charge:                  16.000000
      Center of nuclear charge [Ang]:    [ -1.561339,  -0.065287,   0.002127]
    Dipole moment [D]:                     0.000244
      Cartesian components [D]:          [ -0.000143,   0.000091,   0.000176]
    RMS size of the density [Ang]:         1.204731
      Cartesian components [Ang]:        [  0.766208,   0.795243,   0.481550]
  
  Exciton analysis of the difference density matrix
    <r_h> [Ang]:                  [ -1.561370,  -0.065270,   0.002205]
    <r_e> [Ang]:                  [ -1.561344,  -0.065287,   0.002178]
    |<r_e - r_h>| [Ang]:            0.000041
    Hole size [Ang]:                1.485678
      Cartesian components [Ang]: [  1.143041,   0.835263,   0.450590]
    Electron size [Ang]:            1.454920
      Cartesian components [Ang]: [  0.856543,   0.848334,   0.814528]

  Transition density matrix analysis:
  -----------------------------------
  
  CT numbers (Mulliken)
    omega =     0.9219
    <Phe> =    -0.0136
  
  Exciton analysis of the transition density matrix
    Trans. dipole moment [D]:             0.008635
      Cartesian components [D]:         [  0.006210,  -0.006000,  -0.000063]
    <r_h> [Ang]:                        [ -1.561372,  -0.065261,   0.002138]
    <r_e> [Ang]:                        [ -1.561340,  -0.065288,   0.002161]
    |<r_e - r_h>| [Ang]:                  0.000048
    Hole size [Ang]:                      1.512158
      Cartesian components [Ang]:       [  1.182680,   0.834734,   0.437162]
    Electron size [Ang]:                  1.451453
      Cartesian components [Ang]:       [  0.839135,   0.842264,   0.832560]
    RMS electron-hole separation [Ang]:   2.076317
      Cartesian components [Ang]:       [  1.434061,   1.171281,   0.939501]
    Covariance(r_h, r_e) [Ang^2]:         0.041122
    Correlation coefficient:              0.018736
    Center-of-mass size [Ang]:            1.057778
      Cartesian components [Ang]:       [  0.733013,   0.600100,   0.470604]

  Decomposition into state-averaged NTOs
    H- 1 -> L+ 0: -0.6662 ( 88.8%)
    H- 0 -> L+ 2: -0.1149 (  2.6%)
                   omega =  92.2%
  ----------------------------------------------------------------------------


  Excited state 3 (singlet, A)                                     [converged]
  ----------------------------------------------------------------------------
  Term symbol:  4 (1) A                                     R^2 =  5.55949e-13

  Total energy:                                            -77.9812299671 a.u.
  Excitation energy:                                               9.127083 eV

  Osc. strength:                                                      0.023432
  Trans. dip. moment [a.u.]:           [   0.015943,    0.019048,   -0.322761]
  <i|r^2|0> [a.u.]:                    [   0.093816,    0.004902,    0.002600]
  Two-photon absorption cross-section (SoS) [a.u.]:                   0.000019
  Two-photon absorption matrix (SoS) [a.u.]:
                                       |   -0.001692   -0.000150   -0.000176 |
                                       |   -0.000150    0.001364    0.000011 |
                                       |   -0.000176    0.000011    0.000121 |
  Two-photon absorption cross-section [a.u.]:                         0.000010
  Two-photon absorption matrix [a.u.]:
                                       |   -0.001188   -0.000100   -0.000146 |
                                       |   -0.000100    0.001060    0.000035 |
                                       |   -0.000146    0.000035    0.000069 |

  Dip. moment [a.u.]:                  [   0.000043,    0.000064,   -0.000021]
  Total dipole [Debye]:                                               0.000202
  <r^2> [a.u.]:                        [ 180.664285,   41.743436,   11.056911]
  Total <r^2> [a.u.]:                                               233.464632

  V1^2 = 0.9580, V2^2 = 0.0420

  Important amplitudes:
      occ i     occ j     vir a      vir b          v   
    -----------------------------------------------------
     8 (A) A             10 (A) A                 0.6880
     8 (A) A             24 (A) A                 0.0493
     8 (A) A             18 (A) A                -0.0330
     8 (A) A             13 (A) A                -0.0314
     4 (A) A              9 (A) A                 0.0245
     8 (A) A   8 (A) B    9 (A) A   12 (A) B     -0.0215
     8 (A) A   8 (A) B   10 (A) A   17 (A) B      0.0171
     5 (A) A   8 (A) B   11 (A) A   10 (A) B     -0.0158
     8 (A) A             15 (A) A                 0.0150
     8 (A) A             22 (A) A                -0.0140
     7 (A) A   8 (A) B   13 (A) A   10 (A) B     -0.0136
     6 (A) A   8 (A) A   10 (A) A   15 (A) A      0.0104
     4 (A) A   8 (A) B   12 (A) A   10 (A) B     -0.0104
     7 (A) A   8 (A) B   22 (A) A   10 (A) B     -0.0103
     4 (A) A   8 (A) A   10 (A) A   12 (A) A      0.0102
     6 (A) A   8 (A) B   15 (A) A   10 (A) B     -0.0101
     7 (A) A   8 (A) A   10 (A) A   22 (A) A      0.0096
     7 (A) A   8 (A) A   10 (A) A   13 (A) A      0.0092
     5 (A) A   8 (A) B   21 (A) A   10 (A) B      0.0091
     5 (A) A   8 (A) A   10 (A) A   11 (A) A      0.0089
     6 (A) A   8 (A) B   10 (A) A   10 (A) B      0.0084
     6 (A) A   8 (A) A   10 (A) A   18 (A) A      0.0084
     7 (A) A   8 (A) A   12 (A) A   16 (A) A      0.0080
     3 (A) A   4 (A) B   10 (A) A    9 (A) B     -0.0079
     5 (A) A   8 (A) A   10 (A) A   21 (A) A     -0.0077
     8 (A) A   8 (A) B    9 (A) A   23 (A) B     -0.0074
     4 (A) A   8 (A) B   19 (A) A   10 (A) B      0.0073
     8 (A) A   8 (A) B    9 (A) A   19 (A) B      0.0071
     3 (A) A   8 (A) B   10 (A) A   10 (A) B      0.0071
     3 (A) A   8 (A) A   10 (A) A   24 (A) A     -0.0070
     5 (A) A   8 (A) B   10 (A) A   11 (A) B     -0.0068
     3 (A) A   8 (A) B   10 (A) A   18 (A) B     -0.0068
     8 (A) A   8 (A) B   10 (A) A   28 (A) B      0.0067
     7 (A) A   8 (A) B   16 (A) A   12 (A) B     -0.0067
     6 (A) A   8 (A) B   18 (A) A   10 (A) B     -0.0064
     5 (A) A   8 (A) B   12 (A) A   10 (A) B      0.0061
     3 (A) A   6 (A) B   10 (A) A   28 (A) B     -0.0059
     8 (A) A   8 (A) B    9 (A) A   11 (A) B     -0.0058
     3 (A) A   5 (A) B   10 (A) A   25 (A) B     -0.0056
     5 (A) A   8 (A) A   10 (A) A   16 (A) A      0.0055
    -----------------------------------------------------

  Density matrix analysis:
  ------------------------
  NOs
    Occupation of frontier NOs:
       0.9812   0.9846
    Number of electrons: 16.000000
    Number of unpaired electrons: n_u =  2.28943, n_u,nl =  2.02521
    NO participation ratio (PR_NO):  2.703376
  
  
  Mulliken Population Analysis
  Atom      Charge (e)              h+              e-           Del q
  --------------------------------------------------------------------
   1 H       -0.165663        0.054756       -0.273811       -0.219055
   2 C        0.308162        0.538028       -0.120611        0.417416
   3 H       -0.142496        0.053299       -0.251665       -0.198366
   4 C        0.308151        0.538023       -0.120608        0.417415
   5 H       -0.142474        0.053299       -0.251643       -0.198344
   6 H       -0.165678        0.054757       -0.273824       -0.219067
  --------------------------------------------------------------------
  Sum:        0.000000        1.292162       -1.292162       -0.000000
  
  Multipole moment analysis of the density matrix
    Molecular charge:                      0.000000
    Number of electrons:                   16.000000
      Center of electronic charge [Ang]: [ -1.561340,  -0.065289,   0.002128]
    Total nuclear charge:                  16.000000
      Center of nuclear charge [Ang]:    [ -1.561339,  -0.065287,   0.002127]
    Dipole moment [D]:                     0.000202
      Cartesian components [D]:          [  0.000108,   0.000161,  -0.000053]
    RMS size of the density [Ang]:         1.282185
      Cartesian components [Ang]:        [  0.850979,   0.852245,   0.439899]
  
  Exciton analysis of the difference density matrix
    <r_h> [Ang]:                  [ -1.561337,  -0.065289,   0.002122]
    <r_e> [Ang]:                  [ -1.561357,  -0.065314,   0.002137]
    |<r_e - r_h>| [Ang]:            0.000035
    Hole size [Ang]:                1.412494
      Cartesian components [Ang]: [  0.827573,   0.830899,   0.787319]
    Electron size [Ang]:            2.075199
      Cartesian components [Ang]: [  1.383850,   1.367912,   0.721269]

  Transition density matrix analysis:
  -----------------------------------
  
  CT numbers (Mulliken)
    omega =     0.9248
    <Phe> =    -0.0110
  
  Exciton analysis of the transition density matrix
    Trans. dipole moment [D]:             0.411401
      Cartesian components [D]:         [  0.020261,   0.024208,  -0.410188]
    <r_h> [Ang]:                        [ -1.561334,  -0.065288,   0.002118]
    <r_e> [Ang]:                        [ -1.561363,  -0.065324,   0.002141]
    |<r_e - r_h>| [Ang]:                  0.000051
    Hole size [Ang]:                      1.213253
      Cartesian components [Ang]:       [  0.623510,   0.637433,   0.822738]
    Electron size [Ang]:                  2.296013
      Cartesian components [Ang]:       [  1.535222,   1.509779,   0.797079]
    RMS electron-hole separation [Ang]:   2.586711
      Cartesian components [Ang]:       [  1.649882,   1.631087,   1.143904]
    Covariance(r_h, r_e) [Ang^2]:         0.026293
    Correlation coefficient:              0.009439
    Center-of-mass size [Ang]:            1.303480
      Cartesian components [Ang]:       [  0.832050,   0.823265,   0.573574]

  Decomposition into state-averaged NTOs
    H- 0 -> L+ 1:  0.6793 ( 92.3%)
                   omega =  92.5%
  ----------------------------------------------------------------------------


  Excited state 4 (singlet, A)                                     [converged]
  ----------------------------------------------------------------------------
  Term symbol:  5 (1) A                                     R^2 =  5.06762e-13

  Total energy:                                            -77.9597626283 a.u.
  Excitation energy:                                               9.711239 eV

  Osc. strength:                                                      0.000000
  Trans. dip. moment [a.u.]:           [  -0.000163,    0.000143,    0.000005]
  <i|r^2|0> [a.u.]:                    [   0.004818,    0.040834,   -0.046530]
  Two-photon absorption cross-section (SoS) [a.u.]:                 136.310796
  Two-photon absorption matrix (SoS) [a.u.]:
                                       |    0.225618    0.303676   -2.358223 |
                                       |    0.303676    0.407040   -3.328245 |
                                       |   -2.358223   -3.328245   -0.632310 |
  Two-photon absorption cross-section [a.u.]:                        77.601332
  Two-photon absorption matrix [a.u.]:
                                       |    0.177081    0.231515   -1.874271 |
                                       |    0.231515    0.301208   -2.441006 |
                                       |   -1.874271   -2.441006   -0.477754 |

  Dip. moment [a.u.]:                  [  -0.000046,   -0.000057,   -0.000030]
  Total dipole [Debye]:                                               0.000202
  <r^2> [a.u.]:                        [ 180.083854,   42.733371,   10.737053]
  Total <r^2> [a.u.]:                                               233.554278

  V1^2 = 0.9634, V2^2 = 0.0366

  Important amplitudes:
      occ i     occ j     vir a      vir b          v   
    -----------------------------------------------------
     8 (A) A             11 (A) A                 0.6546
     8 (A) A             12 (A) A                -0.1600
     7 (A) A              9 (A) A                -0.1130
     8 (A) A             21 (A) A                -0.0776
     8 (A) A             16 (A) A                 0.0673
     6 (A) A              9 (A) A                -0.0550
     8 (A) A             14 (A) A                 0.0292
     8 (A) A   8 (A) B    9 (A) A   13 (A) B     -0.0170
     5 (A) A   8 (A) B   11 (A) A   11 (A) B     -0.0144
     8 (A) A   8 (A) B   11 (A) A   17 (A) B      0.0134
     7 (A) A   8 (A) B   13 (A) A   11 (A) B     -0.0116
     8 (A) A   8 (A) B    9 (A) A   22 (A) B     -0.0110
     5 (A) A   8 (A) A   11 (A) A   21 (A) A     -0.0104
     7 (A) A             20 (A) A                -0.0099
     8 (A) A             19 (A) A                 0.0099
     4 (A) A   8 (A) B   12 (A) A   11 (A) B     -0.0098
     6 (A) A   8 (A) B   10 (A) A   11 (A) B      0.0088
     7 (A) A   8 (A) A   11 (A) A   22 (A) A      0.0087
     6 (A) A             20 (A) A                -0.0084
     6 (A) A   8 (A) B   15 (A) A   11 (A) B     -0.0081
     7 (A) A   8 (A) B   22 (A) A   11 (A) B     -0.0081
     3 (A) A   4 (A) B   11 (A) A    9 (A) B     -0.0078
     3 (A) A   8 (A) B   11 (A) A   18 (A) B     -0.0078
     7 (A) A   8 (A) A   13 (A) A   16 (A) A      0.0075
     6 (A) A   8 (A) A   11 (A) A   15 (A) A      0.0072
     7 (A) A   8 (A) A   11 (A) A   13 (A) A      0.0071
     4 (A) A   8 (A) B   19 (A) A   11 (A) B      0.0067
     5 (A) A   8 (A) B   21 (A) A   11 (A) B      0.0066
     4 (A) A   8 (A) A   11 (A) A   12 (A) A      0.0061
     6 (A) A   8 (A) B   18 (A) A   11 (A) B     -0.0061
     8 (A) A             23 (A) A                 0.0060
     6 (A) A   8 (A) A   11 (A) A   18 (A) A      0.0059
     7 (A) A   8 (A) B   12 (A) A   10 (A) B     -0.0057
     3 (A) A   6 (A) B   11 (A) A   28 (A) B     -0.0057
     5 (A) A   8 (A) B   10 (A) A   10 (A) B     -0.0055
     6 (A) A   8 (A) B   11 (A) A   10 (A) B      0.0055
     3 (A) A   8 (A) B   11 (A) A   30 (A) B     -0.0054
     8 (A) A   8 (A) B   20 (A) A   22 (A) B     -0.0054
     4 (A) A   8 (A) B   11 (A) A   11 (A) B     -0.0054
     7 (A) A   8 (A) B   16 (A) A   13 (A) B     -0.0054
    -----------------------------------------------------

  Density matrix analysis:
  ------------------------
  NOs
    Occupation of frontier NOs:
       0.9544   1.0136
    Number of electrons: 16.000000
    Number of unpaired electrons: n_u =  2.32165, n_u,nl =  2.04108
    NO participation ratio (PR_NO):  2.843139
  
  
  Mulliken Population Analysis
  Atom      Charge (e)              h+              e-           Del q
  --------------------------------------------------------------------
   1 H       -0.107609        0.047130       -0.208131       -0.161000
   2 C        0.263136        0.506784       -0.134394        0.372391
   3 H       -0.155522        0.039206       -0.250598       -0.211392
   4 C        0.263123        0.506786       -0.134398        0.372388
   5 H       -0.155538        0.039206       -0.250614       -0.211408
   6 H       -0.107589        0.047130       -0.208108       -0.160978
  --------------------------------------------------------------------
  Sum:        0.000000        1.186243       -1.186243       -0.000000
  
  Multipole moment analysis of the density matrix
    Molecular charge:                      0.000000
    Number of electrons:                   16.000000
      Center of electronic charge [Ang]: [ -1.561337,  -0.065285,   0.002128]
    Total nuclear charge:                  16.000000
      Center of nuclear charge [Ang]:    [ -1.561339,  -0.065287,   0.002127]
    Dipole moment [D]:                     0.000202
      Cartesian components [D]:          [ -0.000117,  -0.000145,  -0.000076]
    RMS size of the density [Ang]:         1.282800
      Cartesian components [Ang]:        [  0.844994,   0.862350,   0.433489]
  
  Exciton analysis of the difference density matrix
    <r_h> [Ang]:                  [ -1.561336,  -0.065285,   0.002121]
    <r_e> [Ang]:                  [ -1.561318,  -0.065258,   0.002142]
    |<r_e - r_h>| [Ang]:            0.000038
    Hole size [Ang]:                1.388789
      Cartesian components [Ang]: [  0.812911,   0.800518,   0.791886]
    Electron size [Ang]:            2.113697
      Cartesian components [Ang]: [  1.365259,   1.469948,   0.665611]

  Transition density matrix analysis:
  -----------------------------------
  
  CT numbers (Mulliken)
    omega =     0.9291
    <Phe> =    -0.0119
  
  Exciton analysis of the transition density matrix
    Trans. dipole moment [D]:             0.000275
      Cartesian components [D]:         [ -0.000207,   0.000182,   0.000006]
    <r_h> [Ang]:                        [ -1.561336,  -0.065287,   0.002118]
    <r_e> [Ang]:                        [ -1.561314,  -0.065252,   0.002144]
    |<r_e - r_h>| [Ang]:                  0.000049
    Hole size [Ang]:                      1.219665
      Cartesian components [Ang]:       [  0.652222,   0.635116,   0.811675]
    Electron size [Ang]:                  2.257264
      Cartesian components [Ang]:       [  1.456769,   1.572037,   0.708351]
    RMS electron-hole separation [Ang]:   2.554795
      Cartesian components [Ang]:       [  1.588050,   1.687031,   1.076569]
    Covariance(r_h, r_e) [Ang^2]:         0.027921
    Correlation coefficient:              0.010142
    Center-of-mass size [Ang]:            1.288280
      Cartesian components [Ang]:       [  0.802066,   0.851950,   0.539016]

  Decomposition into state-averaged NTOs
    H- 0 -> L+ 2: -0.6693 ( 89.6%)
    H- 1 -> L+ 0:  0.1109 (  2.5%)
                   omega =  92.9%
  ----------------------------------------------------------------------------


  Excited state 5 (singlet, A)                                     [converged]
  ----------------------------------------------------------------------------
  Term symbol:  6 (1) A                                     R^2 =  4.07725e-13

  Total energy:                                            -77.9419312025 a.u.
  Excitation energy:                                              10.196457 eV

  Osc. strength:                                                      0.000000
  Trans. dip. moment [a.u.]:           [   0.000082,    0.000000,    0.000001]
  <i|r^2|0> [a.u.]:                    [  -0.060628,    0.091811,   -0.030463]
  Two-photon absorption cross-section (SoS) [a.u.]:                 283.092792
  Two-photon absorption matrix (SoS) [a.u.]:
                                       |   -0.417573   -0.074375    4.377843 |
                                       |   -0.074375    0.485984   -4.001035 |
                                       |    4.377843   -4.001035   -0.063182 |
  Two-photon absorption cross-section [a.u.]:                       175.727883
  Two-photon absorption matrix [a.u.]:
[...]
    16   -1.213164737347e-03
    17   -1.993907781019e-03
    18    4.659840226796e-03
    19   -2.612524571791e-03
    20    1.188451664700e-02
    21    9.749655876282e-01
    22   -1.992034857153e-03
    23    1.570527736864e-02
    24    8.471660085582e-04
    25    7.028116653579e-02
    26   -5.233528468021e-02
    27   -1.384892210468e+00
    28    1.076287131607e-01
    29   -8.699377908964e-02
    30    1.388550163314e-05
    31    3.826903003506e-01
    32   -3.713623683113e-01
    33   -3.664443823873e-03
    34    1.515456851492e-02
    35   -1.211044770942e-03
    36   -1.992627485643e-03
    37    4.660012689499e-03
    38   -2.611713971828e-03
    39    1.187992456916e-02
    40    9.749661615244e-01
    41    1.991840290775e-03
    42   -1.570510281371e-02
    43   -8.466924519793e-04
    44    1.173972797814e-02
    45    8.814477811487e-01
    46    1.190351610345e-02
    47    1.131251794063e-03
    48    6.435895221816e-04
Sym=X
Ene= 0.230131
Spin=Alpha
Occup=0
     1   -2.747014005475e-02
     2   -8.103010211736e-01
     3    9.703386101707e-03
     4   -5.538586627216e-04
     5    4.342236669828e-04
     6    2.677178049856e-02
     7   -3.699321782660e-02
     8   -3.500531749465e-01
     9    1.380562978680e-01
    10    1.616038754406e-01
    11    1.638982794436e-02
    12    3.641170986262e-01
    13    6.714712310085e-01
    14    5.806393204549e-02
    15    2.808023656636e-03
    16   -4.571782868661e-04
    17   -3.757353152348e-04
    18   -9.569554220024e-04
    19   -3.027440337156e-03
    20    3.310445786712e-02
    21    1.446106726953e+00
    22    6.471546454067e-03
    23    1.571292624061e-02
    24    1.257503065438e-03
    25   -2.677279881512e-02
    26    3.699283534745e-02
    27    3.500815110613e-01
    28    1.380543264210e-01
    29    1.616104393826e-01
    30    1.636735940552e-02
    31    3.640826429275e-01
    32    6.714696191747e-01
    33    5.797301756331e-02
    34   -2.808215033699e-03
    35    4.581349378457e-04
    36    3.751163028147e-04
    37    9.553830957014e-04
    38    3.027375250369e-03
    39   -3.310545080125e-02
    40   -1.446096423798e+00
    41    6.471484646863e-03
    42    1.571337207667e-02
    43    1.256020359048e-03
    44    2.746991656595e-02
    45    8.102561729764e-01
    46    9.703208340398e-03
    47   -5.544696922124e-04
    48    4.331474554775e-04
Sym=X
Ene= 0.236644
Spin=Alpha
Occup=0
     1    2.685758177253e-02
     2    1.339170815288e+00
     3   -1.839596450326e-02
     4   -1.000945302933e-02
     5   -1.492272215732e-03
     6    8.271747494239e-02
     7   -7.594547420883e-02
     8   -1.491382286143e+00
     9   -1.084239635485e-01
    10    4.079530118658e-03
    11   -5.012220379324e-03
    12   -3.862798328533e-01
    13    2.900825008113e-02
    14   -1.697165236391e-02
    15    2.085964256579e-02
    16   -2.332195285303e-03
    17   -2.936733586390e-03
    18    2.782864782698e-03
    19   -1.179476059800e-02
    20    1.234046248128e-02
    21    7.099763018033e-01
    22    6.450361427810e-03
    23    1.274391175340e-02
    24    1.076116036765e-03
    25   -8.271581343877e-02
    26    7.594173101402e-02
    27    1.491368472100e+00
    28   -1.084233945823e-01
    29    4.081410012748e-03
    30   -4.992132805826e-03
    31   -3.862636026501e-01
    32    2.903921087393e-02
    33   -1.688798641851e-02
    34   -2.085969579572e-02
    35    2.329809545701e-03
    36    2.937010971295e-03
    37   -2.783190438551e-03
    38    1.179436661494e-02
    39   -1.233991452313e-02
    40   -7.100075390326e-01
    41    6.450858332791e-03
    42    1.274416031348e-02
    43    1.077088893976e-03
    44   -2.685590441579e-02
    45   -1.339118828653e+00
    46   -1.839513033918e-02
    47   -1.001032752844e-02
    48   -1.490811555757e-03
Sym=X
Ene= 0.301386
Spin=Alpha
Occup=0
     1    8.501108142701e-03
     2   -1.561930708499e+00
     3    2.247816515318e-02
     4   -1.800011537923e-03
     5    9.711951947372e-04
     6   -4.596645164841e-04
     7    3.932734564194e-03
     8   -1.375492195705e-01
     9    1.272982156279e-01
    10    1.509229834158e-01
    11    1.523455052320e-02
    12    1.085729334261e+00
    13    1.191214999136e+00
    14    1.240923154568e-01
    15    6.025120080982e-04
    16    1.479710247154e-03
    17   -2.132272357361e-03
    18    3.336130483296e-02
    19   -1.249455570401e-03
    20   -2.913071738303e-02
    21    1.715670702653e+00
    22   -8.101472368435e-05
    23    2.381918736052e-02
    24    1.435991765421e-03
    25   -4.619330493856e-04
    26    3.931501005162e-03
    27   -1.374545802594e-01
    28   -1.273040720879e-01
    29   -1.509263917745e-01
    30   -1.522051365376e-02
    31   -1.085698036687e+00
    32   -1.191239070021e+00
    33   -1.240439978265e-01
    34    6.001685293828e-04
    35    1.477031413261e-03
    36   -2.133459573070e-03
    37    3.335954601176e-02
    38   -1.248402077823e-03
    39   -2.912472776694e-02
    40    1.715652365653e+00
    41    8.185039257594e-05
    42   -2.381810617878e-02
    43   -1.435485436496e-03
    44    8.496810383719e-03
    45   -1.561968509254e+00
    46   -2.247915736256e-02
    47    1.800355316099e-03
    48   -9.693963820780e-04
Sym=X
Ene= 0.460539
Spin=Alpha
Occup=0
     1   -1.702713229172e-01
     2   -5.322486746684e-01
     3   -1.874044556330e-02
     4   -2.385523679291e-03
     5   -1.043294712887e-03
     6    6.390386136909e-02
     7    1.580031989586e-02
     8   -3.615441659352e+00
     9    1.115637888063e-01
    10   -9.689625955753e-02
    11   -4.105996582966e-04
    12    2.293001942599e+00
    13   -2.412208304507e+00
    14   -3.590747245951e-02
    15    5.165526295115e-02
    16   -3.572391685907e-03
    17   -4.034064478175e-03
    18   -8.131495445077e-03
    19    1.889490336693e-02
    20   -4.411643109689e-02
    21   -8.558754559246e-01
    22    1.744153369167e-02
    23    1.165298897171e-02
    24    1.543220526879e-03
    25   -6.390512136225e-02
    26   -1.579415753324e-02
    27    3.615448427508e+00
    28    1.115776927817e-01
    29   -9.690181790463e-02
    30   -4.191909792539e-04
    31    2.292989186246e+00
    32   -2.412170971116e+00
    33   -3.594136327627e-02
    34   -5.165046133176e-02
    35    3.567100288861e-03
    36    4.027566294381e-03
    37    8.130319199183e-03
    38   -1.890065537603e-02
    39    4.408098327273e-02
    40    8.559002676198e-01
    41    1.744091699016e-02
    42    1.165229118429e-02
    43    1.540999241957e-03
    44    1.702405983891e-01
    45    5.322809465753e-01
    46   -1.873916416454e-02
    47   -2.383136603388e-03
    48   -1.041786028866e-03
Sym=X
Ene= 0.580224
Spin=Alpha
Occup=0
     1    2.922447839737e-01
     2   -8.383786271184e-02
     3   -1.902157896604e-02
     4    2.973677514579e-02
     5    8.806074752621e-04
     6   -6.046907584859e-03
     7   -1.684009066715e-01
     8   -4.056320596388e-01
     9    3.273339683177e-01
    10   -2.605669723592e-01
    11   -5.908967979093e-05
    12   -7.977610674210e-01
    13    6.432662959276e-01
    14    4.524634369137e-04
    15   -2.683551926909e-03
    16    5.086529232321e-03
    17    1.736980919041e-03
    18    2.455504956414e-02
    19    6.068570895883e-02
    20    1.862932521139e-01
    21    1.674332536675e-01
    22   -2.506719115425e-02
    23    2.439073536981e-02
    24    2.639469328078e-04
    25   -6.055724311378e-03
    26   -1.684052206107e-01
    27   -4.053730800976e-01
    28   -3.273254610871e-01
    29    2.605405782338e-01
    30    6.151667915680e-05
    31    7.979636583923e-01
    32   -6.433842867710e-01
    33   -4.601000850734e-04
    34   -2.678525506158e-03
    35    5.087103379668e-03
    36    1.734467162931e-03
    37    2.457864735704e-02
    38    6.069049665327e-02
    39    1.861781279044e-01
    40    1.675805431953e-01
    41    2.507732409670e-02
    42   -2.440420601847e-02
    43   -2.651700389276e-04
    44    2.923096126801e-01
    45   -8.381197636413e-02
    46    1.901534760055e-02
    47   -2.973179778002e-02
    48   -8.809539837138e-04
Sym=X
Ene= 0.608607
Spin=Alpha
Occup=0
     1   -4.157582400042e-01
     2    3.273359080359e-01
     3   -5.097315558137e-02
     4    4.458537046815e-02
     5    2.371423964568e-04
     6    7.721136991605e-03
     7    2.051309796848e-03
     8    4.827287548051e-01
     9   -1.108858932215e-02
    10   -6.603702584367e-02
    11   -4.568744689626e-03
    12   -1.662018799663e-01
    13    7.157115429707e-01
    14    3.534925822270e-02
    15   -2.682846866422e-02
    16   -6.385477053665e-03
    17    1.054215775960e-02
    18   -1.480521424844e-01
    19   -2.492645532560e-02
    20    5.971332344346e-01
    21   -1.103705012880e-01
    22    2.924129398646e-02
    23   -6.590153088615e-02
    24   -2.569680974317e-03
    25   -7.719998994954e-03
    26   -2.021368515482e-03
    27   -4.826316151773e-01
    28   -1.102827314969e-02
    29   -6.608766642441e-02
    30   -4.574833617117e-03
    31   -1.663566681612e-01
    32    7.158499480508e-01
    33    3.530122447324e-02
    34    2.682632999543e-02
    35    6.380105064375e-03
    36   -1.054530884222e-02
    37    1.480557729172e-01
    38    2.491922538817e-02
    39   -5.971870775782e-01
    40    1.103708175327e-01
    41    2.923336603251e-02
    42   -6.589711731633e-02
    43   -2.572453746553e-03
    44    4.157272390705e-01
    45   -3.273771813770e-01
    46   -5.097903568017e-02
    47    4.458933013761e-02
    48    2.373653136349e-04
Sym=X
Ene= 0.688560
Spin=Alpha
Occup=0
     1   -6.359806490654e-05
     2   -1.864545398355e-04
     3    7.438296149385e-04
     4    8.978017946462e-04
     5   -1.508725335082e-02
     6   -4.678583978240e-06
     7    7.920540050237e-05
     8   -2.573143866315e-04
     9    3.224698292040e-02
    10    4.054115873368e-02
    11   -6.708945800971e-01
    12   -2.910863492946e-02
    13   -3.743593456156e-02
    14    6.128005228779e-01
    15   -2.182197415033e-03
    16    7.828222125568e-02
    17   -8.270119667360e-02
    18   -8.746306915235e-03
    19   -7.847138947573e-04
    20   -1.162918992494e-04
    21   -2.096406368364e-04
    22    1.111035216217e-03
    23    1.363280602402e-03
    24   -2.282978485621e-02
    25    7.703745981137e-06
    26   -4.257752633496e-05
    27    2.234015441572e-04
    28    3.223319018607e-02
    29    4.050256969136e-02
    30   -6.708965554857e-01
    31   -2.907820469633e-02
    32   -3.739564620448e-02
    33    6.128018784341e-01
    34    2.166567179944e-03
    35   -7.828070267334e-02
    36    8.270307562360e-02
    37    8.753673526670e-03
    38    7.905683962360e-04
    39    1.492370139924e-04
    40    2.125547132440e-04
    41    1.109532433032e-03
    42    1.370177529461e-03
    43   -2.282927881257e-02
    44    1.097044918668e-04
    45    1.377356383454e-04
    46    7.334566746640e-04
    47    8.900342908871e-04
    48   -1.508801543290e-02
Sym=X
Ene= 0.704337
Spin=Alpha
Occup=0
     1   -5.080017141251e-01
     2    1.463087862335e-01
     3   -6.710251871345e-02
     4   -4.779376471628e-02
     5   -6.099136270375e-03
     6   -4.596203994819e-02
     7   -3.006415529674e-01
     8    4.482037707144e-01
     9    1.895480516616e-01
    10   -1.973195100244e-01
    11   -2.843094544832e-03
    12   -4.360526840598e-03
    13    1.303735563211e-01
    14    7.947951307731e-03
    15    1.914778851746e-01
    16   -1.983890582604e-02
    17   -2.468644039790e-02
    18    1.494352184637e-02
    19   -7.467080137310e-02
    20   -4.627793393060e-01
    21    1.920348448841e-01
    22    3.480935316679e-02
    23    9.076975345449e-02
    24    7.171528596351e-03
    25   -4.595636874923e-02
    26   -3.006429514819e-01
    27    4.479070709571e-01
    28   -1.895475414595e-01
    29    1.973209911377e-01
    30    2.786009196419e-03
    31    4.173139490590e-03
    32   -1.301793430569e-01
    33   -7.882205114145e-03
    34    1.914808957955e-01
    35   -1.983167110127e-02
    36   -2.467221278190e-02
    37    1.494522389396e-02
    38   -7.465993438724e-02
    39   -4.627730004044e-01
    40    1.919618754368e-01
    41   -3.480769523388e-02
    42   -9.076906320594e-02
    43   -7.169498160572e-03
    44   -5.079891314675e-01
    45    1.462460809765e-01
    46    6.710084913484e-02
    47    4.779345233609e-02
    48    6.094576845026e-03
Sym=X
Ene= 0.777007
Spin=Alpha
Occup=0
     1   -6.250433743249e-01
     2    6.203550780248e-01
     3   -1.272614492746e-01
     4   -2.698571864092e-02
     5   -7.750365077913e-03
     6   -8.691659330710e-02
     7    2.302218470732e-01
     8    5.976627670522e-01
     9   -5.101013229092e-02
    10    1.325391367430e-01
    11    5.603548741298e-03
    12   -3.649515545671e-01
    13    3.062378444068e-01
    14    1.032872778773e-03
    15    1.988109319901e-01
    16   -1.923331861575e-02
    17   -1.960918744419e-02
    18   -3.381746324598e-02
    19   -1.526429615595e-02
    20   -4.380055165929e-01
    21    3.855788177287e-01
    22    2.227772657475e-02
    23    8.852498844396e-02
    24    6.426491638072e-03
    25    8.691775033653e-02
    26   -2.302241655285e-01
    27   -5.977095158545e-01
    28   -5.102569657845e-02
    29    1.325325662988e-01
    30    5.647045252618e-03
    31   -3.648786628216e-01
    32    3.062457385961e-01
    33    9.425048867702e-04
    34   -1.988183250826e-01
    35    1.920590374100e-02
    36    1.959621477680e-02
    37    3.381743773030e-02
    38    1.526343950025e-02
    39    4.380269485858e-01
    40   -3.855879532867e-01
    41    2.227908397313e-02
    42    8.852738907164e-02
    43    6.421681649904e-03
    44    6.250714340257e-01
    45   -6.203307439760e-01
    46   -1.272583789332e-01
    47   -2.698988898332e-02
    48   -7.741301238892e-03
Sym=X
Ene= 0.806817
Spin=Alpha
Occup=0
     1    4.746273936270e-06
     2   -6.229106314755e-05
     3    1.646474871460e-03
     4    2.016644584629e-03
     5   -3.353320265432e-02
     6   -2.136298590226e-06
     7    8.945098923037e-05
     8   -5.678577928772e-05
     9    3.668826774862e-02
    10    4.616647265773e-02
    11   -7.641559693340e-01
    12   -5.384830613968e-02
    13   -6.784908224067e-02
    14    1.123369595773e+00
    15    1.641592770165e-03
    16   -6.195276643584e-02
    17    6.482874471053e-02
    18    6.886280901187e-03
    19    6.395521129859e-04
    20    2.347731498360e-05
    21   -2.565496554802e-05
    22    1.391715308261e-03
    23    1.716794926424e-03
    24   -2.882187784332e-02
    25   -8.235638446246e-06
    26    1.073682918900e-04
    27   -6.319917178861e-05
    28   -3.662577932946e-02
    29   -4.614174264205e-02
    30    7.641622049815e-01
    31    5.378179864307e-02
    32    6.777019386297e-02
    33   -1.123377782943e+00
    34    1.661223539901e-03
    35   -6.195313401156e-02
    36    6.482594603174e-02
    37    6.900884507216e-03
    38    6.446621085902e-04
    39   -3.101141620931e-06
    40    7.015970837745e-05
    41   -1.393894399178e-03
    42   -1.733470827253e-03
    43    2.881819774977e-02
    44   -3.265150347846e-05
    45   -8.165613974809e-05
    46   -1.638614564877e-03
    47   -2.022775965717e-03
    48    3.353217317183e-02
Sym=X
Ene= 0.858065
Spin=Alpha
Occup=0
     1   -3.276264764749e-02
     2   -1.096157067642e+00
     3    1.366809825880e-01
     4    6.573331878003e-02
     5    1.056468632992e-02
     6   -1.251079657589e-02
     7    3.342732046667e-02
     8   -7.321220945853e-02
     9   -4.646311220058e-01
    10   -3.762108026722e-01
    11   -4.508450164417e-02
    12    1.022213722199e+00
    13    8.973025282057e-01
    14    1.033917939554e-01
    15    3.515890343728e-02
    16    1.082545132315e-02
    17   -1.506797407548e-02
    18    2.263194386892e-01
    19    4.757430831505e-02
    20   -3.752137581026e-02
    21    1.025874719021e+00
    22    3.990241013202e-02
    23    1.540126465347e-01
    24    1.119705767918e-02
    25    1.251096159578e-02
    26   -3.342777023267e-02
    27    7.321781386671e-02
    28   -4.646495949937e-01
    29   -3.762344961357e-01
    30   -4.501033416761e-02
    31    1.022250326505e+00
    32    8.973637047589e-01
    33    1.032227073966e-01
    34   -3.516012466555e-02
    35   -1.082919480043e-02
    36    1.506684732149e-02
    37   -2.263271032414e-01
    38   -4.757908478302e-02
    39    3.751705019882e-02
    40   -1.025894192496e+00
    41    3.989252600778e-02
    42    1.540185620948e-01
    43    1.119153847593e-02
    44    3.276709215916e-02
    45    1.096173043491e+00
    46    1.366878231383e-01
    47    6.572882734202e-02
    48    1.055853030178e-02
Sym=X
Ene= 0.923246
Spin=Alpha
Occup=0
     1   -1.658794176685e-01
     2    1.271482073976e+00
     3   -1.968665092295e-01
     4   -1.509937501321e-02
     5   -1.037374793010e-02
     6    3.098831574053e-03
     7    1.563954586071e-01
     8   -1.965933622728e-01
     9    4.995817280605e-01
    10    4.628195545443e-01
    11    5.192906407689e-02
    12   -1.362412249435e+00
    13   -1.401198503494e+00
    14   -1.500550938357e-01
    15    2.037036660863e-03
    16   -8.838699785748e-03
    17    4.159523481762e-03
    18   -1.141812077913e-01
    19   -5.237861036688e-02
    20    1.242143253774e-01
    21   -1.129399343571e+00
    22    3.312665229555e-02
    23   -1.533898584525e-01
    24   -7.689558521338e-03
    25    3.097489621328e-03
    26    1.563992135954e-01
    27   -1.966137129308e-01
    28   -4.995650187620e-01
    29   -4.628183311955e-01
    30   -5.190387475992e-02
    31    1.362360834954e+00
    32    1.401175851128e+00
    33    1.499832002699e-01
    34    2.045224297072e-03
    35   -8.817158168995e-03
    36    4.156911269056e-03
    37   -1.141749920578e-01
    38   -5.238109708874e-02
    39    1.242092173203e-01
    40   -1.129360283286e+00
    41   -3.313357562329e-02
    42    1.533805497297e-01
    43    7.686375122249e-03
    44   -1.658905078385e-01
    45    1.271458112943e+00
    46    1.968649639053e-01
    47    1.509480969971e-02
    48    1.035768292734e-02
Sym=X
Ene= 0.972772
Spin=Alpha
Occup=0
     1    2.723849896958e-02
     2   -7.348145724309e-01
     3    6.092914175095e-02
     4    1.033488077083e-01
     5    9.200559391004e-03
     6   -2.649939358106e-02
     7   -2.463532774661e-01
     8   -5.217026812743e-01
     9   -4.506526271642e-01
    10    4.912472639470e-01
    11    8.006180245212e-03
    12    1.355735042196e+00
    13   -1.513097109195e+00
    14   -2.626716943455e-02
    15    5.952340132369e-02
    16    1.065614245254e-02
    17    1.031382866824e-02
    18   -4.272178847586e-02
    19    2.906169339693e-01
    20    9.243416873816e-02
    21   -1.040727270054e+00
    22   -8.341035655333e-02
    23   -1.142419749075e-01
    24   -1.087098344335e-02
    25    2.649873745159e-02
    26    2.462829198721e-01
    27    5.218154051182e-01
    28   -4.506564183692e-01
    29    4.912357351266e-01
    30    8.018398432382e-03
    31    1.355754828645e+00
    32   -1.513083421607e+00
    33   -2.630545221906e-02
    34   -5.951856371778e-02
    35   -1.065832870860e-02
    36   -1.031605124105e-02
    37    4.271960220369e-02
    38   -2.906033534194e-01
    39   -9.243315179672e-02
    40    1.040681937009e+00
    41   -8.340424882578e-02
    42   -1.142352630508e-01
    43   -1.087238853449e-02
    44   -2.724689192858e-02
    45    7.347952507900e-01
    46    6.092782494668e-02
    47    1.033463714391e-01
    48    9.196268527486e-03
[5D]

======= END OF MOLDEN-FORMATTED INPUT FILE =======


        *************************************************************
        *                                                           *
        *  Thank you very much for using Q-Chem.  Have a nice day.  *
        *                                                           *
        *************************************************************


