                  Welcome to Q-Chem
     A Quantum Leap Into The Future Of Chemistry


 Q-Chem 5.4 (devel), Q-Chem, Inc., Pleasanton, CA (2021)

 E. Epifanovsky,  A. T. B. Gilbert,  Xintian Feng,  Joonho Lee,  Yuezhi Mao,  
 N. Mardirossian,  P. Pokhilko,  A. White,  M. Wormit,  M. P. Coons,  
 A. L. Dempwolff,  Zhengting Gan,  D. Hait,  P. R. Horn,  L. D. Jacobson,  
 I. Kaliman,  J. Kussmann,  A. W. Lange,  Ka Un Lao,  D. S. Levine,  Jie Liu,  
 S. C. McKenzie,  A. F. Morrison,  K. Nanda,  F. Plasser,  D. R. Rehn,  
 M. L. Vidal,  Zhi-Qiang You,  Ying Zhu,  B. Alam,  B. Albrecht,  
 A. Aldossary,  E. Alguire,  J. H. Andersen,  D. Barton,  K. Begam,  A. Behn,  
 Y. A. Bernard,  E. J. Berquist,  H. Burton,  A. Carreras,  K. Carter-Fenk,  
 R. Chakraborty,  A. D. Chien,  K. D. Closser,  V. Cofer-Shabica,  
 S. Dasgupta,  Jia Deng,  M. de Wergifosse,  M. Diedenhofen,  Hainam Do,  
 S. Ehlert,  Po-Tung Fang,  S. Fatehi,  Qingguo Feng,  T. Friedhoff,  
 J. Gayvert,  Qinghui Ge,  G. Gidofalvi,  M. Goldey,  J. Gomes,  
 C. Gonzalez-Espinoza,  S. Gulania,  A. Gunina,  M. W. D. Hanson-Heine,  
 P. H. P. Harbach,  A. W. Hauser,  M. F. Herbst,  M. Hernandez Vera,  
 M. Hodecker,  Z. C. Holden,  S. Houck,  Xunkun Huang,  Kerwin Hui,  
 B. C. Huynh,  M. Ivanov,  Hyunjun Ji,  Hanjie Jiang,  B. Kaduk,  S. Kaehler,  
 K. Khistyaev,  Jaehoon Kim,  P. Klunzinger,  Z. Koczor-Benda,  
 Joong Hoon Koh,  D. Kosenkov,  L. Koulias,  T. Kowalczyk,  C. M. Krauter,  
 K. Kue,  A. Kunitsa,  T. Kus,  A. Landau,  K. V. Lawler,  D. Lefrancois,  
 S. Lehtola,  Rain Li,  Yi-Pei Li,  Jiashu Liang,  M. Liebenthal,  
 Hung-Hsuan Lin,  You-Sheng Lin,  Fenglai Liu,  Kuan-Yu Liu,  
 M. Loipersberger,  A. Luenser,  A. Manjanath,  P. Manohar,  E. Mansoor,  
 S. F. Manzer,  Shan-Ping Mao,  A. V. Marenich,  T. Markovich,  S. Mason,  
 S. A. Maurer,  P. F. McLaughlin,  M. F. S. J. Menger,  J.-M. Mewes,  
 S. A. Mewes,  P. Morgante,  J. W. Mullinax,  K. J. Oosterbaan,  G. Paran,  
 Alexander C. Paul,  Suranjan K. Paul,  F. Pavosevic,  Zheng Pei,  S. Prager,  
 E. I. Proynov,  E. Ramos,  B. Rana,  A. E. Rask,  A. Rettig,  R. M. Richard,  
 F. Rob,  E. Rossomme,  T. Scheele,  M. Scheurer,  M. Schneider,  
 N. Sergueev,  S. M. Sharada,  W. Skomorowski,  D. W. Small,  C. J. Stein,  
 Yu-Chuan Su,  E. J. Sundstrom,  Zhen Tao,  J. Thirman,  T. Tsuchimochi,  
 N. M. Tubman,  S. P. Veccham,  O. Vydrov,  J. Wenzel,  J. Witte,  A. Yamada,  
 Kun Yao,  S. Yeganeh,  S. R. Yost,  A. Zech,  Igor Ying Zhang,  Xing Zhang,  
 Yu Zhang,  D. Zuev,  A. Aspuru-Guzik,  A. T. Bell,  N. A. Besley,  
 K. B. Bravaya,  B. R. Brooks,  D. Casanova,  Jeng-Da Chai,  S. Coriani,  
 C. J. Cramer,  A. E. DePrince, III,  R. A. DiStasio Jr.,  A. Dreuw,  
 B. D. Dunietz,  T. R. Furlani,  W. A. Goddard III,  S. Grimme,  
 S. Hammes-Schiffer,  T. Head-Gordon,  W. J. Hehre,  Chao-Ping Hsu,  
 T.-C. Jagau,  Yousung Jung,  A. Klamt,  Jing Kong,  D. S. Lambrecht,  
 WanZhen Liang,  N. J. Mayhall,  C. W. McCurdy,  J. B. Neaton,  
 C. Ochsenfeld,  J. A. Parkhill,  R. Peverati,  V. A. Rassolov,  Yihan Shao,  
 L. V. Slipchenko,  T. Stauch,  R. P. Steele,  J. E. Subotnik,  
 A. J. W. Thom,  A. Tkatchenko,  D. G. Truhlar,  T. Van Voorhis,  
 T. A. Wesolowski,  K. B. Whaley,  H. L. Woodcock III,  P. M. Zimmerman,  
 S. Faraji,  P. M. W. Gill,  M. Head-Gordon,  J. M. Herbert,  A. I. Krylov

 Additional authors for Version 5.4.1: 
 S. Kotaru,  Shaozhi Li,  Xiangyuan Li,  F. Matz,  A. Molle,  Haisheng Ren,  
 Yingli Su,  Hung-Yi Tsai,  C. Utku,  Fang Wang

 Contributors to earlier versions of Q-Chem not listed above: 
 R. D. Adamson,  B. Austin,  R. Baer,  J. Baker,  G. J. O. Beran,  
 K. Brandhorst,  S. T. Brown,  E. F. C. Byrd,  A. K. Chakraborty,  
 G. K. L. Chan,  Chun-Min Chang,  Yunqing Chen,  C.-L. Cheng,  
 Siu Hung Chien,  D. M. Chipman,  D. L. Crittenden,  H. Dachsel,  
 R. J. Doerksen,  A. D. Dutoi,  R. G. Edgar,  J. Fosso-Tande,  
 L. Fusti-Molnar,  D. Ghosh,  A. Ghysels,  A. Golubeva-Zadorozhnaya,  
 J. Gonthier,  M. S. Gordon,  S. R. Gwaltney,  G. Hawkins,  J. E. Herr,  
 A. Heyden,  S. Hirata,  E. G. Hohenstein,  G. Kedziora,  F. J. Keil,  
 C. Kelley,  Jihan Kim,  R. A. King,  R. Z. Khaliullin,  P. P. Korambath,  
 W. Kurlancheek,  A. Laurent,  A. M. Lee,  M. S. Lee,  S. V. Levchenko,  
 Ching Yeh Lin,  D. Liotard,  E. Livshits,  R. C. Lochan,  I. Lotan,  
 L. A. Martinez-Martinez,  P. E. Maslen,  N. Nair,  D. P. O'Neill,  
 D. Neuhauser,  E. Neuscamman,  C. M. Oana,  R. Olivares-Amaya,  R. Olson,  
 T. M. Perrine,  B. Peters,  P. A. Pieniazek,  A. Prociuk,  Y. M. Rhee,  
 J. Ritchie,  M. A. Rohrdanz,  E. Rosta,  N. J. Russ,  H. F. Schaefer III,  
 M. W. Schmidt,  N. E. Schultz,  S. Sharma,  N. Shenvi,  C. D. Sherrill,  
 A. C. Simmonett,  A. Sodt,  T. Stein,  D. Stuck,  K. S. Thanthiriwatte,  
 V. Vanovschi,  L. Vogt,  Tao Wang,  A. Warshel,  M. A. Watson,  
 C. F. Williams,  Q. Wu,  X. Xu,  Jun Yang,  W. Zhang,  Yan Zhao

 Please cite Q-Chem as follows:
 Y. Shao et al., Mol. Phys. 113, 184-215 (2015)
 DOI: 10.1080/00268976.2014.952696

 Q-Chem 5.4.1 for Intel X86 EM64T Linux

 Parts of Q-Chem use Armadillo 9.800.1 (Horizon Scraper).
 http://arma.sourceforge.net/

 Q-Chem begins on Mon Mar 20 18:37:22 2023  

 Host: cpu186.baobab
0

     Scratch files written to /scratch/fum/qchem80756//
 Processing $rem in /home/share/wesolowski/qc5.aug2021.FDE/config/preferences:
 Processing $rem in /home/fum/.qchemrc:

 Checking the input file for inconsistencies... 	...done.

--------------------------------------------------------------
User input:
--------------------------------------------------------------
$comment
generated from CCJob.Templates
$end

$rem
sym_ignore = true
method = adc(2)
ee_states = 10
basis = cc-pVDZ
mem_static = 1024
mem_total = 40000
adc_davidson_maxiter = 900
adc_davidson_conv = 6
adc_print = 3
adc_prop_es = true
adc_prop_es2es = true
adc_prop_tpa = true
molden_format = True
state_analysis = true
print_orbitals = 15
gen_scfman = false
fde_export_density = true
fde_details = 3
$end

$molecule
0 1
H 0.015140342484172047 -0.23774146638226673 0.06744298517905314
C -1.0904226661466505 -0.5375466546144577 -0.0037535803273842675
H -1.293863341083244 -1.5560516341316486 -0.07511065863500462
C -2.032233721454114 0.4069866377136263 0.008001319827342491
H -1.8288546475163505 1.425443363233959 0.0793349241351341
H -3.1378645131819414 0.10716615588281816 -0.06311782787903644                     
$end
--------------------------------------------------------------
 ----------------------------------------------------------------
             Standard Nuclear Orientation (Angstroms)
    I     Atom           X                Y                Z
 ----------------------------------------------------------------
    1      H       0.0151403425    -0.2377414664     0.0674429852
    2      C      -1.0904226661    -0.5375466546    -0.0037535803
    3      H      -1.2938633411    -1.5560516341    -0.0751106586
    4      C      -2.0322337215     0.4069866377     0.0080013198
    5      H      -1.8288546475     1.4254433632     0.0793349241
    6      H      -3.1378645132     0.1071661559    -0.0631178279
 ----------------------------------------------------------------
 Nuclear Repulsion Energy =          33.23220676 hartrees
 There are        8 alpha and        8 beta electrons
 Requested basis set is cc-pVDZ
 There are 24 shells and 48 basis functions
 Total memory of 40000 MB is distributed as follows: 
   MEM_STATIC is set to 1024 MB
   QALLOC/CCMAN JOB total memory use is  38976 MB
 Warning: actual memory use might exceed 40000 MB

 Total QAlloc Memory Limit  40000 MB
 Mega-Array Size      1001 MB
 MEM_STATIC part      1024 MB

                       Distance Matrix (Angstroms)
             H (  1)   C (  2)   H (  3)   C (  4)   H (  5)
   C (  2)  1.147703
   H (  3)  1.863264  1.041073
   C (  4)  2.147312  1.333900  2.098956
   H (  5)  2.483273  2.098932  3.033048  1.041012
   H (  6)  3.174499  2.147370  2.483300  1.147767  1.863238

 A cutoff of  1.0D-11 yielded    300 shell pairs
 There are      1220 function pairs (      1329 Cartesian)
 Smallest overlap matrix eigenvalue = 4.83E-03

 Scale SEOQF with 1.000000e-01/1.000000e-01/1.000000e+00

 Standard Electronic Orientation quadrupole field applied
 Nucleus-field energy     =     0.0000000022 hartrees
 Guess from superposition of atomic densities
 Warning:  Energy on first SCF cycle will be non-variational
 SAD guess density has 16.000000 electrons
 A restricted Hartree-Fock SCF calculation will be
 performed using Pulay DIIS extrapolation
 SCF converges when DIIS error is below 1.0E-08
 using 10 threads for integral computing
 -------------------------------------------------------
 OpenMP Integral computing Module                
 Release: version 1.0, May 2013, Q-Chem Inc. Pittsburgh 
 -------------------------------------------------------
 ---------------------------------------
  Cycle       Energy         DIIS Error
 ---------------------------------------
    1     -78.3971462959      9.96E-02
    2     -78.0097836063      7.15E-03
    3     -78.0304298803      1.84E-03
    4     -78.0319300686      5.67E-04
    5     -78.0320500604      5.98E-05
    6     -78.0320520356      9.54E-06
    7     -78.0320521008      2.00E-06
    8     -78.0320521037      1.81E-07
    9     -78.0320521037      2.55E-08
   10     -78.0320521037      1.16E-08
   11     -78.0320521037      1.69E-09 Convergence criterion met
 ---------------------------------------
 SCF time:  CPU 2.11 s  wall 2.84 s
 SCF   energy in the final basis set = -78.03205210
 Total energy in the final basis set = -78.03205210
Exporting Density Matrix to file 'Densmat_SCF.txt'.
Export successful
================================================================================
|                                                                              |
|                                 A D C  M A N                                 |
|                                                                              |
 ------------------------------------------------------------------------------ 
|                                                                              |
| Components:                                                                  |
|                                                                              |
| - libvmm - 1.3-trunk                                                         |
|   Authors:                                                                   |
|   Evgeny Epifanovsky, Ilya Kaliman                                           |
|                                                                              |
| - libtensor - 2.5-trunk                                                      |
|   Authors:                                                                   |
|   Evgeny Epifanovsky, Michael Wormit, Dmitry Zuev, Sam Manzer,               |
|   Ilya Kaliman                                                               |
|                                                                              |
| - libwfa - 1.1-trunk                                                         |
|   Authors:                                                                   |
|   Felix Plasser, Stefanie Mewes (Baeppler), Benjamin Thomitzni,              |
|   Michael Wormit, Feng Chen, Anna I. Krylov, Pavel Pokhilko                  |
|                                                                              |
| - libadc - 1.1-trunk                                                         |
|   Authors:                                                                   |
|   Michael Wormit, Adrian L. Dempwolff, Philipp H. P. Harbach,                |
|   Caroline Krauter, Dirk Rehn, Matthias Schneider, Jan Wenzel                |
|                                                                              |
| - adcman - 2.6-trunk                                                         |
|   Authors:                                                                   |
|   Michael Wormit, Adrian L. Dempwolff, Philipp H. P. Harbach,                |
|   Caroline Krauter, Daniel Lefrancois, Jan-Michael Mewes, Dirk Rehn,         |
|   Matthias Schneider, Jan Wenzel, Andreas Dreuw                              |
|                                                                              |
| Authors of earlier versions of ADCMAN:                                       |
| Andreas Dreuw, Jan Hendrik Starcke, Dirk Rehn, Michael Wormit                |
|                                                                              |
================================================================================

 Created directory /scratch/fum/qchem80756/plots
  Import QC data ...  CPU 0.00 s  wall 0.00 s

 Alpha MOs, Restricted
 -- Occupied --                  
-11.239 -11.238  -1.031  -0.791  -0.632  -0.588  -0.495  -0.375
  1 A     2 A     3 A     4 A     5 A     6 A     7 A     8 A                  
 -- Virtual --                   
  0.167   0.202   0.226   0.240   0.302   0.462   0.580   0.609
  9 A    10 A    11 A    12 A    13 A    14 A    15 A    16 A                  
  0.688   0.704   0.772   0.807   0.862   0.923   0.974   1.013
 17 A    18 A    19 A    20 A    21 A    22 A    23 A    24 A                  
  1.130   1.236   1.241   1.262   1.293   1.588   1.731   1.741
 25 A    26 A    27 A    28 A    29 A    30 A    31 A    32 A                  
  1.810   1.849   1.851   1.905   1.959   1.970   2.230   2.249
 33 A    34 A    35 A    36 A    37 A    38 A    39 A    40 A                  
  2.359   2.403   2.494   2.593   2.704   2.827   3.128   3.396
 41 A    42 A    43 A    44 A    45 A    46 A    47 A    48 A                  

 Beta MOs, Restricted
 -- Occupied --                  
-11.239 -11.238  -1.031  -0.791  -0.632  -0.588  -0.495  -0.375
  1 A     2 A     3 A     4 A     5 A     6 A     7 A     8 A                  
 -- Virtual --                   
  0.167   0.202   0.226   0.240   0.302   0.462   0.580   0.609
  9 A    10 A    11 A    12 A    13 A    14 A    15 A    16 A                  
  0.688   0.704   0.772   0.807   0.862   0.923   0.974   1.013
 17 A    18 A    19 A    20 A    21 A    22 A    23 A    24 A                  
  1.130   1.236   1.241   1.262   1.293   1.588   1.731   1.741
 25 A    26 A    27 A    28 A    29 A    30 A    31 A    32 A                  
  1.810   1.849   1.851   1.905   1.959   1.970   2.230   2.249
 33 A    34 A    35 A    36 A    37 A    38 A    39 A    40 A                  
  2.359   2.403   2.494   2.593   2.704   2.827   3.128   3.396
 41 A    42 A    43 A    44 A    45 A    46 A    47 A    48 A                  
  Import AO data ...  CPU 0.00 s  wall 0.00 s
  Using point group: C1
  Irreducible representations in point group: A
  Molecular orbitals: 
  Occupied MOs:
  Block   0:   1 (  A) A   2 (  A) A   3 (  A) A   4 (  A) A   5 (  A) A
                  -11.24      -11.24      -1.031     -0.7905     -0.6321
               6 (  A) A   7 (  A) A   8 (  A) A
                 -0.5884     -0.4948     -0.3748
  Block   1:   1 (  A) B   2 (  A) B   3 (  A) B   4 (  A) B   5 (  A) B
                  -11.24      -11.24      -1.031     -0.7905     -0.6321
               6 (  A) B   7 (  A) B   8 (  A) B
                 -0.5884     -0.4948     -0.3748
  Virtual MOs:
  Block   0:   9 (  A) A  10 (  A) A  11 (  A) A  12 (  A) A  13 (  A) A
                  0.1674      0.2024      0.2261      0.2397      0.3019
              14 (  A) A  15 (  A) A  16 (  A) A  17 (  A) A  18 (  A) A
                  0.4624      0.5803      0.6095      0.6881      0.7043
              19 (  A) A  20 (  A) A  21 (  A) A  22 (  A) A
                  0.7717      0.8067      0.8617      0.9228
  Block   1:  23 (  A) A  24 (  A) A  25 (  A) A  26 (  A) A  27 (  A) A
                  0.9739       1.013        1.13       1.236       1.241
              28 (  A) A  29 (  A) A  30 (  A) A  31 (  A) A  32 (  A) A
                   1.262       1.293       1.588       1.731       1.741
              33 (  A) A  34 (  A) A  35 (  A) A  36 (  A) A
                    1.81       1.849       1.851       1.905
  Block   2:  37 (  A) A  38 (  A) A  39 (  A) A  40 (  A) A  41 (  A) A
                   1.959        1.97        2.23       2.249       2.359
              42 (  A) A  43 (  A) A  44 (  A) A  45 (  A) A  46 (  A) A
                   2.403       2.494       2.593       2.704       2.827
              47 (  A) A  48 (  A) A
                   3.128       3.396
  Block   3:   9 (  A) B  10 (  A) B  11 (  A) B  12 (  A) B  13 (  A) B
                  0.1674      0.2024      0.2261      0.2397      0.3019
              14 (  A) B  15 (  A) B  16 (  A) B  17 (  A) B  18 (  A) B
                  0.4624      0.5803      0.6095      0.6881      0.7043
              19 (  A) B  20 (  A) B  21 (  A) B  22 (  A) B
                  0.7717      0.8067      0.8617      0.9228
  Block   4:  23 (  A) B  24 (  A) B  25 (  A) B  26 (  A) B  27 (  A) B
                  0.9739       1.013        1.13       1.236       1.241
              28 (  A) B  29 (  A) B  30 (  A) B  31 (  A) B  32 (  A) B
                   1.262       1.293       1.588       1.731       1.741
              33 (  A) B  34 (  A) B  35 (  A) B  36 (  A) B
                    1.81       1.849       1.851       1.905
  Block   5:  37 (  A) B  38 (  A) B  39 (  A) B  40 (  A) B  41 (  A) B
                   1.959        1.97        2.23       2.249       2.359
              42 (  A) B  43 (  A) B  44 (  A) B  45 (  A) B  46 (  A) B
                   2.403       2.494       2.593       2.704       2.827
              47 (  A) B  48 (  A) B
                   3.128       3.396
  Import MO data ...  CPU 0.01 s  wall 0.01 s
  Import HF data ...  CPU 0.68 s  wall 0.23 s
  Import 2e integrals ...  CPU 1.21 s  wall 0.22 s

--------------------------------------------------------------------------------
                                   HF Summary                                   
--------------------------------------------------------------------------------
  Energy:                                                  -78.0320521037 a.u.
  Dip. moment [a.u.]:                  [   0.000017,    0.000011,    0.000018]
  Total dipole [Debye]:                                               0.000069
  <r^2> [a.u.]:                        [ 176.295303,   34.887060,   11.680437]
  Total <r^2> [a.u.]:                                               222.862800
--------------------------------------------------------------------------------
  HF properties ...  CPU 0.03 s  wall 0.02 s
  MP(1) calculation ...  CPU 0.07 s  wall 0.02 s
  N^6 prerequesite intermediates ...  CPU 0.75 s  wall 0.14 s
  Difference density matrix of state mp2_gs printed to ASCII file 'State_mp2_gs_Difference.txt'
Exporting MP density matrix to file 'Densmat_MP.txt'.
Export successful
  Total density matrix of state mp2_gs printed to ASCII file 'State_mp2_gs_Total.txt'
Exporting MP density matrix to file 'Densmat_MP.txt'.
Export successful

--------------------------------------------------------------------------------
                                 MP(2) Summary                                  
--------------------------------------------------------------------------------
  MP energy contribution:                                   -0.2805112488 a.u.
  Total energy:                                            -78.3125633525 a.u.
  Dip. moment [a.u.]:                  [   0.000013,    0.000009,    0.000017]
  Total dipole [Debye]:                                               0.000060
  <r^2> [a.u.]:                        [ 176.309031,   34.942292,   11.506505]
  Total <r^2> [a.u.]:                                               222.757828

  Density matrix analysis:
  ------------------------
  NOs
    Occupation of frontier NOs:
       0.0456   1.9379
    Number of electrons: 16.000000
    Number of unpaired electrons: n_u =  0.40788, n_u,nl =  0.04603
    NO participation ratio (PR_NO): 13.867994
  
  
  Mulliken Population Analysis
  Atom      Charge (e)              h+              e-           Del q
  --------------------------------------------------------------------
   1 H        0.061280        0.013788       -0.011353        0.002435
   2 C       -0.104309        0.094539       -0.100213       -0.005673
   3 H        0.043037        0.014512       -0.011274        0.003238
   4 C       -0.104307        0.094539       -0.100214       -0.005675
   5 H        0.043017        0.014513       -0.011274        0.003240
   6 H        0.061283        0.013788       -0.011353        0.002435
  --------------------------------------------------------------------
  Sum:        0.000000        0.245680       -0.245680       -0.000000
  
  Multipole moment analysis of the density matrix
    Molecular charge:                      -0.000000
    Number of electrons:                   16.000000
      Center of electronic charge [Ang]: [ -1.561337,  -0.065284,   0.002127]
    Total nuclear charge:                  16.000000
      Center of nuclear charge [Ang]:    [ -1.561336,  -0.065284,   0.002127]
    Dipole moment [D]:                     0.000060
      Cartesian components [D]:          [  0.000034,   0.000023,   0.000044]
    RMS size of the density [Ang]:         1.206905
      Cartesian components [Ang]:        [  0.804953,   0.779288,   0.448754]
  
  Exciton analysis of the difference density matrix
    <r_h> [Ang]:                  [ -1.561348,  -0.065289,   0.002123]
    <r_e> [Ang]:                  [ -1.561340,  -0.065284,   0.002124]
    |<r_e - r_h>| [Ang]:            0.000009
    Hole size [Ang]:                1.405286
      Cartesian components [Ang]: [  0.874952,   0.822923,   0.729443]
    Electron size [Ang]:            1.362060
      Cartesian components [Ang]: [  0.883862,   0.860323,   0.577787]
--------------------------------------------------------------------------------
  MP(2) calculation ...  CPU 0.76 s  wall 0.31 s
  Start ADC(2)-s ...  CPU 0.02 s  wall 0.01 s
  ADC(2) intermediates ...  CPU 0.07 s  wall 0.02 s
  Starting Davidson for singlet states of irrep A ... 
--------------------------------------------------------------------------------
   It NVec Conv  Avg. Norm  Max. Norm  Conv. states           Remark
--------------------------------------------------------------------------------
        10    0  1.329e-01  4.714e-01  0.4115 n n n n n n n n Guess.
    1   20    0  2.473e-02  1.269e-01  0.3260 n n n n n n n n 
    2   30    0  6.327e-03  3.264e-02  0.3212 n n n n n n n n 
    3   40    0  2.544e-03  1.848e-02  0.3208 n n n n n n n n 
    4   50    0  1.056e-03  8.741e-03  0.3208 n n n n n n n n 
    5   20    0  5.271e-04  4.450e-03  0.3208 n n n n n n n n Subspace collapsed.
    6   30    0  3.894e-04  3.585e-03  0.3208 n n n n n n n n 
    7   40    0  1.545e-04  1.363e-03  0.3208 n n n n n n n n 
    8   50    0  9.363e-05  6.892e-04  0.3208 n n n n n n n n 
    9   20    1  5.406e-05  4.203e-04  0.3208 n y n n n n n n Subspace collapsed.
   10   30    3  3.269e-05  2.369e-04  0.3208 n y y y n n n n 
   11   40    5  2.913e-05  2.374e-04  0.3208 n y y y y y n n 
   12   50    6  2.104e-05  1.959e-04  0.3208 y y y y y y n n 
   13   20    6  1.011e-05  9.473e-05  0.3208 y y y y y y n n Subspace collapsed.
   14   30    6  6.633e-06  6.319e-05  0.3208 y y y y y y n n 
   15   40    8  5.543e-06  5.336e-05  0.3208 y y y y y y n y 
   16   50    8  4.874e-06  4.749e-05  0.3208 y y y y y y n y 
   17   20    8  2.887e-06  2.829e-05  0.3208 y y y y y y n y Subspace collapsed.
   18   30    8  2.455e-06  2.394e-05  0.3208 y y y y y y n y 
   19   40    8  2.384e-06  2.365e-05  0.3208 y y y y y y n y 
   20   50    8  1.818e-06  1.814e-05  0.3208 y y y y y y n y 
   21   20    9  9.886e-07  9.875e-06  0.3208 y y y y y y y y Subspace collapsed.
   22   30    9  8.388e-07  8.381e-06  0.3208 y y y y y y y y 
   23   32    9  7.912e-07  7.905e-06  0.3208 y y y y y y y y 
   24   33    9  8.148e-07  8.142e-06  0.3208 y y y y y y y y 
   25   34    9  7.935e-07  7.928e-06  0.3208 y y y y y y y y 
   26   34    9  7.935e-07  7.928e-06  0.3208 y y y y y y y y 
   27   44    9  6.225e-07  6.220e-06  0.3208 y y y y y y y y 
   28   50    9  4.575e-07  4.573e-06  0.3208 y y y y y y y y 
   29   16    9  2.262e-07  2.260e-06  0.3208 y y y y y y y y Subspace collapsed.
   30   21    9  1.503e-07  1.502e-06  0.3208 y y y y y y y y 
   31   26    9  1.329e-07  1.329e-06  0.3208 y y y y y y y y 
   32   31   10  9.723e-08  9.720e-07  0.3208 y y y y y y y y Converged.
--------------------------------------------------------------------------------
  Davidson Summary: 
 ------------------------------------------------------------
  State  0: excitation energy =   0.3208 a.u.   (converged)
  State  1: excitation energy =   0.3253 a.u.   (converged)
  State  2: excitation energy =   0.3355 a.u.   (converged)
  State  3: excitation energy =   0.3528 a.u.   (converged)
  State  4: excitation energy =   0.3777 a.u.   (converged)
  State  5: excitation energy =   0.3900 a.u.   (converged)
  State  6: excitation energy =   0.4180 a.u.   (converged)
  State  7: excitation energy =   0.4419 a.u.   (converged)
  State  8: excitation energy =   0.4493 a.u.   (converged)
  State  9: excitation energy =   0.4527 a.u.   (converged)
 ------------------------------------------------------------

  Singlet states of irrep A ...  CPU 205.51 s  wall 66.43 s
  TDMs ...  CPU 1.97 s  wall 0.80 s
  SDMs ...  CPU 4.35 s  wall 1.45 s
  Starting TPA DIIS iterations ... 
------------------------------------ 
   It     Res. Norm  Remark
------------------------------------
                       Guess.
    1     4.223e+00  
    2     5.647e+00  
    3     1.124e+00  
    4     3.180e-01  
    5     6.935e-02  
    6     3.414e-02  
    7     8.988e-03  
    8     2.187e-03  
    9     7.643e-04  
   10     1.185e-04  
   11     4.352e-05  
   12     6.297e-06  
   13     2.135e-06  
   14     5.522e-07  Converged.
   ... Converged in 14 steps (norm: 5.52179e-07)
------------------------------------
  Starting TPA DIIS iterations ... 
------------------------------------ 
   It     Res. Norm  Remark
------------------------------------
                       Guess.
    1     4.380e+00  
    2     5.765e+00  
    3     1.009e+00  
    4     2.340e-01  
    5     6.317e-02  
    6     2.316e-02  
    7     7.686e-03  
    8     1.185e-03  
    9     4.419e-04  
   10     8.343e-05  
   11     2.154e-05  
   12     4.245e-06  
   13     1.207e-06  
   14     4.754e-07  Converged.
   ... Converged in 14 steps (norm: 4.7539e-07)
------------------------------------
  Starting TPA DIIS iterations ... 
------------------------------------ 
   It     Res. Norm  Remark
------------------------------------
                       Guess.
    1     6.917e-01  
    2     4.880e-01  
    3     1.704e-01  
    4     8.217e-02  
    5     1.876e-02  
    6     6.750e-03  
    7     1.196e-03  
    8     4.336e-04  
    9     1.339e-04  
   10     2.346e-05  
   11     5.800e-06  
   12     2.739e-06  
   13     1.330e-06  
   14     4.217e-07  Converged.
   ... Converged in 14 steps (norm: 4.21743e-07)
------------------------------------
  Starting TPA DIIS iterations ... 
------------------------------------ 
   It     Res. Norm  Remark
------------------------------------
                       Guess.
    1     4.325e+00  
    2     5.832e+00  
    3     1.155e+00  
    4     3.314e-01  
    5     7.258e-02  
    6     3.591e-02  
    7     9.446e-03  
    8     2.303e-03  
    9     8.056e-04  
   10     1.251e-04  
   11     4.602e-05  
   12     6.679e-06  
   13     2.260e-06  
   14     5.877e-07  Converged.
   ... Converged in 14 steps (norm: 5.87747e-07)
------------------------------------
  Starting TPA DIIS iterations ... 
------------------------------------ 
   It     Res. Norm  Remark
------------------------------------
                       Guess.
    1     4.487e+00  
    2     5.955e+00  
    3     1.037e+00  
    4     2.435e-01  
    5     6.612e-02  
    6     2.429e-02  
    7     8.064e-03  
    8     1.243e-03  
    9     4.654e-04  
   10     8.803e-05  
   11     2.293e-05  
   12     4.528e-06  
   13     1.296e-06  
   14     5.090e-07  Converged.
   ... Converged in 14 steps (norm: 5.09001e-07)
------------------------------------
  Starting TPA DIIS iterations ... 
------------------------------------ 
   It     Res. Norm  Remark
------------------------------------
                       Guess.
    1     6.964e-01  
    2     4.948e-01  
    3     1.741e-01  
    4     8.613e-02  
    5     1.930e-02  
    6     6.985e-03  
    7     1.248e-03  
    8     4.565e-04  
    9     1.409e-04  
   10     2.466e-05  
   11     6.071e-06  
   12     2.914e-06  
   13     1.431e-06  
   14     4.535e-07  Converged.
   ... Converged in 14 steps (norm: 4.53525e-07)
------------------------------------
  Starting TPA DIIS iterations ... 
------------------------------------ 
   It     Res. Norm  Remark
------------------------------------
                       Guess.
    1     4.574e+00  
    2     6.287e+00  
    3     1.230e+00  
    4     3.649e-01  
    5     8.064e-02  
    6     4.038e-02  
    7     1.059e-02  
    8     2.594e-03  
    9     9.094e-04  
   10     1.418e-04  
   11     5.227e-05  
   12     7.642e-06  
   13     2.567e-06  
   14     6.790e-07  Converged.
   ... Converged in 14 steps (norm: 6.78963e-07)
------------------------------------
  Starting TPA DIIS iterations ... 
------------------------------------ 
   It     Res. Norm  Remark
------------------------------------
                       Guess.
    1     4.746e+00  
    2     6.420e+00  
    3     1.106e+00  
    4     2.671e-01  
    5     7.350e-02  
    6     2.713e-02  
    7     9.007e-03  
    8     1.389e-03  
    9     5.245e-04  
   10     9.959e-05  
   11     2.649e-05  
   12     5.254e-06  
   13     1.527e-06  
   14     5.946e-07  Converged.
   ... Converged in 14 steps (norm: 5.94576e-07)
------------------------------------
  Starting TPA DIIS iterations ... 
------------------------------------ 
   It     Res. Norm  Remark
------------------------------------
                       Guess.
    1     7.074e-01  
    2     5.108e-01  
    3     1.831e-01  
    4     9.604e-02  
    5     2.061e-02  
    6     7.569e-03  
    7     1.380e-03  
    8     5.151e-04  
    9     1.585e-04  
   10     2.770e-05  
   11     6.752e-06  
   12     3.363e-06  
   13     1.697e-06  
   14     5.364e-07  Converged.
   ... Converged in 14 steps (norm: 5.36365e-07)
------------------------------------
  Starting TPA DIIS iterations ... 
------------------------------------ 
   It     Res. Norm  Remark
------------------------------------
                       Guess.
    1     5.051e+00  
    2     7.179e+00  
    3     1.374e+00  
    4     4.329e-01  
    5     9.695e-02  
    6     4.952e-02  
    7     1.292e-02  
    8     3.190e-03  
    9     1.121e-03  
   10     1.758e-04  
   11     6.487e-05  
   12     9.628e-06  
   13     3.149e-06  
   14     8.733e-07  Converged.
   ... Converged in 14 steps (norm: 8.73269e-07)
------------------------------------
  Starting TPA DIIS iterations ... 
------------------------------------ 
   It     Res. Norm  Remark
------------------------------------
                       Guess.
    1     5.242e+00  
    2     7.333e+00  
    3     1.239e+00  
    4     3.145e-01  
    5     8.839e-02  
    6     3.288e-02  
    7     1.091e-02  
    8     1.685e-03  
    9     6.461e-04  
   10     1.233e-04  
   11     3.408e-05  
   12     6.788e-06  
   13     2.024e-06  
   14     7.737e-07  Converged.
   ... Converged in 14 steps (norm: 7.73687e-07)
------------------------------------
  Starting TPA DIIS iterations ... 
------------------------------------ 
   It     Res. Norm  Remark
------------------------------------
                       Guess.
    1     7.268e-01  
    2     5.401e-01  
    3     1.999e-01  
    4     1.161e-01  
    5     2.316e-02  
    6     8.732e-03  
    7     1.648e-03  
    8     6.391e-04  
    9     1.958e-04  
   10     3.411e-05  
   11     8.155e-06  
   12     4.320e-06  
   13     2.287e-06  
   14     7.164e-07  Converged.
   ... Converged in 14 steps (norm: 7.16387e-07)
------------------------------------
  Starting TPA DIIS iterations ... 
------------------------------------ 
   It     Res. Norm  Remark
------------------------------------
                       Guess.
    1     5.902e+00  
    2     8.831e+00  
    3     1.629e+00  
    4     5.655e-01  
    5     1.285e-01  
    6     6.760e-02  
    7     1.746e-02  
    8     4.359e-03  
    9     1.538e-03  
   10     2.429e-04  
   11     8.840e-05  
   12     1.366e-05  
   13     4.039e-06  
   14     1.281e-06  
   15     3.169e-07  Converged.
   ... Converged in 15 steps (norm: 3.16882e-07)
------------------------------------
  Starting TPA DIIS iterations ... 
------------------------------------ 
   It     Res. Norm  Remark
------------------------------------
                       Guess.
    1     6.126e+00  
    2     9.022e+00  
    3     1.473e+00  
    4     4.057e-01  
    5     1.172e-01  
    6     4.410e-02  
    7     1.460e-02  
    8     2.262e-03  
    9     8.882e-04  
   10     1.698e-04  
   11     4.998e-05  
   12     9.943e-06  
   13     3.080e-06  
   14     1.139e-06  
   15     3.032e-07  Converged.
   ... Converged in 15 steps (norm: 3.03217e-07)
------------------------------------
  Starting TPA DIIS iterations ... 
------------------------------------ 
   It     Res. Norm  Remark
------------------------------------
                       Guess.
    1     7.570e-01  
    2     5.887e-01  
    3     2.288e-01  
    4     1.543e-01  
    5     2.783e-02  
    6     1.094e-02  
    7     2.181e-03  
    8     8.909e-04  
    9     2.716e-04  
   10     4.724e-05  
   11     1.102e-05  
   12     6.318e-06  
   13     3.605e-06  
   14     1.099e-06  
   15     4.820e-07  Converged.
   ... Converged in 15 steps (norm: 4.82029e-07)
------------------------------------
  Starting TPA DIIS iterations ... 
------------------------------------ 
   It     Res. Norm  Remark
------------------------------------
                       Guess.
    1     6.412e+00  
    2     9.856e+00  
    3     1.779e+00  
    4     6.511e-01  
    5     1.489e-01  
    6     7.941e-02  
    7     2.039e-02  
    8     5.119e-03  
    9     1.808e-03  
   10     2.865e-04  
   11     1.026e-04  
   12     1.649e-05  
   13     4.481e-06  
   14     1.560e-06  
   15     3.941e-07  Converged.
   ... Converged in 15 steps (norm: 3.94135e-07)
------------------------------------
  Starting TPA DIIS iterations ... 
------------------------------------ 
   It     Res. Norm  Remark
------------------------------------
                       Guess.
    1     6.654e+00  
    2     1.007e+01  
    3     1.612e+00  
    4     4.639e-01  
    5     1.356e-01  
    6     5.136e-02  
    7     1.697e-02  
    8     2.635e-03  
    9     1.048e-03  
   10     2.000e-04  
   11     6.083e-05  
   12     1.206e-05  
   13     3.811e-06  
   14     1.385e-06  
   15     3.754e-07  Converged.
   ... Converged in 15 steps (norm: 3.75438e-07)
------------------------------------
  Starting TPA DIIS iterations ... 
------------------------------------ 
   It     Res. Norm  Remark
------------------------------------
                       Guess.
    1     7.729e-01  
    2     6.160e-01  
    3     2.455e-01  
    4     1.780e-01  
    5     3.071e-02  
    6     1.233e-02  
    7     2.534e-03  
    8     1.054e-03  
    9     3.215e-04  
   10     5.598e-05  
   11     1.299e-05  
   12     7.666e-06  
   13     4.553e-06  
   14     1.362e-06  
   15     5.879e-07  Converged.
   ... Converged in 15 steps (norm: 5.87854e-07)
------------------------------------
  Starting TPA DIIS iterations ... 
------------------------------------ 
   It     Res. Norm  Remark
------------------------------------
                       Guess.
    1     7.880e+00  
    2     1.294e+01  
    3     2.205e+00  
    4     9.181e-01  
    5     2.124e-01  
    6     1.171e-01  
    7     2.959e-02  
    8     7.525e-03  
    9     2.662e-03  
   10     4.242e-04  
   11     1.422e-04  
   12     2.768e-05  
   13     6.506e-06  
   14     2.444e-06  
   15     7.893e-07  Converged.
   ... Converged in 15 steps (norm: 7.89268e-07)
------------------------------------
  Starting TPA DIIS iterations ... 
------------------------------------ 
   It     Res. Norm  Remark
------------------------------------
                       Guess.
    1     8.171e+00  
    2     1.321e+01  
    3     2.006e+00  
    4     6.439e-01  
    5     1.931e-01  
    6     7.423e-02  
    7     2.436e-02  
    8     3.811e-03  
    9     1.561e-03  
   10     2.950e-04  
   11     9.674e-05  
   12     1.888e-05  
   13     6.282e-06  
   14     2.200e-06  
   15     6.238e-07  Converged.
   ... Converged in 15 steps (norm: 6.23755e-07)
------------------------------------
  Starting TPA DIIS iterations ... 
------------------------------------ 
   It     Res. Norm  Remark
------------------------------------
                       Guess.
    1     8.120e-01  
    2     6.886e-01  
    3     2.916e-01  
    4     2.456e-01  
    5     3.935e-02  
    6     1.658e-02  
    7     3.682e-03  
    8     1.533e-03  
    9     4.745e-04  
   10     8.388e-05  
   11     1.974e-05  
   12     1.198e-05  
   13     7.866e-06  
   14     2.250e-06  
   15     9.054e-07  Converged.
   ... Converged in 15 steps (norm: 9.05359e-07)
------------------------------------
  Starting TPA DIIS iterations ... 
------------------------------------ 
   It     Res. Norm  Remark
------------------------------------
                       Guess.
    1     9.610e+00  
    2     1.680e+01  
    3     2.695e+00  
    4     1.263e+00  
    5     2.956e-01  
    6     1.676e-01  
    7     4.170e-02  
    8     1.072e-02  
    9     3.791e-03  
   10     6.058e-04  
   11     1.905e-04  
   12     4.753e-05  
   13     1.099e-05  
   14     3.584e-06  
   15     1.581e-06  
   16     3.924e-07  Converged.
   ... Converged in 16 steps (norm: 3.92395e-07)
------------------------------------
  Starting TPA DIIS iterations ... 
------------------------------------ 
   It     Res. Norm  Remark
------------------------------------
                       Guess.
    1     9.953e+00  
    2     1.715e+01  
    3     2.460e+00  
    4     8.752e-01  
    5     2.681e-01  
    6     1.045e-01  
    7     3.400e-02  
    8     5.372e-03  
    9     2.260e-03  
   10     4.197e-04  
   11     1.461e-04  
   12     2.794e-05  
   13     9.778e-06  
   14     3.368e-06  
   15     9.912e-07  Converged.
   ... Converged in 15 steps (norm: 9.9119e-07)
------------------------------------
  Starting TPA DIIS iterations ... 
------------------------------------ 
   It     Res. Norm  Remark
------------------------------------
                       Guess.
    1     8.496e-01  
    2     7.665e-01  
    3     3.426e-01  
    4     3.179e-01  
    5     5.004e-02  
    6     2.184e-02  
    7     5.254e-03  
    8     2.046e-03  
    9     6.597e-04  
   10     1.209e-04  
   11     2.961e-05  
   12     1.756e-05  
   13     1.268e-05  
   14     3.531e-06  
   15     1.294e-06  
   16     3.621e-07  Converged.
   ... Converged in 16 steps (norm: 3.62138e-07)
------------------------------------
  Starting TPA DIIS iterations ... 
------------------------------------ 
   It     Res. Norm  Remark
------------------------------------
                       Guess.
    1     1.028e+01  
    2     1.835e+01  
    3     2.880e+00  
    4     1.402e+00  
    5     3.297e-01  
    6     1.886e-01  
    7     4.668e-02  
    8     1.204e-02  
    9     4.255e-03  
   10     6.804e-04  
   11     2.111e-04  
   12     5.667e-05  
   13     1.295e-05  
   14     4.191e-06  
   15     1.925e-06  
   16     4.395e-07  Converged.
   ... Converged in 16 steps (norm: 4.3951e-07)
------------------------------------
  Starting TPA DIIS iterations ... 
------------------------------------ 
   It     Res. Norm  Remark
------------------------------------
                       Guess.
    1     1.064e+01  
    2     1.873e+01  
    3     2.633e+00  
    4     9.689e-01  
    5     2.988e-01  
    6     1.171e-01  
    7     3.794e-02  
    8     6.020e-03  
    9     2.554e-03  
   10     4.709e-04  
   11     1.667e-04  
   12     3.166e-05  
   13     1.126e-05  
   14     3.878e-06  
   15     1.156e-06  
   16     3.605e-07  Converged.
   ... Converged in 16 steps (norm: 3.60542e-07)
------------------------------------
  Starting TPA DIIS iterations ... 
------------------------------------ 
   It     Res. Norm  Remark
------------------------------------
                       Guess.
    1     8.623e-01  
    2     7.949e-01  
    3     3.615e-01  
    4     3.426e-01  
    5     5.428e-02  
    6     2.389e-02  
    7     5.911e-03  
    8     2.219e-03  
    9     7.304e-04  
   10     1.363e-04  
   11     3.390e-05  
   12     1.983e-05  
   13     1.476e-05  
   14     4.084e-06  
   15     1.449e-06  
   16     4.364e-07  Converged.
   ... Converged in 16 steps (norm: 4.3641e-07)
------------------------------------
  Starting TPA DIIS iterations ... 
------------------------------------ 
   It     Res. Norm  Remark
------------------------------------
                       Guess.
    1     1.060e+01  
    2     1.911e+01  
    3     2.970e+00  
    4     1.471e+00  
    5     3.468e-01  
    6     1.991e-01  
    7     4.917e-02  
    8     1.270e-02  
    9     4.488e-03  
   10     7.177e-04  
   11     2.215e-04  
   12     6.134e-05  
   13     1.393e-05  
   14     4.532e-06  
   15     2.095e-06  
   16     4.612e-07  Converged.
   ... Converged in 16 steps (norm: 4.61244e-07)
------------------------------------
  Starting TPA DIIS iterations ... 
------------------------------------ 
   It     Res. Norm  Remark
------------------------------------
                       Guess.
    1     1.097e+01  
    2     1.951e+01  
    3     2.716e+00  
    4     1.015e+00  
    5     3.141e-01  
    6     1.233e-01  
    7     3.992e-02  
    8     6.345e-03  
    9     2.702e-03  
   10     4.964e-04  
   11     1.770e-04  
   12     3.351e-05  
   13     1.200e-05  
   14     4.139e-06  
   15     1.242e-06  
   16     3.889e-07  Converged.
   ... Converged in 16 steps (norm: 3.88927e-07)
------------------------------------
  Starting TPA DIIS iterations ... 
------------------------------------ 
   It     Res. Norm  Remark
------------------------------------
                       Guess.
    1     8.682e-01  
    2     8.085e-01  
    3     3.706e-01  
    4     3.539e-01  
    5     5.637e-02  
    6     2.488e-02  
    7     6.240e-03  
    8     2.298e-03  
    9     7.647e-04  
   10     1.440e-04  
   11     3.609e-05  
   12     2.095e-05  
   13     1.582e-05  
   14     4.363e-06  
   15     1.526e-06  
   16     4.742e-07  Converged.
   ... Converged in 16 steps (norm: 4.74224e-07)
------------------------------------
  Two-photon absorbption ...  CPU 157.64 s  wall 42.23 s
  Transition density matrix of state singlet_A_1 printed to ASCII file 'State_singlet_A_1_Transition.txt'
  Transition density matrix of state singlet_A_2 printed to ASCII file 'State_singlet_A_2_Transition.txt'
  Transition density matrix of state singlet_A_3 printed to ASCII file 'State_singlet_A_3_Transition.txt'
  Transition density matrix of state singlet_A_4 printed to ASCII file 'State_singlet_A_4_Transition.txt'
  Transition density matrix of state singlet_A_5 printed to ASCII file 'State_singlet_A_5_Transition.txt'
  Transition density matrix of state singlet_A_6 printed to ASCII file 'State_singlet_A_6_Transition.txt'
  Transition density matrix of state singlet_A_7 printed to ASCII file 'State_singlet_A_7_Transition.txt'
  Transition density matrix of state singlet_A_8 printed to ASCII file 'State_singlet_A_8_Transition.txt'
  Transition density matrix of state singlet_A_9 printed to ASCII file 'State_singlet_A_9_Transition.txt'
  Transition density matrix of state singlet_A_10 printed to ASCII file 'State_singlet_A_10_Transition.txt'
  Transition properties ...  CPU 0.39 s  wall 0.63 s
  Difference density matrix of state singlet_A_1 printed to ASCII file 'State_singlet_A_1_Difference.txt'
  Total density matrix of state singlet_A_1 printed to ASCII file 'State_singlet_A_1_Total.txt'
  Difference density matrix of state singlet_A_2 printed to ASCII file 'State_singlet_A_2_Difference.txt'
  Total density matrix of state singlet_A_2 printed to ASCII file 'State_singlet_A_2_Total.txt'
  Difference density matrix of state singlet_A_3 printed to ASCII file 'State_singlet_A_3_Difference.txt'
  Total density matrix of state singlet_A_3 printed to ASCII file 'State_singlet_A_3_Total.txt'
  Difference density matrix of state singlet_A_4 printed to ASCII file 'State_singlet_A_4_Difference.txt'
  Total density matrix of state singlet_A_4 printed to ASCII file 'State_singlet_A_4_Total.txt'
  Difference density matrix of state singlet_A_5 printed to ASCII file 'State_singlet_A_5_Difference.txt'
  Total density matrix of state singlet_A_5 printed to ASCII file 'State_singlet_A_5_Total.txt'
  Difference density matrix of state singlet_A_6 printed to ASCII file 'State_singlet_A_6_Difference.txt'
  Total density matrix of state singlet_A_6 printed to ASCII file 'State_singlet_A_6_Total.txt'
  Difference density matrix of state singlet_A_7 printed to ASCII file 'State_singlet_A_7_Difference.txt'
  Total density matrix of state singlet_A_7 printed to ASCII file 'State_singlet_A_7_Total.txt'
  Difference density matrix of state singlet_A_8 printed to ASCII file 'State_singlet_A_8_Difference.txt'
  Total density matrix of state singlet_A_8 printed to ASCII file 'State_singlet_A_8_Total.txt'
  Difference density matrix of state singlet_A_9 printed to ASCII file 'State_singlet_A_9_Difference.txt'
  Total density matrix of state singlet_A_9 printed to ASCII file 'State_singlet_A_9_Total.txt'
  Difference density matrix of state singlet_A_10 printed to ASCII file 'State_singlet_A_10_Difference.txt'
  Total density matrix of state singlet_A_10 printed to ASCII file 'State_singlet_A_10_Total.txt'
  Properties ...  CPU 0.64 s  wall 1.03 s
  ISR TDMS ...  CPU 28.33 s  wall 9.29 s
  ISR transition properties ...  CPU 0.51 s  wall 0.25 s
  Sum-over-states TPA ...  CPU 0.00 s  wall 0.00 s

--------------------------------------------------------------------------------
                   State-averaged natural transition orbitals
--------------------------------------------------------------------------------
--------------------------------------------------------------------------------
  SA-NTO decomposition ...  CPU 0.01 s  wall 0.03 s

--------------------------------------------------------------------------------
                             Excited State Summary
--------------------------------------------------------------------------------
--------------------------------------------------------------------------------

  Excited state 1 (singlet, A)                                     [converged]
  ----------------------------------------------------------------------------
  Term symbol:  2 (1) A                                     R^2 =  1.52973e-13

  Total energy:                                            -77.9918048657 a.u.
  Excitation energy:                                               8.728282 eV

  Osc. strength:                                                      0.446956
  Trans. dip. moment [a.u.]:           [   1.057836,   -0.985423,   -0.008637]
  <i|r^2|0> [a.u.]:                    [   6.242275,   -0.243236,    0.000193]
  Two-photon absorption cross-section (SoS) [a.u.]:                   0.000002
  Two-photon absorption matrix (SoS) [a.u.]:
                                       |    0.000110    0.000026    0.000211 |
                                       |    0.000026   -0.000084    0.000404 |
                                       |    0.000211    0.000404    0.000101 |
  Two-photon absorption cross-section [a.u.]:                         0.000004
  Two-photon absorption matrix [a.u.]:
                                       |    0.000131    0.000063   -0.000710 |
                                       |    0.000063   -0.000101    0.000051 |
                                       |   -0.000710    0.000051   -0.000045 |

  Dip. moment [a.u.]:                  [   0.000013,    0.000009,   -0.000017]
  Total dipole [Debye]:                                               0.000060
  <r^2> [a.u.]:                        [ 177.000578,   35.684529,   11.915371]
  Total <r^2> [a.u.]:                                               224.600478

  V1^2 = 0.9713, V2^2 = 0.0287

  Important amplitudes:
      occ i     occ j     vir a      vir b          v   
    -----------------------------------------------------
     8 (A) A              9 (A) A                 0.6806
     6 (A) A             14 (A) A                -0.0605
     4 (A) A             10 (A) A                 0.0593
     7 (A) A             16 (A) A                -0.0560
     5 (A) A             13 (A) A                 0.0530
     6 (A) A             23 (A) A                 0.0460
     8 (A) A             20 (A) A                -0.0349
     6 (A) A             19 (A) A                 0.0299
     3 (A) A             12 (A) A                 0.0239
     5 (A) A             10 (A) A                -0.0225
     5 (A) A             22 (A) A                -0.0219
     7 (A) A             11 (A) A                -0.0187
     3 (A) A             26 (A) A                -0.0186
     8 (A) A   8 (A) B   17 (A) A   20 (A) B      0.0184
     4 (A) A             24 (A) A                 0.0183
     7 (A) A             21 (A) A                -0.0170
     8 (A) A   8 (A) B    9 (A) A   28 (A) B      0.0168
     6 (A) A             26 (A) A                -0.0161
     3 (A) A             11 (A) A                -0.0154
     3 (A) A             14 (A) A                -0.0142
     3 (A) A   4 (A) B    9 (A) A    9 (A) B     -0.0128
     7 (A) A             14 (A) A                 0.0117
     3 (A) A             19 (A) A                 0.0116
     6 (A) A             16 (A) A                -0.0113
     7 (A) A             23 (A) A                -0.0112
     8 (A) A   8 (A) B   18 (A) A   19 (A) B     -0.0107
     6 (A) A             12 (A) A                -0.0106
     7 (A) A             32 (A) A                -0.0095
     6 (A) A             21 (A) A                 0.0093
     7 (A) A             12 (A) A                -0.0087
     6 (A) A             11 (A) A                 0.0085
     3 (A) A             23 (A) A                 0.0078
     8 (A) A   8 (A) B   25 (A) A   29 (A) B     -0.0075
     7 (A) A             36 (A) A                -0.0074
     3 (A) A   6 (A) B    9 (A) A   28 (A) B      0.0064
     6 (A) A             40 (A) A                -0.0062
     5 (A) A   7 (A) B    9 (A) A    9 (A) B      0.0060
     5 (A) A             27 (A) A                -0.0059
     6 (A) A             34 (A) A                -0.0059
     6 (A) A   8 (A) A   19 (A) A   28 (A) A     -0.0059
    -----------------------------------------------------

  Density matrix analysis:
  ------------------------
  NOs
    Occupation of frontier NOs:
       0.9484   1.0226
    Number of electrons: 16.000000
    Number of unpaired electrons: n_u =  2.31702, n_u,nl =  2.03363
    NO participation ratio (PR_NO):  2.878484
  
  
  Mulliken Population Analysis
  Atom      Charge (e)              h+              e-           Del q
  --------------------------------------------------------------------
   1 H        0.069467        0.021021       -0.012834        0.008188
   2 C       -0.120078        0.490249       -0.506018       -0.015769
   3 H        0.050619        0.019968       -0.012386        0.007582
   4 C       -0.120077        0.490249       -0.506019       -0.015770
   5 H        0.050598        0.019968       -0.012387        0.007581
   6 H        0.069471        0.021022       -0.012834        0.008189
  --------------------------------------------------------------------
  Sum:       -0.000000        1.062477       -1.062477       -0.000000
  
  Multipole moment analysis of the density matrix
    Molecular charge:                      -0.000000
    Number of electrons:                   16.000000
      Center of electronic charge [Ang]: [ -1.561337,  -0.065284,   0.002128]
    Total nuclear charge:                  16.000000
      Center of nuclear charge [Ang]:    [ -1.561336,  -0.065284,   0.002127]
    Dipole moment [D]:                     0.000060
      Cartesian components [D]:          [  0.000034,   0.000023,  -0.000044]
    RMS size of the density [Ang]:         1.220193
      Cartesian components [Ang]:        [  0.812437,   0.787579,   0.456657]
  
  Exciton analysis of the difference density matrix
    <r_h> [Ang]:                  [ -1.561330,  -0.065280,   0.002090]
    <r_e> [Ang]:                  [ -1.561330,  -0.065280,   0.002107]
    |<r_e - r_h>| [Ang]:            0.000017
    Hole size [Ang]:                1.287452
      Cartesian components [Ang]: [  0.729743,   0.715850,   0.782666]
    Electron size [Ang]:            1.463962
      Cartesian components [Ang]: [  0.845453,   0.841467,   0.848721]

  Transition density matrix analysis:
  -----------------------------------
  
  CT numbers (Mulliken)
    omega =     0.9531
    <Phe> =    -0.1601
  
  Exciton analysis of the transition density matrix
    Trans. dipole moment [D]:             1.837346
      Cartesian components [D]:         [  1.344376,  -1.252348,  -0.010976]
    <r_h> [Ang]:                        [ -1.561328,  -0.065279,   0.002095]
    <r_e> [Ang]:                        [ -1.561330,  -0.065280,   0.002113]
    |<r_e - r_h>| [Ang]:                  0.000018
    Hole size [Ang]:                      1.214533
      Cartesian components [Ang]:       [  0.646051,   0.641787,   0.803627]
    Electron size [Ang]:                  1.486454
      Cartesian components [Ang]:       [  0.855055,   0.850754,   0.868702]
    RMS electron-hole separation [Ang]:   1.936545
      Cartesian components [Ang]:       [  1.090471,   1.092492,   1.169419]
    Covariance(r_h, r_e) [Ang^2]:        -0.032786
    Correlation coefficient:             -0.018160
    Center-of-mass size [Ang]:            0.951192
      Cartesian components [Ang]:       [  0.526278,   0.519087,   0.598619]

  Decomposition into state-averaged NTOs
    H- 0 -> L+ 0: -0.6694 ( 89.6%)
    H- 2 -> L+ 5: -0.0822 (  1.3%)
                   omega =  95.3%
  ----------------------------------------------------------------------------


  Excited state 2 (singlet, A)                                     [converged]
  ----------------------------------------------------------------------------
  Term symbol:  3 (1) A                                     R^2 =  2.57353e-13

  Total energy:                                            -77.9872994234 a.u.
  Excitation energy:                                               8.850882 eV

  Osc. strength:                                                      0.000000
  Trans. dip. moment [a.u.]:           [   0.000956,   -0.000859,   -0.000098]
  <i|r^2|0> [a.u.]:                    [   0.095405,    0.051816,   -0.141743]
  Two-photon absorption cross-section (SoS) [a.u.]:                   6.303173
  Two-photon absorption matrix (SoS) [a.u.]:
                                       |    0.058525    0.067341   -0.595749 |
                                       |    0.067341    0.078344   -0.643776 |
                                       |   -0.595749   -0.643776   -0.135764 |
  Two-photon absorption cross-section [a.u.]:                         2.482620
  Two-photon absorption matrix [a.u.]:
                                       |   -0.048382   -0.021029    0.514437 |
                                       |   -0.021029    0.024474   -0.208501 |
                                       |    0.514437   -0.208501    0.024378 |

  Dip. moment [a.u.]:                  [   0.000016,    0.000084,    0.000078]
  Total dipole [Debye]:                                               0.000294
  <r^2> [a.u.]:                        [ 174.557288,   34.884261,   13.166814]
  Total <r^2> [a.u.]:                                               222.608362

  V1^2 = 0.9545, V2^2 = 0.0455

  Important amplitudes:
      occ i     occ j     vir a      vir b          v   
    -----------------------------------------------------
     7 (A) A              9 (A) A                 0.6651
     8 (A) A             11 (A) A                -0.1619
     7 (A) A             20 (A) A                -0.0756
     8 (A) A             12 (A) A                -0.0346
     5 (A) A   8 (A) B    9 (A) A    9 (A) B      0.0307
     8 (A) A             16 (A) A                 0.0281
     8 (A) A             21 (A) A                -0.0165
     5 (A) A             28 (A) A                -0.0144
     5 (A) A   7 (A) B    9 (A) A   16 (A) B      0.0135
     4 (A) A   7 (A) B    9 (A) A   19 (A) B     -0.0125
     3 (A) A              9 (A) A                -0.0122
     8 (A) A             19 (A) A                 0.0115
     7 (A) A   8 (A) B   20 (A) A   17 (A) B      0.0105
     7 (A) A   8 (A) A    9 (A) A   28 (A) A     -0.0095
     5 (A) A   8 (A) B    9 (A) A   20 (A) B     -0.0091
     8 (A) A   7 (A) B    9 (A) A   28 (A) B      0.0086
     5 (A) A   6 (A) A    9 (A) A   23 (A) A     -0.0086
     5 (A) A   6 (A) A    9 (A) A   14 (A) A      0.0086
     4 (A) A   5 (A) A    9 (A) A   10 (A) A      0.0081
     6 (A) A              9 (A) A                -0.0081
     4 (A) A   6 (A) B    9 (A) A   16 (A) B      0.0080
     3 (A) A   7 (A) B    9 (A) A   18 (A) B      0.0079
     5 (A) A   7 (A) A    9 (A) A   16 (A) A      0.0077
     5 (A) A   6 (A) B    9 (A) A   23 (A) B     -0.0076
     5 (A) A   6 (A) B    9 (A) A   19 (A) B     -0.0076
     7 (A) A   8 (A) B   17 (A) A   20 (A) B      0.0074
     4 (A) A   8 (A) B    9 (A) A   25 (A) B      0.0071
     6 (A) A   7 (A) B    9 (A) A   18 (A) B     -0.0070
     7 (A) A   8 (A) B   19 (A) A   18 (A) B     -0.0069
     5 (A) A   5 (A) B    9 (A) A   13 (A) B     -0.0068
     5 (A) A   8 (A) A    9 (A) A   20 (A) A     -0.0066
     4 (A) A   7 (A) B   19 (A) A    9 (A) B     -0.0066
     5 (A) A   6 (A) B    9 (A) A   14 (A) B      0.0065
     7 (A) A   8 (A) B   17 (A) A    9 (A) B     -0.0065
     4 (A) A   5 (A) B    9 (A) A   18 (A) B     -0.0063
     7 (A) A   7 (A) B   20 (A) A   22 (A) B      0.0063
     7 (A) A   7 (A) B    9 (A) A   18 (A) B      0.0062
     4 (A) A   5 (A) B   10 (A) A    9 (A) B     -0.0060
     4 (A) A   7 (A) A    9 (A) A   19 (A) A     -0.0059
     5 (A) A             38 (A) A                 0.0058
    -----------------------------------------------------

  Density matrix analysis:
  ------------------------
  NOs
    Occupation of frontier NOs:
       0.9461   1.0633
    Number of electrons: 16.000000
    Number of unpaired electrons: n_u =  2.35580, n_u,nl =  2.07133
    NO participation ratio (PR_NO):  3.090829
  
  
  Mulliken Population Analysis
  Atom      Charge (e)              h+              e-           Del q
  --------------------------------------------------------------------
   1 H        0.190551        0.165346       -0.036074        0.129271
   2 C       -0.294536        0.278384       -0.468611       -0.190227
   3 H        0.103981        0.076951       -0.016008        0.060943
   4 C       -0.294515        0.278423       -0.468630       -0.190208
   5 H        0.103986        0.076942       -0.015973        0.060969
   6 H        0.190534        0.165397       -0.036146        0.129251
  --------------------------------------------------------------------
  Sum:       -0.000000        1.041443       -1.041443        0.000000
  
  Multipole moment analysis of the density matrix
    Molecular charge:                      -0.000000
    Number of electrons:                   16.000000
      Center of electronic charge [Ang]: [ -1.561337,  -0.065287,   0.002125]
    Total nuclear charge:                  16.000000
      Center of nuclear charge [Ang]:    [ -1.561336,  -0.065284,   0.002127]
    Dipole moment [D]:                     0.000294
      Cartesian components [D]:          [  0.000041,   0.000215,   0.000197]
    RMS size of the density [Ang]:         1.205821
      Cartesian components [Ang]:        [  0.785679,   0.778636,   0.480040]
  
  Exciton analysis of the difference density matrix
    <r_h> [Ang]:                  [ -1.561452,  -0.065280,   0.002158]
    <r_e> [Ang]:                  [ -1.561453,  -0.065318,   0.002128]
    |<r_e - r_h>| [Ang]:            0.000049
    Hole size [Ang]:                1.501931
      Cartesian components [Ang]: [  1.151726,   0.844304,   0.465267]
    Electron size [Ang]:            1.488488
      Cartesian components [Ang]: [  0.924906,   0.835010,   0.814190]

  Transition density matrix analysis:
  -----------------------------------
  
  CT numbers (Mulliken)
    omega =     0.9213
    <Phe> =    -0.0109
  
  Exciton analysis of the transition density matrix
    Trans. dipole moment [D]:             0.001638
      Cartesian components [D]:         [  0.001215,  -0.001092,  -0.000124]
    <r_h> [Ang]:                        [ -1.561464,  -0.065276,   0.002159]
    <r_e> [Ang]:                        [ -1.561452,  -0.065320,   0.002117]
    |<r_e - r_h>| [Ang]:                  0.000062
    Hole size [Ang]:                      1.528258
      Cartesian components [Ang]:       [  1.186527,   0.848626,   0.455588]
    Electron size [Ang]:                  1.483863
      Cartesian components [Ang]:       [  0.911699,   0.826751,   0.828938]
    RMS electron-hole separation [Ang]:   2.110583
      Cartesian components [Ang]:       [  1.480047,   1.170942,   0.944942]
    Covariance(r_h, r_e) [Ang^2]:         0.041431
    Correlation coefficient:              0.018270
    Center-of-mass size [Ang]:            1.074742
      Cartesian components [Ang]:       [  0.756231,   0.599220,   0.473414]

  Decomposition into state-averaged NTOs
    H- 1 -> L+ 0:  0.6568 ( 86.3%)
    H- 0 -> L+ 2:  0.1606 (  5.2%)
                   omega =  92.1%
  ----------------------------------------------------------------------------


  Excited state 3 (singlet, A)                                     [converged]
  ----------------------------------------------------------------------------
  Term symbol:  4 (1) A                                     R^2 =  2.56564e-13

  Total energy:                                            -77.9770632261 a.u.
  Excitation energy:                                               9.129423 eV

  Osc. strength:                                                      0.023076
  Trans. dip. moment [a.u.]:           [   0.015225,    0.019503,   -0.320247]
  <i|r^2|0> [a.u.]:                    [   0.089573,    0.004976,    0.002609]
  Two-photon absorption cross-section (SoS) [a.u.]:                   0.000019
  Two-photon absorption matrix (SoS) [a.u.]:
                                       |   -0.001528   -0.000092   -0.000609 |
                                       |   -0.000092    0.001167   -0.000253 |
                                       |   -0.000609   -0.000253    0.000015 |
  Two-photon absorption cross-section [a.u.]:                         0.000012
  Two-photon absorption matrix [a.u.]:
                                       |   -0.001049   -0.000049   -0.000710 |
                                       |   -0.000049    0.000918   -0.000112 |
                                       |   -0.000710   -0.000112   -0.000021 |

  Dip. moment [a.u.]:                  [   0.001063,    0.000548,    0.000055]
  Total dipole [Debye]:                                               0.003044
  <r^2> [a.u.]:                        [ 182.253055,   40.134371,   11.043300]
  Total <r^2> [a.u.]:                                               233.430726

  V1^2 = 0.9579, V2^2 = 0.0421

  Important amplitudes:
      occ i     occ j     vir a      vir b          v   
    -----------------------------------------------------
     8 (A) A             10 (A) A                 0.6880
     8 (A) A             24 (A) A                 0.0467
     8 (A) A             18 (A) A                -0.0345
     8 (A) A             13 (A) A                -0.0283
     4 (A) A              9 (A) A                 0.0239
     8 (A) A             22 (A) A                 0.0214
     8 (A) A   8 (A) B    9 (A) A   12 (A) B      0.0176
     8 (A) A   8 (A) B   10 (A) A   17 (A) B      0.0171
     5 (A) A   8 (A) B   11 (A) A   10 (A) B      0.0158
     8 (A) A             15 (A) A                 0.0147
     8 (A) A   8 (A) B    9 (A) A   11 (A) B     -0.0140
     7 (A) A   8 (A) B   13 (A) A   10 (A) B     -0.0139
     6 (A) A   8 (A) A   10 (A) A   15 (A) A     -0.0108
     6 (A) A   8 (A) B   15 (A) A   10 (A) B      0.0105
     5 (A) A              9 (A) A                -0.0104
     7 (A) A   8 (A) B   22 (A) A   10 (A) B      0.0101
     4 (A) A   8 (A) B   12 (A) A   10 (A) B      0.0100
     5 (A) A   8 (A) A   10 (A) A   11 (A) A     -0.0099
     7 (A) A   8 (A) A   10 (A) A   22 (A) A     -0.0096
     7 (A) A   8 (A) A   10 (A) A   13 (A) A      0.0095
     4 (A) A   8 (A) A   10 (A) A   12 (A) A     -0.0091
     5 (A) A   8 (A) B   21 (A) A   10 (A) B      0.0086
     6 (A) A   8 (A) B   10 (A) A   10 (A) B     -0.0082
     6 (A) A   8 (A) A   10 (A) A   18 (A) A     -0.0081
     3 (A) A   4 (A) B   10 (A) A    9 (A) B     -0.0079
     8 (A) A   8 (A) B    9 (A) A   23 (A) B     -0.0075
     5 (A) A   8 (A) A   10 (A) A   21 (A) A     -0.0075
     8 (A) A   8 (A) B   10 (A) A   28 (A) B      0.0073
     3 (A) A   8 (A) B   10 (A) A   10 (A) B      0.0071
     8 (A) A   8 (A) B    9 (A) A   19 (A) B      0.0070
     4 (A) A   8 (A) B   19 (A) A   10 (A) B      0.0069
     7 (A) A   8 (A) B   11 (A) A   11 (A) B      0.0069
     3 (A) A   8 (A) A   10 (A) A   24 (A) A     -0.0067
     3 (A) A   8 (A) B   10 (A) A   18 (A) B     -0.0066
     5 (A) A   8 (A) B   12 (A) A   10 (A) B      0.0066
     7 (A) A   8 (A) A   11 (A) A   16 (A) A      0.0065
     3 (A) A   6 (A) B   10 (A) A   28 (A) B      0.0062
     6 (A) A   8 (A) B   18 (A) A   10 (A) B      0.0060
     5 (A) A   8 (A) B   10 (A) A   11 (A) B      0.0059
     7 (A) A   8 (A) A   12 (A) A   16 (A) A     -0.0057
    -----------------------------------------------------

  Density matrix analysis:
  ------------------------
  NOs
    Occupation of frontier NOs:
       0.9812   0.9844
    Number of electrons: 16.000000
    Number of unpaired electrons: n_u =  2.28891, n_u,nl =  2.02519
    NO participation ratio (PR_NO):  2.702457
  
  
  Mulliken Population Analysis
  Atom      Charge (e)              h+              e-           Del q
  --------------------------------------------------------------------
   1 H       -0.152406        0.056600       -0.270285       -0.213685
   2 C        0.311137        0.537564       -0.122119        0.415446
   3 H       -0.158660        0.051483       -0.253180       -0.201698
   4 C        0.311165        0.537609       -0.122137        0.415472
   5 H       -0.158501        0.051483       -0.253001       -0.201517
   6 H       -0.152735        0.056590       -0.270607       -0.214017
  --------------------------------------------------------------------
  Sum:       -0.000000        1.291329       -1.291329       -0.000000
  
  Multipole moment analysis of the density matrix
    Molecular charge:                      -0.000000
    Number of electrons:                   16.000000
      Center of electronic charge [Ang]: [ -1.561371,  -0.065302,   0.002125]
    Total nuclear charge:                  16.000000
      Center of nuclear charge [Ang]:    [ -1.561336,  -0.065284,   0.002127]
    Dipole moment [D]:                     0.003044
      Cartesian components [D]:          [  0.002702,   0.001393,   0.000140]
    RMS size of the density [Ang]:         1.281914
      Cartesian components [Ang]:        [  0.867106,   0.835559,   0.439628]
  
  Exciton analysis of the difference density matrix
    <r_h> [Ang]:                  [ -1.561353,  -0.065283,   0.002121]
    <r_e> [Ang]:                  [ -1.561783,  -0.065503,   0.002105]
    |<r_e - r_h>| [Ang]:            0.000484
    Hole size [Ang]:                1.411801
      Cartesian components [Ang]: [  0.842428,   0.814967,   0.786973]
    Electron size [Ang]:            2.075153
      Cartesian components [Ang]: [  1.413266,   1.337931,   0.720333]

  Transition density matrix analysis:
  -----------------------------------
  
  CT numbers (Mulliken)
    omega =     0.9247
    <Phe> =    -0.0111
  
  Exciton analysis of the transition density matrix
    Trans. dipole moment [D]:             0.408207
      Cartesian components [D]:         [  0.019349,   0.024785,  -0.406994]
    <r_h> [Ang]:                        [ -1.561312,  -0.065274,   0.002118]
    <r_e> [Ang]:                        [ -1.561937,  -0.065580,   0.002098]
    |<r_e - r_h>| [Ang]:                  0.000697
    Hole size [Ang]:                      1.212598
      Cartesian components [Ang]:       [  0.628989,   0.631250,   0.822369]
    Electron size [Ang]:                  2.295688
      Cartesian components [Ang]:       [  1.568758,   1.475157,   0.795671]
    RMS electron-hole separation [Ang]:   2.586108
      Cartesian components [Ang]:       [  1.682703,   1.597116,   1.142668]
    Covariance(r_h, r_e) [Ang^2]:         0.026311
    Correlation coefficient:              0.009452
    Center-of-mass size [Ang]:            1.303189
      Cartesian components [Ang]:       [  0.848789,   0.805970,   0.572948]

  Decomposition into state-averaged NTOs
    H- 0 -> L+ 1:  0.6791 ( 92.2%)
                   omega =  92.5%
  ----------------------------------------------------------------------------


  Excited state 4 (singlet, A)                                     [converged]
  ----------------------------------------------------------------------------
  Term symbol:  5 (1) A                                     R^2 =  9.42412e-14

  Total energy:                                            -77.9598055161 a.u.
  Excitation energy:                                               9.599029 eV

  Osc. strength:                                                      0.000000
  Trans. dip. moment [a.u.]:           [   0.000232,   -0.000153,   -0.000154]
  <i|r^2|0> [a.u.]:                    [  -0.014956,   -0.001268,    0.017513]
  Two-photon absorption cross-section (SoS) [a.u.]:                  91.510206
  Two-photon absorption matrix (SoS) [a.u.]:
                                       |   -0.298767   -0.250333    3.080228 |
                                       |   -0.250333   -0.159805    1.313886 |
                                       |    3.080228    1.313886    0.457402 |
  Two-photon absorption cross-section [a.u.]:                        66.014580
  Two-photon absorption matrix [a.u.]:
                                       |   -0.260983   -0.208370    2.687379 |
                                       |   -0.208370   -0.113824    0.936001 |
                                       |    2.687379    0.936001    0.373539 |

  Dip. moment [a.u.]:                  [  -0.001332,   -0.000499,   -0.000142]
  Total dipole [Debye]:                                               0.003632
  <r^2> [a.u.]:                        [ 186.368682,   35.971394,   10.791786]
  Total <r^2> [a.u.]:                                               233.131862

  V1^2 = 0.9614, V2^2 = 0.0386

  Important amplitudes:
      occ i     occ j     vir a      vir b          v   
    -----------------------------------------------------
     8 (A) A             11 (A) A                 0.6559
     7 (A) A              9 (A) A                 0.1675
     8 (A) A             12 (A) A                 0.1063
     8 (A) A             21 (A) A                 0.0672
     8 (A) A             16 (A) A                -0.0631
     8 (A) A             19 (A) A                -0.0351
     6 (A) A              9 (A) A                 0.0277
     5 (A) A   8 (A) B   11 (A) A   11 (A) B      0.0168
     7 (A) A             20 (A) A                -0.0160
     8 (A) A   8 (A) B    9 (A) A   13 (A) B      0.0150
     8 (A) A   8 (A) B   11 (A) A   17 (A) B      0.0133
     7 (A) A   8 (A) B   13 (A) A   11 (A) B     -0.0130
     8 (A) A             14 (A) A                -0.0103
     8 (A) A   8 (A) B    9 (A) A   22 (A) B     -0.0103
     8 (A) A   8 (A) B    9 (A) A   10 (A) B     -0.0101
     5 (A) A   8 (A) A   11 (A) A   21 (A) A     -0.0096
     7 (A) A   8 (A) A   11 (A) A   22 (A) A     -0.0092
     8 (A) A             26 (A) A                 0.0091
     3 (A) A              9 (A) A                -0.0089
     6 (A) A   8 (A) B   15 (A) A   11 (A) B      0.0088
     7 (A) A   8 (A) B   22 (A) A   11 (A) B      0.0088
     6 (A) A   8 (A) A   11 (A) A   15 (A) A     -0.0081
     4 (A) A   8 (A) B   12 (A) A   11 (A) B      0.0080
     3 (A) A   4 (A) B   11 (A) A    9 (A) B     -0.0080
     7 (A) A   8 (A) A   13 (A) A   16 (A) A     -0.0075
     6 (A) A   8 (A) B   10 (A) A   11 (A) B     -0.0074
     4 (A) A   8 (A) B   11 (A) A   11 (A) B     -0.0073
     3 (A) A   8 (A) B   11 (A) A   18 (A) B     -0.0073
     5 (A) A   8 (A) B    9 (A) A    9 (A) B      0.0073
     8 (A) A             23 (A) A                 0.0071
     7 (A) A   8 (A) B   10 (A) A   11 (A) B      0.0067
     7 (A) A   8 (A) A   11 (A) A   13 (A) A      0.0066
     7 (A) A   8 (A) B   11 (A) A   13 (A) B     -0.0064
     4 (A) A   8 (A) B   19 (A) A   11 (A) B      0.0062
     7 (A) A   8 (A) B   11 (A) A   10 (A) B      0.0062
     5 (A) A   8 (A) B   21 (A) A   11 (A) B      0.0061
     3 (A) A   6 (A) B   11 (A) A   28 (A) B      0.0059
     4 (A) A   8 (A) A   11 (A) A   12 (A) A     -0.0059
     7 (A) A   8 (A) B   18 (A) A   11 (A) B     -0.0057
     5 (A) A   8 (A) A   11 (A) A   16 (A) A      0.0054
    -----------------------------------------------------

  Density matrix analysis:
  ------------------------
  NOs
    Occupation of frontier NOs:
       0.9276   1.0398
    Number of electrons: 16.000000
    Number of unpaired electrons: n_u =  2.32429, n_u,nl =  2.06013
    NO participation ratio (PR_NO):  2.997324
  
  
  Mulliken Population Analysis
  Atom      Charge (e)              h+              e-           Del q
  --------------------------------------------------------------------
   1 H       -0.264684        0.048001       -0.373964       -0.325963
   2 C        0.232768        0.491427       -0.154349        0.337077
   3 H        0.031821        0.047309       -0.058525       -0.011216
   4 C        0.232674        0.491356       -0.154374        0.336982
   5 H        0.031617        0.047316       -0.058716       -0.011400
   6 H       -0.264197        0.048002       -0.373481       -0.325480
  --------------------------------------------------------------------
  Sum:       -0.000000        1.173410       -1.173410       -0.000000
  
  Multipole moment analysis of the density matrix
    Molecular charge:                      -0.000000
    Number of electrons:                   16.000000
      Center of electronic charge [Ang]: [ -1.561292,  -0.065267,   0.002132]
    Total nuclear charge:                  16.000000
      Center of nuclear charge [Ang]:    [ -1.561336,  -0.065284,   0.002127]
    Dipole moment [D]:                     0.003632
      Cartesian components [D]:          [ -0.003385,  -0.001267,  -0.000360]
    RMS size of the density [Ang]:         1.279971
      Cartesian components [Ang]:        [  0.907827,   0.790761,   0.434593]
  
  Exciton analysis of the difference density matrix
    <r_h> [Ang]:                  [ -1.561277,  -0.065285,   0.002125]
    <r_e> [Ang]:                  [ -1.560670,  -0.065056,   0.002197]
    |<r_e - r_h>| [Ang]:            0.000652
    Hole size [Ang]:                1.399495
      Cartesian components [Ang]: [  0.845405,   0.790515,   0.786742]
    Electron size [Ang]:            2.106234
      Cartesian components [Ang]: [  1.765584,   0.933024,   0.669625]

  Transition density matrix analysis:
  -----------------------------------
  
  CT numbers (Mulliken)
    omega =     0.9272
    <Phe> =    -0.0165
  
  Exciton analysis of the transition density matrix
    Trans. dipole moment [D]:             0.000403
      Cartesian components [D]:         [  0.000294,  -0.000195,  -0.000195]
    <r_h> [Ang]:                        [ -1.561334,  -0.065284,   0.002115]
    <r_e> [Ang]:                        [ -1.560554,  -0.065012,   0.002211]
    |<r_e - r_h>| [Ang]:                  0.000832
    Hole size [Ang]:                      1.233579
      Cartesian components [Ang]:       [  0.666914,   0.657445,   0.802938]
    Electron size [Ang]:                  2.237752
      Cartesian components [Ang]:       [  1.894087,   0.958400,   0.708122]
    RMS electron-hole separation [Ang]:   2.543407
      Cartesian components [Ang]:       [  1.996463,   1.156630,   1.070168]
    Covariance(r_h, r_e) [Ang^2]:         0.030166
    Correlation coefficient:              0.010928
    Center-of-mass size [Ang]:            1.283509
      Cartesian components [Ang]:       [  1.009804,   0.583895,   0.535498]

  Decomposition into state-averaged NTOs
    H- 0 -> L+ 2: -0.6479 ( 83.9%)
    H- 1 -> L+ 0:  0.1661 (  5.5%)
    H- 0 -> L+ 4: -0.1216 (  3.0%)
                   omega =  92.7%
  ----------------------------------------------------------------------------


  Excited state 5 (singlet, A)                                     [converged]
  ----------------------------------------------------------------------------
  Term symbol:  6 (1) A                                     R^2 =  3.46410e-13

  Total energy:                                            -77.9348607983 a.u.
  Excitation energy:                                              10.277809 eV

  Osc. strength:                                                      0.000000
  Trans. dip. moment [a.u.]:           [   0.000016,    0.000030,    0.000020]
  <i|r^2|0> [a.u.]:                    [  -0.057920,    0.121112,   -0.063146]
  Two-photon absorption cross-section (SoS) [a.u.]:                 270.205220
  Two-photon absorption matrix (SoS) [a.u.]:
                                       |   -0.219417    0.118473    2.288025 |
                                       |    0.118473    0.641943   -5.310972 |
                                       |    2.288025   -5.310972   -0.424302 |
  Two-photon absorption cross-section [a.u.]:                       142.986439
  Two-photon absorption matrix [a.u.]:
                                       |   -0.157699    0.087704    1.643378 |
                                       |    0.087704    0.467288   -3.872306 |
                                       |    1.643378   -3.872306   -0.311630 |

  Dip. moment [a.u.]:                  [   0.000144,   -0.000114,    0.000022]
  Total dipole [Debye]:                                               0.000470
  <r^2> [a.u.]:                        [ 177.212103,   42.915409,   11.626844]
  Total <r^2> [a.u.]:                                               231.754356

  V1^2 = 0.9567, V2^2 = 0.0433

  Important amplitudes:
      occ i     occ j     vir a      vir b          v   
    -----------------------------------------------------
[...]
    16   -1.312009386839e-03
    17   -1.807013347001e-03
    18    1.840475925829e-03
    19   -2.558074117454e-03
    20    1.588372431559e-02
    21    9.723304001364e-01
    22   -9.926492510647e-04
    23    1.489176697071e-02
    24    8.539852465851e-04
    25    7.020126417972e-02
    26   -5.219216039208e-02
    27   -1.386250852882e+00
    28    1.128022761021e-01
    29   -8.165833162209e-02
    30    4.491277042288e-04
    31    3.928327139386e-01
    32   -3.586325459712e-01
    33   -2.934881779652e-03
    34    1.489812830332e-02
    35   -1.309528014560e-03
    36   -1.806222605668e-03
    37    1.847735865527e-03
    38   -2.556760543642e-03
    39    1.586228943791e-02
    40    9.721467599947e-01
    41    9.943526088443e-04
    42   -1.489017913027e-02
    43   -8.533793743532e-04
    44    8.397749833721e-03
    45    8.839363322869e-01
    46    1.203018662929e-02
    47    2.779413825739e-04
    48    5.927563460437e-04
Sym=X
Ene= 0.226138
Spin=Alpha
Occup=0
     1    5.113483404752e-02
     2    1.465277415370e+00
     3   -1.567397845837e-02
     4   -6.689884276510e-03
     5   -1.157032773167e-03
     6    4.750694738068e-02
     7   -4.664574296591e-02
     8   -7.521158912124e-01
     9   -1.721940532794e-01
    10   -1.040605110888e-01
    11   -1.456748833513e-02
    12   -5.533917125432e-01
    13   -3.519661024931e-01
    14   -4.788624098506e-02
    15    9.524344653570e-03
    16   -8.635021724697e-04
    17   -1.506254454333e-03
    18    4.591357453586e-03
    19   -4.737969276310e-03
    20   -1.109379444631e-02
    21   -4.151830175207e-01
    22    1.580153652601e-04
    23   -2.588603915305e-03
    24   -1.496142637951e-04
    25   -4.748541794849e-02
    26    4.663080977403e-02
    27    7.515666759475e-01
    28   -1.721786573707e-01
    29   -1.040938019925e-01
    30   -1.453147489959e-02
    31   -5.532529217378e-01
    32   -3.520880683264e-01
    33   -4.775252688551e-02
    34   -9.516090228539e-03
    35    8.602474218520e-04
    36    1.506668339872e-03
    37   -4.590301830341e-03
    38    4.733702743503e-03
    39    1.108579533519e-02
    40    4.155042569073e-01
    41    1.570864299218e-04
    42   -2.594941879356e-03
    43   -1.480462661207e-04
    44   -5.114186243512e-02
    45   -1.464900007863e+00
    46   -1.566576144448e-02
    47   -6.688633376583e-03
    48   -1.154511818212e-03
Sym=X
Ene= 0.239729
Spin=Alpha
Occup=0
     1   -2.523910793914e-03
     2   -2.406252325882e-01
     3    4.964462176704e-03
     4    7.602429342733e-03
     5    6.974978558595e-04
     6   -7.247631853677e-02
     7    6.866857294675e-02
     8    1.345308195688e+00
     9   -3.240224228895e-02
    10   -1.258475356131e-01
    11   -9.170340664961e-03
    12   -7.664984546478e-02
    13   -5.201063142860e-01
    14   -3.513950438986e-02
    15   -1.869581348072e-02
    16    2.027981936783e-03
    17    2.775798654318e-03
    18   -4.437996165393e-03
    19    1.111008626225e-02
    20   -1.908438612824e-02
    21   -1.638049319522e+00
    22   -8.789483133514e-03
    23   -2.418854784649e-02
    24   -1.885004566174e-03
    25    7.248196962908e-02
    26   -6.867007754113e-02
    27   -1.345542307465e+00
    28   -3.238161388799e-02
    29   -1.258434431728e-01
    30   -9.168498754995e-03
    31   -7.657521250715e-02
    32   -5.201591960153e-01
    33   -3.513224310870e-02
    34    1.869944030082e-02
    35   -2.027242542103e-03
    36   -2.776123890180e-03
    37    4.440284654013e-03
    38   -1.111129317774e-02
    39    1.908464255697e-02
    40    1.638244257233e+00
    41   -8.789594955856e-03
    42   -2.419338600303e-02
    43   -1.884976353722e-03
    44    2.513296074576e-03
    45    2.407080980872e-01
    46    4.964919086298e-03
    47    7.604828962470e-03
    48    6.973210798230e-04
Sym=X
Ene= 0.301855
Spin=Alpha
Occup=0
     1    7.474924941229e-03
     2   -1.545106321043e+00
     3    2.233336490556e-02
     4   -2.021574039680e-03
     5    9.515080127199e-04
     6    1.370916537141e-03
     7   -1.068372539035e-03
     8   -2.087100353370e-01
     9    1.367627245268e-01
    10    1.416360802724e-01
    11    1.512944543679e-02
    12    1.104779734664e+00
    13    1.190616597641e+00
    14    1.250076153077e-01
    15    4.568650481490e-03
    16    1.035259553590e-03
    17   -2.653411443513e-03
    18    3.344421098175e-02
    19   -3.062213458407e-03
    20   -3.245122255017e-02
    21    1.766364249716e+00
    22   -4.959541739066e-04
    23    2.372400329434e-02
    24    1.408867719082e-03
    25    1.370571756714e-03
    26   -1.066048713714e-03
    27   -2.088695541645e-01
    28   -1.367656758327e-01
    29   -1.416367078119e-01
    30   -1.511490609903e-02
    31   -1.104708218877e+00
    32   -1.190646992335e+00
    33   -1.249592150417e-01
    34    4.571574017670e-03
    35    1.032202771511e-03
    36   -2.655146397910e-03
    37    3.344200375734e-02
    38   -3.065254567187e-03
    39   -3.245583654597e-02
    40    1.766470664645e+00
    41    4.963247810132e-04
    42   -2.372354044330e-02
    43   -1.408258064915e-03
    44    7.458901603191e-03
    45   -1.544984532312e+00
    46   -2.233146943601e-02
    47    2.023444588749e-03
    48   -9.496475371271e-04
Sym=X
Ene= 0.462447
Spin=Alpha
Occup=0
     1   -1.500328433912e-01
     2   -5.430367357595e-01
     3   -1.646011199827e-02
     4   -7.454076735555e-03
     5   -1.241739030133e-03
     6    6.290753496586e-02
     7    1.660695290955e-02
     8   -3.633941769863e+00
     9    1.043640960300e-01
    10   -9.998539343390e-02
    11   -1.049101558549e-03
    12    2.327385240300e+00
    13   -2.409287477186e+00
    14   -3.359662243678e-02
    15    5.301609629347e-02
    16   -3.525587641749e-03
    17   -4.260211637455e-03
    18   -6.024404839536e-03
    19    1.980496755242e-02
    20   -7.855279778676e-02
    21   -8.486297094265e-01
    22    1.287023134706e-02
    23    1.447613011726e-02
    24    1.493050511382e-03
    25   -6.290858692337e-02
    26   -1.659989580678e-02
    27    3.633935966380e+00
    28    1.043830629240e-01
    29   -9.999450059780e-02
    30   -1.057522374008e-03
    31    2.327271773749e+00
    32   -2.409330959832e+00
    33   -3.363587293482e-02
    34   -5.301086328733e-02
    35    3.520671795963e-03
    36    4.253769390586e-03
    37    6.026128582562e-03
    38   -1.981196295942e-02
    39    7.850045792793e-02
    40    8.488292263511e-01
    41    1.287031707290e-02
    42    1.447632539435e-02
    43    1.491092998082e-03
    44    1.500128686721e-01
    45    5.429056748132e-01
    46   -1.645936678211e-02
    47   -7.451070260804e-03
    48   -1.240312047953e-03
Sym=X
Ene= 0.580291
Spin=Alpha
Occup=0
     1    2.521848611541e-01
     2   -5.798633173437e-02
     3   -2.383768035149e-02
     4    3.140293085669e-02
     5    7.525256347717e-04
     6   -6.456549094709e-03
     7   -1.714667420418e-01
     8   -4.231766447477e-01
     9    3.094278347235e-01
    10   -2.862667604857e-01
    11   -2.412768706422e-03
    12   -6.952304213807e-01
    13    7.669824582295e-01
    14    1.295703616458e-02
    15   -1.339717571336e-03
    16    4.424718927892e-03
    17    2.276918728607e-03
    18    1.319004871073e-02
    19    6.063523171603e-02
    20    2.218899452328e-01
    21    1.606059518134e-01
    22   -2.279194875330e-02
    23    1.942595671148e-02
    24    7.919601502655e-05
    25   -6.465571023470e-03
    26   -1.714706482224e-01
    27   -4.227596959308e-01
    28   -3.094138204536e-01
    29    2.862538989155e-01
    30    2.413532384528e-03
    31    6.954766457210e-01
    32   -7.673576307363e-01
    33   -1.297381140462e-02
    34   -1.339678206301e-03
    35    4.423788981360e-03
    36    2.277115453514e-03
    37    1.318039338272e-02
    38    6.063641506350e-02
    39    2.219249526607e-01
    40    1.608125197279e-01
    41    2.278849301457e-02
    42   -1.941762822312e-02
    43   -7.975359471489e-05
    44    2.521332365185e-01
    45   -5.791016002731e-02
    46    2.384907775324e-02
    47   -3.141289620522e-02
    48   -7.531551340218e-04
Sym=X
Ene= 0.609452
Spin=Alpha
Occup=0
     1   -5.307329368244e-01
     2    4.102423959505e-01
     3   -5.875609125559e-02
     4    3.998187896258e-02
     5   -4.051127258654e-04
     6    6.644912922611e-04
     7    3.503570819138e-02
     8    1.325744051223e-01
     9   -2.207443198715e-02
    10   -5.008117268199e-02
    11   -4.074749117568e-03
    12   -1.635458866330e-04
    13    5.417924313251e-01
    14    3.273534180372e-02
    15    2.508771052938e-03
    16   -8.164852184850e-03
    17    7.970204901500e-03
    18   -1.476069553114e-01
    19   -1.445452259239e-02
    20    5.042728719382e-01
    21   -4.620612100495e-02
    22    3.640837972336e-02
    23   -5.806891160573e-02
    24   -1.758683868643e-03
    25   -6.638468255712e-04
    26   -3.507896317394e-02
    27   -1.324304366763e-01
    28   -2.207744579404e-02
    29   -5.007747778935e-02
    30   -4.083214222811e-03
    31   -1.607867721056e-04
    32    5.418023672344e-01
    33    3.268427645195e-02
    34   -2.532490495857e-03
    35    8.160977173059e-03
    36   -7.971520942621e-03
    37    1.476128640046e-01
    38    1.447570859084e-02
    39   -5.042004811407e-01
    40    4.611328586254e-02
    41    3.640980335905e-02
    42   -5.806526688296e-02
    43   -1.761686307618e-03
    44    5.308637347845e-01
    45   -4.104167929329e-01
    46   -5.875987040656e-02
    47    3.997503237674e-02
    48   -4.055453618225e-04
Sym=X
Ene= 0.688055
Spin=Alpha
Occup=0
     1    4.559221255599e-05
     2    2.370881358551e-05
     3    4.540098762320e-04
     4    5.794391079681e-04
     5   -9.451518525827e-03
     6    2.425147778606e-06
     7   -8.025340210892e-06
     8    6.761680987058e-05
     9    3.217751178308e-02
    10    4.047510903223e-02
    11   -6.697989244261e-01
    12   -2.956099557056e-02
    13   -3.690220076035e-02
    14    6.128443631036e-01
    15   -2.053656864830e-03
    16    7.896486875855e-02
    17   -8.233988546106e-02
    18   -8.763944114502e-03
    19   -7.925103431137e-04
    20    4.518205747620e-05
    21    8.761637271967e-05
    22    1.387146753217e-03
    23    1.751045463238e-03
    24   -2.893430718497e-02
    25   -1.057369634679e-06
    26    3.256880212980e-05
    27   -8.562628379476e-05
    28    3.215929192914e-02
    29    4.044506225725e-02
    30   -6.698031128431e-01
    31   -2.953438634616e-02
    32   -3.686892144491e-02
    33    6.128530546969e-01
    34    2.044842150783e-03
    35   -7.896407131225e-02
    36    8.234293465226e-02
    37    8.772958509159e-03
    38    7.962423347645e-04
    39   -3.158633527359e-05
    40   -7.122547898251e-05
    41    1.384879777239e-03
    42    1.755268553735e-03
    43   -2.894634314321e-02
    44   -1.429780430166e-05
    45   -7.333143637681e-05
    46    4.453326550696e-04
    47    5.732496917853e-04
    48   -9.441934442314e-03
Sym=X
Ene= 0.704303
Spin=Alpha
Occup=0
     1   -5.417548138939e-01
     2    3.324820131841e-01
     3   -8.059171525158e-02
     4   -4.284272381129e-02
     5   -6.466548160204e-03
     6   -4.573093019773e-02
     7   -2.938456715600e-01
     8    4.640039927229e-01
     9    2.281591859897e-01
    10   -1.523842444758e-01
    11    1.737948769338e-03
    12   -1.610872062518e-01
    13   -5.321720709991e-02
    14   -1.101916565179e-02
    15    1.891850210459e-01
    16   -2.063748592519e-02
    17   -2.342741481068e-02
    18   -3.136480906817e-03
    19   -7.655084436034e-02
    20   -4.328485757172e-01
    21   -7.508966474227e-03
    22    4.168564868873e-02
    23    7.678244629168e-02
    24    6.636714993488e-03
    25   -4.572692822768e-02
    26   -2.938480218880e-01
    27    4.637328561054e-01
    28   -2.282044220559e-01
    29    1.523321786913e-01
    30   -1.775330527414e-03
    31    1.610336213169e-01
    32    5.361507591999e-02
    33    1.107353490165e-02
    34    1.891873613285e-01
    35   -2.062488091633e-02
    36   -2.341742915493e-02
    37   -3.123030278387e-03
    38   -7.653951224264e-02
    39   -4.328943095441e-01
    40   -7.777167499384e-03
    41   -4.167536843342e-02
    42   -7.678818498396e-02
    43   -6.634604325261e-03
    44   -5.417069468672e-01
    45    3.325599147332e-01
    46    8.058394676082e-02
    47    4.285296176004e-02
    48    6.462125295356e-03
Sym=X
Ene= 0.771702
Spin=Alpha
Occup=0
     1   -5.444434251171e-01
     2    7.121916321366e-01
     3   -1.199093727491e-01
     4   -3.898034392626e-02
     5   -8.117085201236e-03
     6   -8.673127133766e-02
     7    2.201680866210e-01
     8    5.912107131560e-01
     9   -1.192927103328e-03
    10    1.932488878088e-01
    11    1.157807248900e-02
    12   -4.975203486706e-01
    13    5.262329994001e-02
    14   -2.069930729461e-02
    15    1.932755257725e-01
    16   -1.806304971713e-02
    17   -1.918843904868e-02
    18   -2.701712900082e-02
    19   -9.687354592266e-03
    20   -5.156253195997e-01
    21    2.050304121385e-01
    22    1.015446232404e-02
    23    8.749859335017e-02
    24    5.772435536500e-03
    25    8.672971784418e-02
    26   -2.202096856011e-01
    27   -5.912609629232e-01
    28   -1.113797747248e-03
    29    1.933465695626e-01
    30    1.161703954640e-02
    31   -4.977165579135e-01
    32    5.233683603484e-02
    33   -2.077937681915e-02
    34   -1.932639854321e-01
    35    1.803867171261e-02
    36    1.917460369683e-02
    37    2.703102358182e-02
    38    9.680880086705e-03
    39    5.155605049371e-01
    40   -2.047363317089e-01
    41    1.015864839213e-02
    42    8.747757561976e-02
    43    5.768151206450e-03
    44    5.445159431344e-01
    45   -7.124270455103e-01
    46   -1.199207720216e-01
    47   -3.898160642135e-02
    48   -8.110454836067e-03
Sym=X
Ene= 0.806669
Spin=Alpha
Occup=0
     1   -1.091249281976e-05
     2   -1.915235626216e-05
     3   -1.105055059937e-03
     4   -1.396544414141e-03
     5    2.313302168407e-02
     6   -4.560473391072e-06
     7    3.701555209631e-05
     8   -1.645589989123e-05
     9   -3.670414526852e-02
    10   -4.611002878025e-02
    11    7.632910510519e-01
    12    5.404555687870e-02
    13    6.791323312123e-02
    14   -1.124194728975e+00
    15   -1.564637258635e-03
    16    6.202873635960e-02
    17   -6.432699040995e-02
    18   -6.856516729697e-03
    19   -6.427433749635e-04
    20   -1.952150307677e-05
    21    3.316709515018e-05
    22   -1.893440154803e-03
    23   -2.384565372246e-03
    24    3.949587590093e-02
    25    8.732886969474e-07
    26    2.682095210509e-05
    27   -1.043919638562e-05
    28    3.664488168011e-02
    29    4.609029648386e-02
    30   -7.632906912077e-01
    31   -5.398826428293e-02
    32   -6.785110169962e-02
    33    1.124197686657e+00
    34   -1.581997585415e-03
    35    6.202976827728e-02
    36   -6.432464768088e-02
    37   -6.872166261374e-03
    38   -6.486954472045e-04
    39    7.371135497493e-06
    40   -5.032427256194e-05
    41    1.894436003320e-03
    42    2.400669484782e-03
    43   -3.950390412176e-02
    44    1.427294641089e-05
    45   -4.421896927718e-06
    46    1.099183437360e-03
    47    1.401717339478e-03
    48   -2.312063539671e-02
Sym=X
Ene= 0.861718
Spin=Alpha
Occup=0
     1   -7.496530835325e-02
     2   -9.884312987309e-01
     3    1.194615589111e-01
     4    6.045700127557e-02
     5    9.384492866298e-03
     6   -2.398812500289e-02
     7    2.043044425213e-02
     8   -1.260153240183e-01
     9   -4.886336091490e-01
    10   -3.314738175614e-01
    11   -4.352900939412e-02
    12    1.018023843018e+00
    13    8.386568137700e-01
    14    9.964279219763e-02
    15    7.069920514099e-02
    16    7.392456340576e-03
    17   -1.901539544010e-02
    18    2.247097221747e-01
    19    4.188070535376e-02
    20   -8.963158366026e-02
    21    1.073077205273e+00
    22    3.928333899404e-02
    23    1.687448167140e-01
    24    1.209014560398e-02
    25    2.399539487040e-02
    26   -2.028142617500e-02
    27    1.258926944150e-01
    28   -4.886277975583e-01
    29   -3.314364883248e-01
    30   -4.345117473797e-02
    31    1.017962692632e+00
    32    8.385499320397e-01
    33    9.946177622008e-02
    34   -7.073579595206e-02
    35   -7.394392485690e-03
    36    1.901482667261e-02
    37   -2.246979504542e-01
    38   -4.187803418550e-02
    39    8.962321058201e-02
    40   -1.072943461444e+00
    41    3.926958201205e-02
    42    1.687364745984e-01
    43    1.208425278403e-02
    44    7.501486168988e-02
    45    9.883229460047e-01
    46    1.194486120295e-01
    47    6.045217574015e-02
    48    9.376827558467e-03
Sym=X
Ene= 0.922843
Spin=Alpha
Occup=0
     1    1.340617274492e-01
     2   -1.300077252475e+00
     3    1.950995052164e-01
     4    5.856676674549e-03
     5    9.731884161515e-03
     6   -8.676221953975e-03
     7   -3.318780674096e-01
     8    4.869817432561e-01
     9   -5.015709448627e-01
    10   -4.384512979978e-01
    11   -5.058757025277e-02
    12    1.409018253791e+00
    13    1.266637570534e+00
    14    1.442102962326e-01
    15    3.620488290207e-02
    16    3.712032982457e-03
    17   -9.235099077223e-03
    18    1.093491382756e-01
    19    2.455028179463e-02
    20   -1.488573514400e-01
    21    9.979624914493e-01
    22   -2.911990384661e-02
    23    1.472434222793e-01
    24    7.490092724746e-03
    25   -8.704721105480e-03
    26   -3.319355092635e-01
    27    4.866973888657e-01
    28    5.017627439076e-01
    29    4.382333459572e-01
    30    5.055818664681e-02
    31   -1.409453141036e+00
    32   -1.266039863063e+00
    33   -1.441262970369e-01
    34    3.628555766702e-02
    35    3.690699320385e-03
    36   -9.234020865533e-03
    37    1.093189835535e-01
    38    2.465611949204e-02
    39   -1.488982399140e-01
    40    9.976083081039e-01
    41    2.916203544737e-02
    42   -1.472228674763e-01
    43   -7.484224846438e-03
    44    1.339954318544e-01
    45   -1.300171589072e+00
    46   -1.950887538372e-01
    47   -5.884217224946e-03
    48   -9.717207226258e-03
Sym=X
Ene= 0.973925
Spin=Alpha
Occup=0
     1    5.028318628216e-02
     2   -6.956554662737e-01
     3    6.180147131267e-02
     4    9.317412505638e-02
     5    8.589446219829e-03
     6   -2.410022457513e-02
     7   -2.512652125950e-01
     8   -5.052289936402e-01
     9   -4.346697517931e-01
    10    4.955646845330e-01
    11    9.052273037427e-03
    12    1.319636026996e+00
    13   -1.554388071315e+00
    14   -3.047955737903e-02
    15    5.107167040441e-02
    16    1.054206813959e-02
    17    1.242361199626e-02
    18   -6.024376608733e-02
    19    2.920876847165e-01
    20    8.314752725076e-02
    21   -1.114178662857e+00
    22   -9.377887431416e-02
    23   -1.236596378828e-01
    24   -1.198583156601e-02
    25    2.409252169362e-02
    26    2.507538395760e-01
    27    5.061110335866e-01
    28   -4.344676035271e-01
    29    4.956414268288e-01
    30    9.080387367567e-03
    31    1.318944576822e+00
    32   -1.554793089752e+00
    33   -3.057479570675e-02
    34   -5.104927215227e-02
    35   -1.053971599254e-02
    36   -1.242650331409e-02
    37    6.027999058494e-02
    38   -2.920261454108e-01
    39   -8.313099114293e-02
    40    1.114334199110e+00
    41   -9.374888482281e-02
    42   -1.236632700984e-01
    43   -1.198554450336e-02
    44   -5.028639453633e-02
    45    6.949009525910e-01
    46    6.169457624077e-02
    47    9.314472298758e-02
    48    8.578114690898e-03
[5D]

======= END OF MOLDEN-FORMATTED INPUT FILE =======


        *************************************************************
        *                                                           *
        *  Thank you very much for using Q-Chem.  Have a nice day.  *
        *                                                           *
        *************************************************************


