                  Welcome to Q-Chem
     A Quantum Leap Into The Future Of Chemistry


 Q-Chem 5.4 (devel), Q-Chem, Inc., Pleasanton, CA (2021)

 E. Epifanovsky,  A. T. B. Gilbert,  Xintian Feng,  Joonho Lee,  Yuezhi Mao,  
 N. Mardirossian,  P. Pokhilko,  A. White,  M. Wormit,  M. P. Coons,  
 A. L. Dempwolff,  Zhengting Gan,  D. Hait,  P. R. Horn,  L. D. Jacobson,  
 I. Kaliman,  J. Kussmann,  A. W. Lange,  Ka Un Lao,  D. S. Levine,  Jie Liu,  
 S. C. McKenzie,  A. F. Morrison,  K. Nanda,  F. Plasser,  D. R. Rehn,  
 M. L. Vidal,  Zhi-Qiang You,  Ying Zhu,  B. Alam,  B. Albrecht,  
 A. Aldossary,  E. Alguire,  J. H. Andersen,  D. Barton,  K. Begam,  A. Behn,  
 Y. A. Bernard,  E. J. Berquist,  H. Burton,  A. Carreras,  K. Carter-Fenk,  
 R. Chakraborty,  A. D. Chien,  K. D. Closser,  V. Cofer-Shabica,  
 S. Dasgupta,  Jia Deng,  M. de Wergifosse,  M. Diedenhofen,  Hainam Do,  
 S. Ehlert,  Po-Tung Fang,  S. Fatehi,  Qingguo Feng,  T. Friedhoff,  
 J. Gayvert,  Qinghui Ge,  G. Gidofalvi,  M. Goldey,  J. Gomes,  
 C. Gonzalez-Espinoza,  S. Gulania,  A. Gunina,  M. W. D. Hanson-Heine,  
 P. H. P. Harbach,  A. W. Hauser,  M. F. Herbst,  M. Hernandez Vera,  
 M. Hodecker,  Z. C. Holden,  S. Houck,  Xunkun Huang,  Kerwin Hui,  
 B. C. Huynh,  M. Ivanov,  Hyunjun Ji,  Hanjie Jiang,  B. Kaduk,  S. Kaehler,  
 K. Khistyaev,  Jaehoon Kim,  P. Klunzinger,  Z. Koczor-Benda,  
 Joong Hoon Koh,  D. Kosenkov,  L. Koulias,  T. Kowalczyk,  C. M. Krauter,  
 K. Kue,  A. Kunitsa,  T. Kus,  A. Landau,  K. V. Lawler,  D. Lefrancois,  
 S. Lehtola,  Rain Li,  Yi-Pei Li,  Jiashu Liang,  M. Liebenthal,  
 Hung-Hsuan Lin,  You-Sheng Lin,  Fenglai Liu,  Kuan-Yu Liu,  
 M. Loipersberger,  A. Luenser,  A. Manjanath,  P. Manohar,  E. Mansoor,  
 S. F. Manzer,  Shan-Ping Mao,  A. V. Marenich,  T. Markovich,  S. Mason,  
 S. A. Maurer,  P. F. McLaughlin,  M. F. S. J. Menger,  J.-M. Mewes,  
 S. A. Mewes,  P. Morgante,  J. W. Mullinax,  K. J. Oosterbaan,  G. Paran,  
 Alexander C. Paul,  Suranjan K. Paul,  F. Pavosevic,  Zheng Pei,  S. Prager,  
 E. I. Proynov,  E. Ramos,  B. Rana,  A. E. Rask,  A. Rettig,  R. M. Richard,  
 F. Rob,  E. Rossomme,  T. Scheele,  M. Scheurer,  M. Schneider,  
 N. Sergueev,  S. M. Sharada,  W. Skomorowski,  D. W. Small,  C. J. Stein,  
 Yu-Chuan Su,  E. J. Sundstrom,  Zhen Tao,  J. Thirman,  T. Tsuchimochi,  
 N. M. Tubman,  S. P. Veccham,  O. Vydrov,  J. Wenzel,  J. Witte,  A. Yamada,  
 Kun Yao,  S. Yeganeh,  S. R. Yost,  A. Zech,  Igor Ying Zhang,  Xing Zhang,  
 Yu Zhang,  D. Zuev,  A. Aspuru-Guzik,  A. T. Bell,  N. A. Besley,  
 K. B. Bravaya,  B. R. Brooks,  D. Casanova,  Jeng-Da Chai,  S. Coriani,  
 C. J. Cramer,  A. E. DePrince, III,  R. A. DiStasio Jr.,  A. Dreuw,  
 B. D. Dunietz,  T. R. Furlani,  W. A. Goddard III,  S. Grimme,  
 S. Hammes-Schiffer,  T. Head-Gordon,  W. J. Hehre,  Chao-Ping Hsu,  
 T.-C. Jagau,  Yousung Jung,  A. Klamt,  Jing Kong,  D. S. Lambrecht,  
 WanZhen Liang,  N. J. Mayhall,  C. W. McCurdy,  J. B. Neaton,  
 C. Ochsenfeld,  J. A. Parkhill,  R. Peverati,  V. A. Rassolov,  Yihan Shao,  
 L. V. Slipchenko,  T. Stauch,  R. P. Steele,  J. E. Subotnik,  
 A. J. W. Thom,  A. Tkatchenko,  D. G. Truhlar,  T. Van Voorhis,  
 T. A. Wesolowski,  K. B. Whaley,  H. L. Woodcock III,  P. M. Zimmerman,  
 S. Faraji,  P. M. W. Gill,  M. Head-Gordon,  J. M. Herbert,  A. I. Krylov

 Additional authors for Version 5.4.1: 
 S. Kotaru,  Shaozhi Li,  Xiangyuan Li,  F. Matz,  A. Molle,  Haisheng Ren,  
 Yingli Su,  Hung-Yi Tsai,  C. Utku,  Fang Wang

 Contributors to earlier versions of Q-Chem not listed above: 
 R. D. Adamson,  B. Austin,  R. Baer,  J. Baker,  G. J. O. Beran,  
 K. Brandhorst,  S. T. Brown,  E. F. C. Byrd,  A. K. Chakraborty,  
 G. K. L. Chan,  Chun-Min Chang,  Yunqing Chen,  C.-L. Cheng,  
 Siu Hung Chien,  D. M. Chipman,  D. L. Crittenden,  H. Dachsel,  
 R. J. Doerksen,  A. D. Dutoi,  R. G. Edgar,  J. Fosso-Tande,  
 L. Fusti-Molnar,  D. Ghosh,  A. Ghysels,  A. Golubeva-Zadorozhnaya,  
 J. Gonthier,  M. S. Gordon,  S. R. Gwaltney,  G. Hawkins,  J. E. Herr,  
 A. Heyden,  S. Hirata,  E. G. Hohenstein,  G. Kedziora,  F. J. Keil,  
 C. Kelley,  Jihan Kim,  R. A. King,  R. Z. Khaliullin,  P. P. Korambath,  
 W. Kurlancheek,  A. Laurent,  A. M. Lee,  M. S. Lee,  S. V. Levchenko,  
 Ching Yeh Lin,  D. Liotard,  E. Livshits,  R. C. Lochan,  I. Lotan,  
 L. A. Martinez-Martinez,  P. E. Maslen,  N. Nair,  D. P. O'Neill,  
 D. Neuhauser,  E. Neuscamman,  C. M. Oana,  R. Olivares-Amaya,  R. Olson,  
 T. M. Perrine,  B. Peters,  P. A. Pieniazek,  A. Prociuk,  Y. M. Rhee,  
 J. Ritchie,  M. A. Rohrdanz,  E. Rosta,  N. J. Russ,  H. F. Schaefer III,  
 M. W. Schmidt,  N. E. Schultz,  S. Sharma,  N. Shenvi,  C. D. Sherrill,  
 A. C. Simmonett,  A. Sodt,  T. Stein,  D. Stuck,  K. S. Thanthiriwatte,  
 V. Vanovschi,  L. Vogt,  Tao Wang,  A. Warshel,  M. A. Watson,  
 C. F. Williams,  Q. Wu,  X. Xu,  Jun Yang,  W. Zhang,  Yan Zhao

 Please cite Q-Chem as follows:
 Y. Shao et al., Mol. Phys. 113, 184-215 (2015)
 DOI: 10.1080/00268976.2014.952696

 Q-Chem 5.4.1 for Intel X86 EM64T Linux

 Parts of Q-Chem use Armadillo 9.800.1 (Horizon Scraper).
 http://arma.sourceforge.net/

 Q-Chem begins on Mon Mar 20 18:11:30 2023  

 Host: cpu186.baobab
0

     Scratch files written to /scratch/fum/qchem69797//
 Processing $rem in /home/share/wesolowski/qc5.aug2021.FDE/config/preferences:
 Processing $rem in /home/fum/.qchemrc:

 Checking the input file for inconsistencies... 	...done.

--------------------------------------------------------------
User input:
--------------------------------------------------------------
$comment
generated from CCJob.Templates
$end

$rem
sym_ignore = true
method = adc(2)
ee_states = 10
basis = cc-pVDZ
mem_static = 1024
mem_total = 40000
adc_davidson_maxiter = 900
adc_davidson_conv = 6
adc_print = 3
adc_prop_es = true
adc_prop_es2es = true
adc_prop_tpa = true
molden_format = True
state_analysis = true
print_orbitals = 15
gen_scfman = false
fde_export_density = true
fde_details = 3
$end

$molecule
0 1
H -0.02325837559381229 -0.24546258590547415 0.08426874523079267
C -1.0835199467797219 -0.5205736953139021 0.06471177935749108
H -1.3031563006929352 -1.5929085922004818 -0.04336665862411751
C -2.0487061207857318 0.4000092783777054 0.015237799868806044
H -1.8223228878970534 1.4652456812899928 0.06953196404479864
H -3.102192435096175 0.11780031539498023 -0.058004548010112116                     
$end
--------------------------------------------------------------
 ----------------------------------------------------------------
             Standard Nuclear Orientation (Angstroms)
    I     Atom           X                Y                Z
 ----------------------------------------------------------------
    1      H      -0.0232583756    -0.2454625859     0.0842687452
    2      C      -1.0835199468    -0.5205736953     0.0647117794
    3      H      -1.3031563007    -1.5929085922    -0.0433666586
    4      C      -2.0487061208     0.4000092784     0.0152377999
    5      H      -1.8223228879     1.4652456813     0.0695319640
    6      H      -3.1021924351     0.1178003154    -0.0580045480
 ----------------------------------------------------------------
 Nuclear Repulsion Energy =          33.18968840 hartrees
 There are        8 alpha and        8 beta electrons
 Requested basis set is cc-pVDZ
 There are 24 shells and 48 basis functions
 Total memory of 40000 MB is distributed as follows: 
   MEM_STATIC is set to 1024 MB
   QALLOC/CCMAN JOB total memory use is  38976 MB
 Warning: actual memory use might exceed 40000 MB

 Total QAlloc Memory Limit  40000 MB
 Mega-Array Size      1001 MB
 MEM_STATIC part      1024 MB

                       Distance Matrix (Angstroms)
             H (  1)   C (  2)   H (  3)   C (  4)   H (  5)
   C (  2)  1.095547
   H (  3)  1.862804  1.099920
   C (  4)  2.126932  1.334730  2.128615
   H (  5)  2.482614  2.118804  3.103963  1.090379
   H (  6)  3.103552  2.120759  2.482593  1.093087  1.862778

 A cutoff of  1.0D-11 yielded    300 shell pairs
 There are      1220 function pairs (      1329 Cartesian)
 Smallest overlap matrix eigenvalue = 4.84E-03

 Scale SEOQF with 1.000000e-01/1.000000e-01/1.000000e+00

 Standard Electronic Orientation quadrupole field applied
 Nucleus-field energy     =     0.0000000022 hartrees
 Guess from superposition of atomic densities
 Warning:  Energy on first SCF cycle will be non-variational
 SAD guess density has 16.000000 electrons
 A restricted Hartree-Fock SCF calculation will be
 performed using Pulay DIIS extrapolation
 SCF converges when DIIS error is below 1.0E-08
 using 10 threads for integral computing
 -------------------------------------------------------
 OpenMP Integral computing Module                
 Release: version 1.0, May 2013, Q-Chem Inc. Pittsburgh 
 -------------------------------------------------------
 ---------------------------------------
  Cycle       Energy         DIIS Error
 ---------------------------------------
    1     -78.3943016938      9.91E-02
    2     -78.0170505093      7.12E-03
    3     -78.0374791255      1.82E-03
    4     -78.0389527859      5.61E-04
    5     -78.0390693218      5.86E-05
    6     -78.0390712072      9.82E-06
    7     -78.0390712726      3.17E-06
    8     -78.0390712768      1.10E-06
    9     -78.0390712774      2.03E-07
   10     -78.0390712774      6.24E-08
   11     -78.0390712774      7.90E-09 Convergence criterion met
 ---------------------------------------
 SCF time:  CPU 2.31 s  wall 3.28 s
 SCF   energy in the final basis set = -78.03907128
 Total energy in the final basis set = -78.03907128
Exporting Density Matrix to file 'Densmat_SCF.txt'.
Export successful
================================================================================
|                                                                              |
|                                 A D C  M A N                                 |
|                                                                              |
 ------------------------------------------------------------------------------ 
|                                                                              |
| Components:                                                                  |
|                                                                              |
| - libvmm - 1.3-trunk                                                         |
|   Authors:                                                                   |
|   Evgeny Epifanovsky, Ilya Kaliman                                           |
|                                                                              |
| - libtensor - 2.5-trunk                                                      |
|   Authors:                                                                   |
|   Evgeny Epifanovsky, Michael Wormit, Dmitry Zuev, Sam Manzer,               |
|   Ilya Kaliman                                                               |
|                                                                              |
| - libwfa - 1.1-trunk                                                         |
|   Authors:                                                                   |
|   Felix Plasser, Stefanie Mewes (Baeppler), Benjamin Thomitzni,              |
|   Michael Wormit, Feng Chen, Anna I. Krylov, Pavel Pokhilko                  |
|                                                                              |
| - libadc - 1.1-trunk                                                         |
|   Authors:                                                                   |
|   Michael Wormit, Adrian L. Dempwolff, Philipp H. P. Harbach,                |
|   Caroline Krauter, Dirk Rehn, Matthias Schneider, Jan Wenzel                |
|                                                                              |
| - adcman - 2.6-trunk                                                         |
|   Authors:                                                                   |
|   Michael Wormit, Adrian L. Dempwolff, Philipp H. P. Harbach,                |
|   Caroline Krauter, Daniel Lefrancois, Jan-Michael Mewes, Dirk Rehn,         |
|   Matthias Schneider, Jan Wenzel, Andreas Dreuw                              |
|                                                                              |
| Authors of earlier versions of ADCMAN:                                       |
| Andreas Dreuw, Jan Hendrik Starcke, Dirk Rehn, Michael Wormit                |
|                                                                              |
================================================================================

 Created directory /scratch/fum/qchem69797/plots
  Import QC data ...  CPU 0.00 s  wall 0.00 s

 Alpha MOs, Restricted
 -- Occupied --                  
-11.239 -11.237  -1.030  -0.786  -0.635  -0.582  -0.499  -0.374
  1 A     2 A     3 A     4 A     5 A     6 A     7 A     8 A                  
 -- Virtual --                   
  0.167   0.203   0.231   0.236   0.303   0.462   0.580   0.609
  9 A    10 A    11 A    12 A    13 A    14 A    15 A    16 A                  
  0.689   0.706   0.776   0.807   0.858   0.927   0.970   1.006
 17 A    18 A    19 A    20 A    21 A    22 A    23 A    24 A                  
  1.117   1.236   1.240   1.261   1.300   1.592   1.728   1.745
 25 A    26 A    27 A    28 A    29 A    30 A    31 A    32 A                  
  1.809   1.850   1.857   1.899   1.964   1.972   2.217   2.252
 33 A    34 A    35 A    36 A    37 A    38 A    39 A    40 A                  
  2.351   2.424   2.493   2.620   2.678   2.796   3.093   3.361
 41 A    42 A    43 A    44 A    45 A    46 A    47 A    48 A                  

 Beta MOs, Restricted
 -- Occupied --                  
-11.239 -11.237  -1.030  -0.786  -0.635  -0.582  -0.499  -0.374
  1 A     2 A     3 A     4 A     5 A     6 A     7 A     8 A                  
 -- Virtual --                   
  0.167   0.203   0.231   0.236   0.303   0.462   0.580   0.609
  9 A    10 A    11 A    12 A    13 A    14 A    15 A    16 A                  
  0.689   0.706   0.776   0.807   0.858   0.927   0.970   1.006
 17 A    18 A    19 A    20 A    21 A    22 A    23 A    24 A                  
  1.117   1.236   1.240   1.261   1.300   1.592   1.728   1.745
 25 A    26 A    27 A    28 A    29 A    30 A    31 A    32 A                  
  1.809   1.850   1.857   1.899   1.964   1.972   2.217   2.252
 33 A    34 A    35 A    36 A    37 A    38 A    39 A    40 A                  
  2.351   2.424   2.493   2.620   2.678   2.796   3.093   3.361
 41 A    42 A    43 A    44 A    45 A    46 A    47 A    48 A                  
  Import AO data ...  CPU 0.01 s  wall 0.02 s
  Using point group: C1
  Irreducible representations in point group: A
  Molecular orbitals: 
  Occupied MOs:
  Block   0:   1 (  A) A   2 (  A) A   3 (  A) A   4 (  A) A   5 (  A) A
                  -11.24      -11.24       -1.03     -0.7858     -0.6348
               6 (  A) A   7 (  A) A   8 (  A) A
                 -0.5819     -0.4994     -0.3742
  Block   1:   1 (  A) B   2 (  A) B   3 (  A) B   4 (  A) B   5 (  A) B
                  -11.24      -11.24       -1.03     -0.7858     -0.6348
               6 (  A) B   7 (  A) B   8 (  A) B
                 -0.5819     -0.4994     -0.3742
  Virtual MOs:
  Block   0:   9 (  A) A  10 (  A) A  11 (  A) A  12 (  A) A  13 (  A) A
                   0.167      0.2026       0.231      0.2364      0.3029
              14 (  A) A  15 (  A) A  16 (  A) A  17 (  A) A  18 (  A) A
                  0.4623        0.58      0.6087      0.6891      0.7057
              19 (  A) A  20 (  A) A  21 (  A) A  22 (  A) A
                  0.7758      0.8071      0.8583       0.927
  Block   1:  23 (  A) A  24 (  A) A  25 (  A) A  26 (  A) A  27 (  A) A
                  0.9696       1.006       1.117       1.236        1.24
              28 (  A) A  29 (  A) A  30 (  A) A  31 (  A) A  32 (  A) A
                   1.261         1.3       1.592       1.728       1.745
              33 (  A) A  34 (  A) A  35 (  A) A  36 (  A) A
                   1.809        1.85       1.857       1.899
  Block   2:  37 (  A) A  38 (  A) A  39 (  A) A  40 (  A) A  41 (  A) A
                   1.964       1.972       2.217       2.252       2.351
              42 (  A) A  43 (  A) A  44 (  A) A  45 (  A) A  46 (  A) A
                   2.424       2.493        2.62       2.678       2.796
              47 (  A) A  48 (  A) A
                   3.093       3.361
  Block   3:   9 (  A) B  10 (  A) B  11 (  A) B  12 (  A) B  13 (  A) B
                   0.167      0.2026       0.231      0.2364      0.3029
              14 (  A) B  15 (  A) B  16 (  A) B  17 (  A) B  18 (  A) B
                  0.4623        0.58      0.6087      0.6891      0.7057
              19 (  A) B  20 (  A) B  21 (  A) B  22 (  A) B
                  0.7758      0.8071      0.8583       0.927
  Block   4:  23 (  A) B  24 (  A) B  25 (  A) B  26 (  A) B  27 (  A) B
                  0.9696       1.006       1.117       1.236        1.24
              28 (  A) B  29 (  A) B  30 (  A) B  31 (  A) B  32 (  A) B
                   1.261         1.3       1.592       1.728       1.745
              33 (  A) B  34 (  A) B  35 (  A) B  36 (  A) B
                   1.809        1.85       1.857       1.899
  Block   5:  37 (  A) B  38 (  A) B  39 (  A) B  40 (  A) B  41 (  A) B
                   1.964       1.972       2.217       2.252       2.351
              42 (  A) B  43 (  A) B  44 (  A) B  45 (  A) B  46 (  A) B
                   2.424       2.493        2.62       2.678       2.796
              47 (  A) B  48 (  A) B
                   3.093       3.361
  Import MO data ...  CPU 0.05 s  wall 0.04 s
  Import HF data ...  CPU 0.54 s  wall 0.21 s
  Import 2e integrals ...  CPU 1.28 s  wall 0.24 s

--------------------------------------------------------------------------------
                                   HF Summary                                   
--------------------------------------------------------------------------------
  Energy:                                                  -78.0390712774 a.u.
  Dip. moment [a.u.]:                  [  -0.000022,    0.004256,   -0.029376]
  Total dipole [Debye]:                                               0.075447
  <r^2> [a.u.]:                        [ 176.482889,   35.348581,   11.770446]
  Total <r^2> [a.u.]:                                               223.601915
--------------------------------------------------------------------------------
  HF properties ...  CPU 0.03 s  wall 0.02 s
  MP(1) calculation ...  CPU 0.01 s  wall 0.01 s
  N^6 prerequesite intermediates ...  CPU 0.64 s  wall 0.11 s
  Difference density matrix of state mp2_gs printed to ASCII file 'State_mp2_gs_Difference.txt'
Exporting MP density matrix to file 'Densmat_MP.txt'.
Export successful
  Total density matrix of state mp2_gs printed to ASCII file 'State_mp2_gs_Total.txt'
Exporting MP density matrix to file 'Densmat_MP.txt'.
Export successful

--------------------------------------------------------------------------------
                                 MP(2) Summary                                  
--------------------------------------------------------------------------------
  MP energy contribution:                                   -0.2806684136 a.u.
  Total energy:                                            -78.3197396911 a.u.
  Dip. moment [a.u.]:                  [   0.000202,    0.003680,   -0.028967]
  Total dipole [Debye]:                                               0.074220
  <r^2> [a.u.]:                        [ 176.523810,   35.384180,   11.597181]
  Total <r^2> [a.u.]:                                               223.505171

  Density matrix analysis:
  ------------------------
  NOs
    Occupation of frontier NOs:
       0.0457   1.9378
    Number of electrons: 16.000000
    Number of unpaired electrons: n_u =  0.40801, n_u,nl =  0.04604
    NO participation ratio (PR_NO): 13.875332
  
  
  Mulliken Population Analysis
  Atom      Charge (e)              h+              e-           Del q
  --------------------------------------------------------------------
   1 H        0.055371        0.013914       -0.011357        0.002557
   2 C       -0.115382        0.095420       -0.100171       -0.004751
   3 H        0.056067        0.013883       -0.011361        0.002522
   4 C       -0.105762        0.094240       -0.099840       -0.005600
   5 H        0.054562        0.013953       -0.011298        0.002655
   6 H        0.055144        0.013920       -0.011304        0.002617
  --------------------------------------------------------------------
  Sum:        0.000000        0.245331       -0.245331        0.000000
  
  Multipole moment analysis of the density matrix
    Molecular charge:                      0.000000
    Number of electrons:                   16.000000
      Center of electronic charge [Ang]: [ -1.565275,  -0.061291,   0.034216]
    Total nuclear charge:                  16.000000
      Center of nuclear charge [Ang]:    [ -1.565268,  -0.061169,   0.033258]
    Dipole moment [D]:                     0.074220
      Cartesian components [D]:          [  0.000512,   0.009353,  -0.073627]
    RMS size of the density [Ang]:         1.206949
      Cartesian components [Ang]:        [  0.799623,   0.784557,   0.449222]
  
  Exciton analysis of the difference density matrix
    <r_h> [Ang]:                  [ -1.564099,  -0.063718,   0.038952]
    <r_e> [Ang]:                  [ -1.564582,  -0.062475,   0.038069]
    |<r_e - r_h>| [Ang]:            0.001599
    Hole size [Ang]:                1.402245
      Cartesian components [Ang]: [  0.852586,   0.840915,   0.729555]
    Electron size [Ang]:            1.361830
      Cartesian components [Ang]: [  0.878694,   0.864829,   0.578402]
--------------------------------------------------------------------------------
  MP(2) calculation ...  CPU 0.27 s  wall 0.23 s
  Start ADC(2)-s ...  CPU 0.02 s  wall 0.01 s
  ADC(2) intermediates ...  CPU 0.06 s  wall 0.02 s
  Starting Davidson for singlet states of irrep A ... 
--------------------------------------------------------------------------------
   It NVec Conv  Avg. Norm  Max. Norm  Conv. states           Remark
--------------------------------------------------------------------------------
        10    0  1.329e-01  4.685e-01  0.4114 n n n n n n n n Guess.
    1   20    0  2.921e-02  1.809e-01  0.3252 n n n n n n n n 
    2   30    0  6.753e-03  3.005e-02  0.3205 n n n n n n n n 
    3   40    0  2.737e-03  1.647e-02  0.3201 n n n n n n n n 
    4   50    0  1.180e-03  9.258e-03  0.3201 n n n n n n n n 
    5   20    0  8.363e-04  6.993e-03  0.3201 n n n n n n n n Subspace collapsed.
    6   30    0  1.084e-03  8.901e-03  0.3201 n n n n n n n n 
    7   40    0  7.792e-04  5.776e-03  0.3201 n n n n n n n n 
    8   50    0  3.552e-04  2.555e-03  0.3201 n n n n n n n n 
    9   20    0  1.909e-04  1.436e-03  0.3201 n n n n n n n n Subspace collapsed.
   10   30    1  1.293e-04  9.097e-04  0.3201 n y n n n n n n 
   11   40    3  6.143e-05  4.669e-04  0.3201 y y n y n n n n 
   12   50    5  2.392e-05  1.755e-04  0.3201 y y y y y n n n 
   13   20    5  1.925e-05  1.360e-04  0.3201 y y y y y n n n Subspace collapsed.
   14   30    6  1.680e-05  1.273e-04  0.3201 y y y y y y n n 
   15   40    6  1.705e-05  1.417e-04  0.3201 y y y y y y n n 
   16   50    6  8.660e-06  7.586e-05  0.3201 y y y y y y n n 
   17   20    6  4.991e-06  4.446e-05  0.3201 y y y y y y n n Subspace collapsed.
   18   30    6  2.952e-06  2.603e-05  0.3201 y y y y y y n n 
   19   40    6  1.570e-06  1.442e-05  0.3201 y y y y y y n n 
   20   50    7  1.686e-06  1.588e-05  0.3201 y y y y y y y n 
   21   20    8  8.937e-07  8.466e-06  0.3201 y y y y y y y n Subspace collapsed.
   22   30    8  1.295e-06  1.241e-05  0.3201 y y y y y y y n 
   23   40    8  1.042e-06  1.015e-05  0.3201 y y y y y y y n 
   24   50    8  8.489e-07  8.320e-06  0.3201 y y y y y y y n 
   25   11    8  8.436e-07  8.268e-06  0.3201 y y y y y y y n Subspace collapsed.
   26   19    9  5.084e-07  4.994e-06  0.3201 y y y y y y y y 
   27   27    9  3.555e-07  3.487e-06  0.3201 y y y y y y y y 
   28   33    9  2.168e-07  2.132e-06  0.3201 y y y y y y y y 
   29   39    9  2.029e-07  1.997e-06  0.3201 y y y y y y y y 
   30   45    9  2.482e-07  2.444e-06  0.3201 y y y y y y y y 
   31   50    9  1.531e-07  1.500e-06  0.3201 y y y y y y y y 
   32   15   10  7.839e-08  7.680e-07  0.3201 y y y y y y y y Converged.
--------------------------------------------------------------------------------
  Davidson Summary: 
 ------------------------------------------------------------
  State  0: excitation energy =   0.3201 a.u.   (converged)
  State  1: excitation energy =   0.3282 a.u.   (converged)
  State  2: excitation energy =   0.3359 a.u.   (converged)
  State  3: excitation energy =   0.3578 a.u.   (converged)
  State  4: excitation energy =   0.3729 a.u.   (converged)
  State  5: excitation energy =   0.3859 a.u.   (converged)
  State  6: excitation energy =   0.4200 a.u.   (converged)
  State  7: excitation energy =   0.4427 a.u.   (converged)
  State  8: excitation energy =   0.4533 a.u.   (converged)
  State  9: excitation energy =   0.4584 a.u.   (converged)
 ------------------------------------------------------------

  Singlet states of irrep A ...  CPU 207.18 s  wall 66.70 s
  TDMs ...  CPU 2.16 s  wall 0.79 s
  SDMs ...  CPU 3.98 s  wall 1.36 s
  Starting TPA DIIS iterations ... 
------------------------------------ 
   It     Res. Norm  Remark
------------------------------------
                       Guess.
    1     4.387e+00  
    2     5.830e+00  
    3     1.086e+00  
    4     2.662e-01  
    5     6.645e-02  
    6     2.813e-02  
    7     8.512e-03  
    8     1.639e-03  
    9     6.199e-04  
   10     1.023e-04  
   11     3.944e-05  
   12     6.924e-06  
   13     3.543e-06  
   14     1.116e-06  
   15     5.037e-07  Converged.
   ... Converged in 15 steps (norm: 5.03679e-07)
------------------------------------
  Starting TPA DIIS iterations ... 
------------------------------------ 
   It     Res. Norm  Remark
------------------------------------
                       Guess.
    1     4.212e+00  
    2     5.586e+00  
    3     1.043e+00  
    4     2.642e-01  
    5     6.622e-02  
    6     2.820e-02  
    7     8.380e-03  
    8     1.666e-03  
    9     6.314e-04  
   10     1.011e-04  
   11     4.003e-05  
   12     6.847e-06  
   13     3.656e-06  
   14     1.150e-06  
   15     5.177e-07  Converged.
   ... Converged in 15 steps (norm: 5.17656e-07)
------------------------------------
  Starting TPA DIIS iterations ... 
------------------------------------ 
   It     Res. Norm  Remark
------------------------------------
                       Guess.
    1     8.042e-01  
    2     7.169e-01  
    3     2.097e-01  
    4     1.334e-01  
    5     1.722e-02  
    6     6.329e-03  
    7     1.087e-03  
    8     4.643e-04  
    9     1.360e-04  
   10     2.400e-05  
   11     9.153e-06  
   12     2.592e-06  
   13     1.693e-06  
   14     7.887e-07  Converged.
   ... Converged in 14 steps (norm: 7.8868e-07)
------------------------------------
  Starting TPA DIIS iterations ... 
------------------------------------ 
   It     Res. Norm  Remark
------------------------------------
                       Guess.
    1     4.583e+00  
    2     6.182e+00  
    3     1.142e+00  
    4     2.864e-01  
    5     7.220e-02  
    6     3.077e-02  
    7     9.298e-03  
    8     1.797e-03  
    9     6.834e-04  
   10     1.126e-04  
   11     4.420e-05  
   12     7.828e-06  
   13     4.107e-06  
   14     1.314e-06  
   15     5.931e-07  Converged.
   ... Converged in 15 steps (norm: 5.93143e-07)
------------------------------------
  Starting TPA DIIS iterations ... 
------------------------------------ 
   It     Res. Norm  Remark
------------------------------------
                       Guess.
    1     4.400e+00  
    2     5.923e+00  
    3     1.096e+00  
    4     2.842e-01  
    5     7.195e-02  
    6     3.087e-02  
    7     9.155e-03  
    8     1.828e-03  
    9     6.965e-04  
   10     1.112e-04  
   11     4.485e-05  
   12     7.740e-06  
   13     4.245e-06  
   14     1.361e-06  
   15     6.103e-07  Converged.
   ... Converged in 15 steps (norm: 6.10328e-07)
------------------------------------
  Starting TPA DIIS iterations ... 
------------------------------------ 
   It     Res. Norm  Remark
------------------------------------
                       Guess.
    1     8.212e-01  
    2     7.486e-01  
    3     2.187e-01  
    4     1.394e-01  
    5     1.825e-02  
    6     6.785e-03  
    7     1.181e-03  
    8     5.188e-04  
    9     1.533e-04  
   10     2.562e-05  
   11     1.029e-05  
   12     2.922e-06  
   13     1.913e-06  
   14     8.721e-07  Converged.
   ... Converged in 14 steps (norm: 8.72081e-07)
------------------------------------
  Starting TPA DIIS iterations ... 
------------------------------------ 
   It     Res. Norm  Remark
------------------------------------
                       Guess.
    1     4.783e+00  
    2     6.545e+00  
    3     1.198e+00  
    4     3.077e-01  
    5     7.824e-02  
    6     3.357e-02  
    7     1.012e-02  
    8     1.963e-03  
    9     7.509e-04  
   10     1.233e-04  
   11     4.934e-05  
   12     8.810e-06  
   13     4.735e-06  
   14     1.540e-06  
   15     6.941e-07  Converged.
   ... Converged in 15 steps (norm: 6.94087e-07)
------------------------------------
  Starting TPA DIIS iterations ... 
------------------------------------ 
   It     Res. Norm  Remark
------------------------------------
                       Guess.
    1     4.591e+00  
    2     6.271e+00  
    3     1.151e+00  
    4     3.052e-01  
    5     7.797e-02  
    6     3.368e-02  
    7     9.970e-03  
    8     1.999e-03  
    9     7.658e-04  
   10     1.217e-04  
   11     5.005e-05  
   12     8.712e-06  
   13     4.903e-06  
   14     1.603e-06  
   15     7.149e-07  Converged.
   ... Converged in 15 steps (norm: 7.14935e-07)
------------------------------------
  Starting TPA DIIS iterations ... 
------------------------------------ 
   It     Res. Norm  Remark
------------------------------------
                       Guess.
    1     8.383e-01  
    2     7.811e-01  
    3     2.277e-01  
    4     1.454e-01  
    5     1.931e-02  
    6     7.263e-03  
    7     1.282e-03  
    8     5.775e-04  
    9     1.720e-04  
   10     2.707e-05  
   11     1.154e-05  
   12     3.286e-06  
   13     2.170e-06  
   14     9.587e-07  Converged.
   ... Converged in 14 steps (norm: 9.58721e-07)
------------------------------------
  Starting TPA DIIS iterations ... 
------------------------------------ 
   It     Res. Norm  Remark
------------------------------------
                       Guess.
    1     5.436e+00  
    2     7.765e+00  
    3     1.384e+00  
    4     3.815e-01  
    5     9.918e-02  
    6     4.337e-02  
    7     1.300e-02  
    8     2.552e-03  
    9     9.916e-04  
   10     1.610e-04  
   11     6.815e-05  
   12     1.246e-05  
   13     7.192e-06  
   14     2.464e-06  
   15     1.097e-06  
   16     4.130e-07  Converged.
   ... Converged in 16 steps (norm: 4.12995e-07)
------------------------------------
  Starting TPA DIIS iterations ... 
------------------------------------ 
   It     Res. Norm  Remark
------------------------------------
                       Guess.
    1     5.216e+00  
    2     7.438e+00  
    3     1.328e+00  
    4     3.778e-01  
    5     9.885e-02  
    6     4.358e-02  
    7     1.281e-02  
    8     2.607e-03  
    9     1.013e-03  
   10     1.586e-04  
   11     6.908e-05  
   12     1.234e-05  
   13     7.487e-06  
   14     2.600e-06  
   15     1.133e-06  
   16     4.105e-07  Converged.
   ... Converged in 16 steps (norm: 4.10488e-07)
------------------------------------
  Starting TPA DIIS iterations ... 
------------------------------------ 
   It     Res. Norm  Remark
------------------------------------
                       Guess.
    1     8.933e-01  
    2     8.897e-01  
    3     2.564e-01  
    4     1.646e-01  
    5     2.283e-02  
    6     8.915e-03  
    7     1.643e-03  
    8     7.860e-04  
    9     2.376e-04  
   10     3.143e-05  
   11     1.633e-05  
   12     4.681e-06  
   13     3.253e-06  
   14     1.343e-06  
   15     4.960e-07  Converged.
   ... Converged in 15 steps (norm: 4.95954e-07)
------------------------------------
  Starting TPA DIIS iterations ... 
------------------------------------ 
   It     Res. Norm  Remark
------------------------------------
                       Guess.
    1     5.979e+00  
    2     8.812e+00  
    3     1.536e+00  
    4     4.473e-01  
    5     1.178e-01  
    6     5.224e-02  
    7     1.556e-02  
    8     3.089e-03  
    9     1.214e-03  
   10     1.947e-04  
   11     8.599e-05  
   12     1.599e-05  
   13     9.711e-06  
   14     3.467e-06  
   15     1.524e-06  
   16     5.714e-07  Converged.
   ... Converged in 16 steps (norm: 5.71408e-07)
------------------------------------
  Starting TPA DIIS iterations ... 
------------------------------------ 
   It     Res. Norm  Remark
------------------------------------
                       Guess.
    1     5.735e+00  
    2     8.440e+00  
    3     1.474e+00  
    4     4.424e-01  
    5     1.175e-01  
    6     5.255e-02  
    7     1.534e-02  
    8     3.163e-03  
    9     1.241e-03  
   10     1.915e-04  
   11     8.711e-05  
   12     1.587e-05  
   13     1.015e-05  
   14     3.685e-06  
   15     1.576e-06  
   16     5.622e-07  Converged.
   ... Converged in 16 steps (norm: 5.62211e-07)
------------------------------------
  Starting TPA DIIS iterations ... 
------------------------------------ 
   It     Res. Norm  Remark
------------------------------------
                       Guess.
    1     9.379e-01  
    2     9.822e-01  
    3     2.791e-01  
    4     1.799e-01  
    5     2.583e-02  
    6     1.038e-02  
    7     1.982e-03  
    8     9.665e-04  
    9     2.945e-04  
   10     3.633e-05  
   11     2.117e-05  
   12     6.103e-06  
   13     4.418e-06  
   14     1.871e-06  
   15     9.806e-07  Converged.
   ... Converged in 15 steps (norm: 9.80551e-07)
------------------------------------
  Starting TPA DIIS iterations ... 
------------------------------------ 
   It     Res. Norm  Remark
------------------------------------
                       Guess.
    1     6.519e+00  
    2     9.881e+00  
    3     1.687e+00  
    4     5.165e-01  
    5     1.374e-01  
    6     6.166e-02  
    7     1.826e-02  
    8     3.667e-03  
    9     1.453e-03  
   10     2.301e-04  
   11     1.056e-04  
   12     1.996e-05  
   13     1.266e-05  
   14     4.693e-06  
   15     2.037e-06  
   16     7.519e-07  Converged.
   ... Converged in 16 steps (norm: 7.51871e-07)
------------------------------------
  Starting TPA DIIS iterations ... 
------------------------------------ 
   It     Res. Norm  Remark
------------------------------------
                       Guess.
    1     6.252e+00  
    2     9.464e+00  
    3     1.618e+00  
    4     5.104e-01  
    5     1.370e-01  
    6     6.209e-02  
    7     1.801e-02  
    8     3.763e-03  
    9     1.487e-03  
   10     2.260e-04  
   11     1.069e-04  
   12     1.987e-05  
   13     1.327e-05  
   14     5.017e-06  
   15     2.110e-06  
   16     7.328e-07  Converged.
   ... Converged in 16 steps (norm: 7.328e-07)
------------------------------------
  Starting TPA DIIS iterations ... 
------------------------------------ 
   It     Res. Norm  Remark
------------------------------------
                       Guess.
    1     9.818e-01  
    2     1.076e+00  
    3     3.008e-01  
    4     1.949e-01  
    5     2.887e-02  
    6     1.193e-02  
    7     2.352e-03  
    8     1.141e-03  
    9     3.513e-04  
   10     4.364e-05  
   11     2.681e-05  
   12     7.784e-06  
   13     5.765e-06  
   14     2.550e-06  
   15     1.647e-06  
   16     5.277e-07  Converged.
   ... Converged in 16 steps (norm: 5.2767e-07)
------------------------------------
  Starting TPA DIIS iterations ... 
------------------------------------ 
   It     Res. Norm  Remark
------------------------------------
                       Guess.
    1     8.378e+00  
    2     1.376e+01  
    3     2.198e+00  
    4     7.790e-01  
    5     2.119e-01  
    6     9.829e-02  
    7     2.854e-02  
    8     5.983e-03  
    9     2.413e-03  
   10     3.646e-04  
   11     1.845e-04  
   12     3.727e-05  
   13     2.598e-05  
   14     1.081e-05  
   15     4.630e-06  
   16     1.547e-06  
   17     7.903e-07  Converged.
   ... Converged in 17 steps (norm: 7.90306e-07)
------------------------------------
  Starting TPA DIIS iterations ... 
------------------------------------ 
   It     Res. Norm  Remark
------------------------------------
                       Guess.
    1     8.030e+00  
    2     1.318e+01  
    3     2.107e+00  
    4     7.675e-01  
    5     2.114e-01  
    6     9.923e-02  
    7     2.817e-02  
    8     6.181e-03  
    9     2.474e-03  
   10     3.571e-04  
   11     1.866e-04  
   12     3.775e-05  
   13     2.744e-05  
   14     1.166e-05  
   15     4.838e-06  
   16     1.487e-06  
   17     8.104e-07  Converged.
   ... Converged in 17 steps (norm: 8.10357e-07)
------------------------------------
  Starting TPA DIIS iterations ... 
------------------------------------ 
   It     Res. Norm  Remark
------------------------------------
                       Guess.
    1     1.131e+00  
    2     1.416e+00  
    3     3.704e-01  
    4     2.447e-01  
    5     3.979e-02  
    6     1.771e-02  
    7     3.849e-03  
    8     1.615e-03  
    9     5.391e-04  
   10     8.530e-05  
   11     5.284e-05  
   12     1.600e-05  
   13     1.117e-05  
   14     5.350e-06  
   15     4.002e-06  
   16     1.255e-06  
   17     7.047e-07  Converged.
   ... Converged in 17 steps (norm: 7.04704e-07)
------------------------------------
  Starting TPA DIIS iterations ... 
------------------------------------ 
   It     Res. Norm  Remark
------------------------------------
                       Guess.
    1     1.015e+01  
    2     1.771e+01  
    3     2.672e+00  
    4     1.056e+00  
    5     2.912e-01  
    6     1.383e-01  
    7     3.952e-02  
    8     8.652e-03  
    9     3.498e-03  
   10     5.069e-04  
   11     2.726e-04  
   12     5.976e-05  
   13     4.266e-05  
   14     1.937e-05  
   15     8.616e-06  
   16     2.663e-06  
   17     1.746e-06  
   18     3.972e-07  Converged.
   ... Converged in 18 steps (norm: 3.97169e-07)
------------------------------------
  Starting TPA DIIS iterations ... 
------------------------------------ 
   It     Res. Norm  Remark
------------------------------------
                       Guess.
    1     9.722e+00  
    2     1.696e+01  
    3     2.560e+00  
    4     1.038e+00  
    5     2.905e-01  
    6     1.399e-01  
    7     3.904e-02  
    8     8.985e-03  
    9     3.587e-03  
   10     4.963e-04  
   11     2.759e-04  
   12     6.175e-05  
   13     4.523e-05  
   14     2.093e-05  
   15     9.097e-06  
   16     2.603e-06  
   17     1.775e-06  
   18     4.148e-07  Converged.
   ... Converged in 18 steps (norm: 4.14805e-07)
------------------------------------
  Starting TPA DIIS iterations ... 
------------------------------------ 
   It     Res. Norm  Remark
------------------------------------
                       Guess.
    1     1.272e+00  
    2     1.760e+00  
    3     4.304e-01  
    4     2.901e-01  
    5     5.071e-02  
    6     2.354e-02  
    7     5.509e-03  
    8     1.867e-03  
    9     7.070e-04  
   10     1.375e-04  
   11     8.670e-05  
   12     2.775e-05  
   13     1.665e-05  
   14     7.834e-06  
   15     5.821e-06  
   16     2.124e-06  
   17     1.304e-06  
   18     2.938e-07  Converged.
   ... Converged in 18 steps (norm: 2.93787e-07)
------------------------------------
  Starting TPA DIIS iterations ... 
------------------------------------ 
   It     Res. Norm  Remark
------------------------------------
                       Guess.
    1     1.117e+01  
    2     2.011e+01  
    3     2.943e+00  
    4     1.226e+00  
    5     3.405e-01  
    6     1.637e-01  
    7     4.635e-02  
    8     1.041e-02  
    9     4.196e-03  
   10     5.952e-04  
   11     3.288e-04  
   12     7.598e-05  
   13     5.393e-05  
   14     2.546e-05  
   15     1.170e-05  
   16     3.552e-06  
   17     2.591e-06  
   18     7.750e-07  Converged.
   ... Converged in 18 steps (norm: 7.74967e-07)
------------------------------------
  Starting TPA DIIS iterations ... 
------------------------------------ 
   It     Res. Norm  Remark
------------------------------------
                       Guess.
    1     1.071e+01  
    2     1.925e+01  
    3     2.819e+00  
    4     1.204e+00  
    5     3.397e-01  
    6     1.657e-01  
    7     4.581e-02  
    8     1.084e-02  
    9     4.302e-03  
   10     5.831e-04  
   11     3.332e-04  
   12     7.934e-05  
   13     5.729e-05  
   14     2.752e-05  
   15     1.240e-05  
   16     3.522e-06  
   17     2.604e-06  
   18     7.816e-07  Converged.
   ... Converged in 18 steps (norm: 7.8159e-07)
------------------------------------
  Starting TPA DIIS iterations ... 
------------------------------------ 
   It     Res. Norm  Remark
------------------------------------
                       Guess.
    1     1.354e+00  
    2     1.969e+00  
    3     4.632e-01  
    4     3.159e-01  
    5     5.726e-02  
    6     2.692e-02  
    7     6.541e-03  
    8     1.959e-03  
    9     8.014e-04  
   10     1.704e-04  
   11     1.099e-04  
   12     3.637e-05  
   13     1.999e-05  
   14     9.026e-06  
   15     5.923e-06  
   16     2.602e-06  
   17     1.743e-06  
   18     3.891e-07  Converged.
   ... Converged in 18 steps (norm: 3.8908e-07)
------------------------------------
  Starting TPA DIIS iterations ... 
------------------------------------ 
   It     Res. Norm  Remark
------------------------------------
                       Guess.
    1     1.173e+01  
    2     2.144e+01  
    3     3.088e+00  
    4     1.320e+00  
    5     3.681e-01  
    6     1.780e-01  
    7     5.018e-02  
    8     1.143e-02  
    9     4.592e-03  
   10     6.445e-04  
   11     3.607e-04  
   12     8.580e-05  
   13     6.051e-05  
   14     2.909e-05  
   15     1.359e-05  
   16     4.122e-06  
   17     3.142e-06  
   18     1.088e-06  
   19     6.173e-07  Converged.
   ... Converged in 19 steps (norm: 6.17291e-07)
------------------------------------
  Starting TPA DIIS iterations ... 
------------------------------------ 
   It     Res. Norm  Remark
------------------------------------
                       Guess.
    1     1.124e+01  
    2     2.053e+01  
    3     2.957e+00  
    4     1.296e+00  
    5     3.672e-01  
    6     1.803e-01  
    7     4.961e-02  
    8     1.191e-02  
    9     4.708e-03  
   10     6.318e-04  
   11     3.659e-04  
   12     9.004e-05  
   13     6.435e-05  
   14     3.143e-05  
   15     1.443e-05  
   16     4.121e-06  
   17     3.137e-06  
   18     1.063e-06  
   19     6.097e-07  Converged.
   ... Converged in 19 steps (norm: 6.09737e-07)
------------------------------------
  Starting TPA DIIS iterations ... 
------------------------------------ 
   It     Res. Norm  Remark
------------------------------------
                       Guess.
    1     1.399e+00  
    2     2.085e+00  
    3     4.804e-01  
    4     3.296e-01  
    5     6.086e-02  
    6     2.871e-02  
    7     7.114e-03  
    8     2.000e-03  
    9     8.517e-04  
   10     1.886e-04  
   11     1.234e-04  
   12     4.156e-05  
   13     2.195e-05  
   14     9.836e-06  
   15     5.633e-06  
   16     2.636e-06  
   17     1.958e-06  
   18     4.496e-07  Converged.
   ... Converged in 18 steps (norm: 4.49569e-07)
------------------------------------
  Two-photon absorbption ...  CPU 165.18 s  wall 46.31 s
  Transition density matrix of state singlet_A_1 printed to ASCII file 'State_singlet_A_1_Transition.txt'
  Transition density matrix of state singlet_A_2 printed to ASCII file 'State_singlet_A_2_Transition.txt'
  Transition density matrix of state singlet_A_3 printed to ASCII file 'State_singlet_A_3_Transition.txt'
  Transition density matrix of state singlet_A_4 printed to ASCII file 'State_singlet_A_4_Transition.txt'
  Transition density matrix of state singlet_A_5 printed to ASCII file 'State_singlet_A_5_Transition.txt'
  Transition density matrix of state singlet_A_6 printed to ASCII file 'State_singlet_A_6_Transition.txt'
  Transition density matrix of state singlet_A_7 printed to ASCII file 'State_singlet_A_7_Transition.txt'
  Transition density matrix of state singlet_A_8 printed to ASCII file 'State_singlet_A_8_Transition.txt'
  Transition density matrix of state singlet_A_9 printed to ASCII file 'State_singlet_A_9_Transition.txt'
  Transition density matrix of state singlet_A_10 printed to ASCII file 'State_singlet_A_10_Transition.txt'
  Transition properties ...  CPU 0.39 s  wall 0.70 s
  Difference density matrix of state singlet_A_1 printed to ASCII file 'State_singlet_A_1_Difference.txt'
  Total density matrix of state singlet_A_1 printed to ASCII file 'State_singlet_A_1_Total.txt'
  Difference density matrix of state singlet_A_2 printed to ASCII file 'State_singlet_A_2_Difference.txt'
  Total density matrix of state singlet_A_2 printed to ASCII file 'State_singlet_A_2_Total.txt'
  Difference density matrix of state singlet_A_3 printed to ASCII file 'State_singlet_A_3_Difference.txt'
  Total density matrix of state singlet_A_3 printed to ASCII file 'State_singlet_A_3_Total.txt'
  Difference density matrix of state singlet_A_4 printed to ASCII file 'State_singlet_A_4_Difference.txt'
  Total density matrix of state singlet_A_4 printed to ASCII file 'State_singlet_A_4_Total.txt'
  Difference density matrix of state singlet_A_5 printed to ASCII file 'State_singlet_A_5_Difference.txt'
  Total density matrix of state singlet_A_5 printed to ASCII file 'State_singlet_A_5_Total.txt'
  Difference density matrix of state singlet_A_6 printed to ASCII file 'State_singlet_A_6_Difference.txt'
  Total density matrix of state singlet_A_6 printed to ASCII file 'State_singlet_A_6_Total.txt'
  Difference density matrix of state singlet_A_7 printed to ASCII file 'State_singlet_A_7_Difference.txt'
  Total density matrix of state singlet_A_7 printed to ASCII file 'State_singlet_A_7_Total.txt'
  Difference density matrix of state singlet_A_8 printed to ASCII file 'State_singlet_A_8_Difference.txt'
  Total density matrix of state singlet_A_8 printed to ASCII file 'State_singlet_A_8_Total.txt'
  Difference density matrix of state singlet_A_9 printed to ASCII file 'State_singlet_A_9_Difference.txt'
  Total density matrix of state singlet_A_9 printed to ASCII file 'State_singlet_A_9_Total.txt'
  Difference density matrix of state singlet_A_10 printed to ASCII file 'State_singlet_A_10_Difference.txt'
  Total density matrix of state singlet_A_10 printed to ASCII file 'State_singlet_A_10_Total.txt'
  Properties ...  CPU 0.65 s  wall 1.14 s
  ISR TDMS ...  CPU 29.82 s  wall 9.63 s
  ISR transition properties ...  CPU 0.48 s  wall 0.24 s
  Sum-over-states TPA ...  CPU 0.00 s  wall 0.00 s

--------------------------------------------------------------------------------
                   State-averaged natural transition orbitals
--------------------------------------------------------------------------------
--------------------------------------------------------------------------------
  SA-NTO decomposition ...  CPU 0.01 s  wall 0.04 s

--------------------------------------------------------------------------------
                             Excited State Summary
--------------------------------------------------------------------------------
--------------------------------------------------------------------------------

  Excited state 1 (singlet, A)                                     [converged]
  ----------------------------------------------------------------------------
  Term symbol:  2 (1) A                                     R^2 =  2.71226e-13

  Total energy:                                            -77.9996769885 a.u.
  Excitation energy:                                               8.709349 eV

  Osc. strength:                                                      0.441795
  Trans. dip. moment [a.u.]:           [  -1.039677,    0.993053,   -0.058533]
  <i|r^2|0> [a.u.]:                    [  -6.160263,    0.239290,    0.016473]
  Two-photon absorption cross-section (SoS) [a.u.]:                   0.034029
  Two-photon absorption matrix (SoS) [a.u.]:
                                       |    0.020079    0.009871   -0.028251 |
                                       |    0.009871    0.027397    0.033243 |
                                       |   -0.028251    0.033243    0.025815 |
  Two-photon absorption cross-section [a.u.]:                         0.065162
  Two-photon absorption matrix [a.u.]:
                                       |    0.027088    0.005573   -0.054287 |
                                       |    0.005573    0.032495    0.056113 |
                                       |   -0.054287    0.056113    0.006769 |

  Dip. moment [a.u.]:                  [  -0.007295,    0.011686,   -0.034649]
  Total dipole [Debye]:                                               0.094775
  <r^2> [a.u.]:                        [ 177.251141,   36.101078,   12.003486]
  Total <r^2> [a.u.]:                                               225.355705

  V1^2 = 0.9711, V2^2 = 0.0289

  Important amplitudes:
      occ i     occ j     vir a      vir b          v   
    -----------------------------------------------------
     8 (A) A              9 (A) A                -0.6803
     6 (A) A             14 (A) A                 0.0619
     4 (A) A             10 (A) A                 0.0607
     7 (A) A             16 (A) A                 0.0570
     5 (A) A             13 (A) A                 0.0526
     6 (A) A             23 (A) A                 0.0484
     8 (A) A             20 (A) A                 0.0345
     6 (A) A             19 (A) A                 0.0302
     3 (A) A             12 (A) A                -0.0283
     8 (A) A             10 (A) A                -0.0224
     5 (A) A             22 (A) A                -0.0217
     4 (A) A             24 (A) A                 0.0187
     7 (A) A             11 (A) A                -0.0186
     3 (A) A             26 (A) A                 0.0185
     8 (A) A   8 (A) B   17 (A) A   20 (A) B     -0.0183
     8 (A) A   8 (A) B    9 (A) A   28 (A) B     -0.0167
     6 (A) A             26 (A) A                 0.0161
     7 (A) A             21 (A) A                -0.0151
     6 (A) A              9 (A) A                 0.0149
     3 (A) A             14 (A) A                 0.0143
     6 (A) A             12 (A) A                 0.0135
     3 (A) A   4 (A) B    9 (A) A    9 (A) B     -0.0129
     3 (A) A             19 (A) A                 0.0121
     8 (A) A   8 (A) B   18 (A) A   19 (A) B     -0.0110
     7 (A) A             32 (A) A                -0.0095
     4 (A) A              9 (A) A                 0.0089
     7 (A) A             36 (A) A                 0.0084
     3 (A) A             23 (A) A                 0.0082
     8 (A) A   8 (A) B   25 (A) A   29 (A) B     -0.0065
     3 (A) A   6 (A) B    9 (A) A   28 (A) B     -0.0064
     6 (A) A             35 (A) A                -0.0064
     5 (A) A   8 (A) B   11 (A) A    9 (A) B     -0.0062
     6 (A) A             40 (A) A                -0.0061
     5 (A) A   7 (A) B    9 (A) A    9 (A) B      0.0060
     7 (A) A   8 (A) B   13 (A) A   20 (A) B      0.0060
     5 (A) A   8 (A) B   11 (A) A   20 (A) B     -0.0060
     6 (A) A   8 (A) A   19 (A) A   28 (A) A     -0.0059
     5 (A) A   8 (A) B   16 (A) A    9 (A) B     -0.0059
     7 (A) A   8 (A) B   22 (A) A   20 (A) B     -0.0057
     8 (A) A   8 (A) B   19 (A) A   30 (A) B     -0.0055
    -----------------------------------------------------

  Density matrix analysis:
  ------------------------
  NOs
    Occupation of frontier NOs:
       0.9496   1.0215
    Number of electrons: 16.000000
    Number of unpaired electrons: n_u =  2.31711, n_u,nl =  2.03332
    NO participation ratio (PR_NO):  2.872104
  
  
  Mulliken Population Analysis
  Atom      Charge (e)              h+              e-           Del q
  --------------------------------------------------------------------
   1 H        0.061051        0.020734       -0.015054        0.005680
   2 C       -0.128613        0.490807       -0.504038       -0.013232
   3 H        0.061646        0.020800       -0.015221        0.005579
   4 C       -0.119542        0.490579       -0.504359       -0.013780
   5 H        0.062421        0.020553       -0.012693        0.007860
   6 H        0.063037        0.020630       -0.012737        0.007893
  --------------------------------------------------------------------
  Sum:        0.000000        1.064102       -1.064102       -0.000000
  
  Multipole moment analysis of the density matrix
    Molecular charge:                      0.000000
    Number of electrons:                   16.000000
      Center of electronic charge [Ang]: [ -1.565027,  -0.061556,   0.034404]
    Total nuclear charge:                  16.000000
      Center of nuclear charge [Ang]:    [ -1.565268,  -0.061169,   0.033258]
    Dipole moment [D]:                     0.094775
      Cartesian components [D]:          [ -0.018541,   0.029703,  -0.088069]
    RMS size of the density [Ang]:         1.220592
      Cartesian components [Ang]:        [  0.808024,   0.792492,   0.457054]
  
  Exciton analysis of the difference density matrix
    <r_h> [Ang]:                  [ -1.565686,  -0.061873,   0.048437]
    <r_e> [Ang]:                  [ -1.561958,  -0.065854,   0.051262]
    |<r_e - r_h>| [Ang]:            0.006143
    Hole size [Ang]:                1.288721
      Cartesian components [Ang]: [  0.731021,   0.716284,   0.783164]
    Electron size [Ang]:            1.469236
      Cartesian components [Ang]: [  0.858752,   0.837385,   0.848520]

  Transition density matrix analysis:
  -----------------------------------
  
  CT numbers (Mulliken)
    omega =     0.9529
    <Phe> =    -0.1602
  
  Exciton analysis of the transition density matrix
    Trans. dipole moment [D]:             1.828692
      Cartesian components [D]:         [ -1.321297,   1.262044,  -0.074388]
    <r_h> [Ang]:                        [ -1.566386,  -0.060729,   0.045724]
    <r_e> [Ang]:                        [ -1.561896,  -0.066201,   0.053730]
    |<r_e - r_h>| [Ang]:                  0.010686
    Hole size [Ang]:                      1.215144
      Cartesian components [Ang]:       [  0.650498,   0.637573,   0.804318]
    Electron size [Ang]:                  1.492727
      Cartesian components [Ang]:       [  0.869406,   0.846690,   0.869184]
    RMS electron-hole separation [Ang]:   1.942507
      Cartesian components [Ang]:       [  1.110329,   1.081814,   1.170547]
    Covariance(r_h, r_e) [Ang^2]:        -0.034205
    Correlation coefficient:             -0.018857
    Center-of-mass size [Ang]:            0.953467
      Cartesian components [Ang]:       [  0.530382,   0.518767,   0.598895]

  Decomposition into state-averaged NTOs
    H- 0 -> L+ 0:  0.6681 ( 89.3%)
    H- 2 -> L+ 5: -0.0829 (  1.4%)
                   omega =  95.3%
  ----------------------------------------------------------------------------


  Excited state 2 (singlet, A)                                     [converged]
  ----------------------------------------------------------------------------
  Term symbol:  3 (1) A                                     R^2 =  3.81661e-13

  Total energy:                                            -77.9915611686 a.u.
  Excitation energy:                                               8.930192 eV

  Osc. strength:                                                      0.000121
  Trans. dip. moment [a.u.]:           [  -0.017807,   -0.012692,   -0.008616]
  <i|r^2|0> [a.u.]:                    [   0.063108,   -0.035300,   -0.134987]
  Two-photon absorption cross-section (SoS) [a.u.]:                   4.429796
  Two-photon absorption matrix (SoS) [a.u.]:
                                       |    0.182801    0.059223   -0.489568 |
                                       |    0.059223   -0.092160   -0.533147 |
                                       |   -0.489568   -0.533147   -0.102968 |
  Two-photon absorption cross-section [a.u.]:                         1.474680
  Two-photon absorption matrix [a.u.]:
                                       |    0.382376    0.010975    0.125606 |
                                       |    0.010975   -0.412287    0.100535 |
                                       |    0.125606    0.100535    0.020633 |

  Dip. moment [a.u.]:                  [   0.031467,   -0.014240,   -0.064834]
  Total dipole [Debye]:                                               0.186718
  <r^2> [a.u.]:                        [ 175.783991,   34.382672,   13.322448]
  Total <r^2> [a.u.]:                                               223.489111

  V1^2 = 0.9540, V2^2 = 0.0460

  Important amplitudes:
      occ i     occ j     vir a      vir b          v   
    -----------------------------------------------------
     7 (A) A              9 (A) A                -0.6689
     8 (A) A             11 (A) A                -0.1472
     7 (A) A             20 (A) A                 0.0754
     5 (A) A   8 (A) B    9 (A) A    9 (A) B      0.0315
     8 (A) A             16 (A) A                -0.0276
     7 (A) A             10 (A) A                 0.0191
     8 (A) A             21 (A) A                -0.0173
     5 (A) A             28 (A) A                -0.0150
     4 (A) A   7 (A) B    9 (A) A   19 (A) B      0.0135
     5 (A) A   7 (A) B    9 (A) A   16 (A) B      0.0134
     8 (A) A             10 (A) A                 0.0128
     7 (A) A             12 (A) A                -0.0108
     7 (A) A   8 (A) B   20 (A) A   17 (A) B     -0.0105
     7 (A) A   8 (A) A    9 (A) A   28 (A) A      0.0098
     5 (A) A   8 (A) B    9 (A) A   20 (A) B     -0.0094
     4 (A) A   6 (A) B    9 (A) A   16 (A) B      0.0091
     5 (A) A   6 (A) A    9 (A) A   23 (A) A      0.0090
     5 (A) A   6 (A) A    9 (A) A   14 (A) A      0.0089
     5 (A) A   6 (A) B    9 (A) A   19 (A) B      0.0086
     8 (A) A   7 (A) B    9 (A) A   28 (A) B     -0.0085
     4 (A) A   5 (A) A    9 (A) A   10 (A) A     -0.0085
     6 (A) A   7 (A) B    9 (A) A   18 (A) B      0.0085
     5 (A) A   6 (A) B    9 (A) A   23 (A) B      0.0080
     3 (A) A   7 (A) B    9 (A) A   18 (A) B     -0.0080
     5 (A) A   7 (A) A    9 (A) A   16 (A) A      0.0078
     4 (A) A   7 (A) B   19 (A) A    9 (A) B      0.0075
     7 (A) A   8 (A) B   17 (A) A   20 (A) B     -0.0074
     4 (A) A   8 (A) B    9 (A) A   25 (A) B     -0.0073
     5 (A) A   5 (A) B    9 (A) A   13 (A) B      0.0073
     7 (A) A   8 (A) B   19 (A) A   18 (A) B     -0.0070
     4 (A) A   5 (A) B    9 (A) A   18 (A) B      0.0069
     5 (A) A   8 (A) A    9 (A) A   20 (A) A     -0.0068
     7 (A) A   7 (A) B   20 (A) A   22 (A) B     -0.0066
     7 (A) A   8 (A) B   17 (A) A    9 (A) B      0.0065
     5 (A) A   6 (A) B    9 (A) A   14 (A) B      0.0063
     5 (A) A   7 (A) B   11 (A) A   20 (A) B     -0.0061
     4 (A) A   5 (A) B   10 (A) A    9 (A) B      0.0061
     4 (A) A   7 (A) A    9 (A) A   19 (A) A      0.0061
     5 (A) A             38 (A) A                 0.0059
     4 (A) A   6 (A) B   16 (A) A    9 (A) B      0.0058
    -----------------------------------------------------

  Density matrix analysis:
  ------------------------
  NOs
    Occupation of frontier NOs:
       0.9583   1.0531
    Number of electrons: 16.000000
    Number of unpaired electrons: n_u =  2.35883, n_u,nl =  2.06346
    NO participation ratio (PR_NO):  3.033177
  
  
  Mulliken Population Analysis
  Atom      Charge (e)              h+              e-           Del q
  --------------------------------------------------------------------
   1 H        0.159482        0.126598       -0.022487        0.104111
   2 C       -0.314625        0.277852       -0.477095       -0.199243
   3 H        0.159119        0.129769       -0.026717        0.103052
   4 C       -0.308966        0.267757       -0.470961       -0.203204
   5 H        0.153840        0.121794       -0.022516        0.099278
   6 H        0.151149        0.122426       -0.026421        0.096005
  --------------------------------------------------------------------
  Sum:        0.000000        1.046197       -1.046197       -0.000000
  
  Multipole moment analysis of the density matrix
    Molecular charge:                      0.000000
    Number of electrons:                   16.000000
      Center of electronic charge [Ang]: [ -1.566309,  -0.060699,   0.035402]
    Total nuclear charge:                  16.000000
      Center of nuclear charge [Ang]:    [ -1.565268,  -0.061169,   0.033258]
    Dipole moment [D]:                     0.186718
      Cartesian components [D]:          [  0.079982,  -0.036194,  -0.164792]
    RMS size of the density [Ang]:         1.205486
      Cartesian components [Ang]:        [  0.789437,   0.773352,   0.481574]
  
  Exciton analysis of the difference density matrix
    <r_h> [Ang]:                  [ -1.552642,  -0.079088,   0.029790]
    <r_e> [Ang]:                  [ -1.568456,  -0.070024,   0.047932]
    |<r_e - r_h>| [Ang]:            0.025717
    Hole size [Ang]:                1.496356
      Cartesian components [Ang]: [  1.011639,   1.004448,   0.454700]
    Electron size [Ang]:            1.478298
      Cartesian components [Ang]: [  0.880927,   0.861510,   0.816782]

  Transition density matrix analysis:
  -----------------------------------
  
  CT numbers (Mulliken)
    omega =     0.9212
    <Phe> =    -0.0117
  
  Exciton analysis of the transition density matrix
    Trans. dipole moment [D]:             0.029869
      Cartesian components [D]:         [ -0.022630,  -0.016130,  -0.010950]
    <r_h> [Ang]:                        [ -1.550046,  -0.081617,   0.025665]
    <r_e> [Ang]:                        [ -1.570766,  -0.068501,   0.052339]
    |<r_e - r_h>| [Ang]:                  0.036233
    Hole size [Ang]:                      1.527831
      Cartesian components [Ang]:       [  1.036671,   1.029884,   0.446006]
    Electron size [Ang]:                  1.473513
      Cartesian components [Ang]:       [  0.869352,   0.849430,   0.833027]
    RMS electron-hole separation [Ang]:   2.102982
      Cartesian components [Ang]:       [  1.337010,   1.320109,   0.944589]
    Covariance(r_h, r_e) [Ang^2]:         0.042144
    Correlation coefficient:              0.018720
    Center-of-mass size [Ang]:            1.071190
      Cartesian components [Ang]:       [  0.684425,   0.674883,   0.472804]

  Decomposition into state-averaged NTOs
    H- 1 -> L+ 0:  0.6615 ( 87.5%)
    H- 0 -> L+ 2: -0.1473 (  4.3%)
                   omega =  92.1%
  ----------------------------------------------------------------------------


  Excited state 3 (singlet, A)                                     [converged]
  ----------------------------------------------------------------------------
  Term symbol:  4 (1) A                                     R^2 =  3.75200e-13

  Total energy:                                            -77.9838623947 a.u.
  Excitation energy:                                               9.139686 eV

  Osc. strength:                                                      0.026432
  Trans. dip. moment [a.u.]:           [   0.052233,   -0.081327,    0.329700]
  <i|r^2|0> [a.u.]:                    [   0.291869,   -0.041331,   -0.033090]
  Two-photon absorption cross-section (SoS) [a.u.]:                   0.580789
  Two-photon absorption matrix (SoS) [a.u.]:
                                       |    0.045045   -0.020501    0.001395 |
                                       |   -0.020501    0.059186    0.029909 |
                                       |    0.001395    0.029909    0.263485 |
  Two-photon absorption cross-section [a.u.]:                         0.729729
  Two-photon absorption matrix [a.u.]:
                                       |    0.143352   -0.060657    0.008526 |
                                       |   -0.060657    0.150772    0.031867 |
                                       |    0.008526    0.031867    0.161161 |

  Dip. moment [a.u.]:                  [   0.019332,    0.056846,    0.041722]
  Total dipole [Debye]:                                               0.185843
  <r^2> [a.u.]:                        [ 182.117375,   41.051020,   11.141716]
  Total <r^2> [a.u.]:                                               234.310111

  V1^2 = 0.9581, V2^2 = 0.0419

  Important amplitudes:
      occ i     occ j     vir a      vir b          v   
    -----------------------------------------------------
     8 (A) A             10 (A) A                -0.6882
     8 (A) A             24 (A) A                -0.0506
     8 (A) A             18 (A) A                 0.0331
     4 (A) A              9 (A) A                 0.0240
     8 (A) A   8 (A) B    9 (A) A   12 (A) B     -0.0221
     8 (A) A              9 (A) A                 0.0216
     8 (A) A   8 (A) B   10 (A) A   17 (A) B     -0.0171
     5 (A) A   8 (A) B   11 (A) A   10 (A) B     -0.0169
     8 (A) A             15 (A) A                 0.0149
     7 (A) A   8 (A) B   13 (A) A   10 (A) B      0.0143
     7 (A) A              9 (A) A                -0.0140
     4 (A) A   8 (A) B   12 (A) A   10 (A) B      0.0112
     6 (A) A   8 (A) A   10 (A) A   15 (A) A     -0.0111
     6 (A) A   8 (A) B   15 (A) A   10 (A) B      0.0109
     7 (A) A   8 (A) B   22 (A) A   10 (A) B     -0.0108
     4 (A) A   8 (A) A   10 (A) A   12 (A) A     -0.0108
     7 (A) A   8 (A) A   10 (A) A   22 (A) A      0.0099
     7 (A) A   8 (A) A   10 (A) A   13 (A) A     -0.0098
     5 (A) A   8 (A) A   10 (A) A   11 (A) A      0.0097
     5 (A) A   8 (A) B   21 (A) A   10 (A) B     -0.0093
     6 (A) A   8 (A) B   10 (A) A   10 (A) B      0.0089
     6 (A) A   8 (A) A   10 (A) A   18 (A) A      0.0085
     7 (A) A   8 (A) A   12 (A) A   16 (A) A      0.0083
     3 (A) A   4 (A) B   10 (A) A    9 (A) B     -0.0079
     5 (A) A   8 (A) A   10 (A) A   21 (A) A      0.0079
     8 (A) A   8 (A) B    9 (A) A   23 (A) B     -0.0075
     4 (A) A   8 (A) B   19 (A) A   10 (A) B     -0.0075
     8 (A) A   8 (A) B   10 (A) A   28 (A) B     -0.0073
     5 (A) A   8 (A) B   10 (A) A   11 (A) B     -0.0072
     7 (A) A   8 (A) B   16 (A) A   12 (A) B     -0.0072
     3 (A) A   8 (A) A   10 (A) A   24 (A) A      0.0071
     3 (A) A   8 (A) B   10 (A) A   10 (A) B     -0.0070
     8 (A) A   8 (A) B    9 (A) A   19 (A) B      0.0068
     3 (A) A   8 (A) B   10 (A) A   18 (A) B      0.0067
     6 (A) A   8 (A) B   18 (A) A   10 (A) B     -0.0065
     3 (A) A   6 (A) B   10 (A) A   28 (A) B     -0.0062
     7 (A) A   8 (A) B   12 (A) A   11 (A) B     -0.0059
     4 (A) A             10 (A) A                -0.0057
     6 (A) A             28 (A) A                 0.0057
     5 (A) A   8 (A) A   10 (A) A   16 (A) A      0.0057
    -----------------------------------------------------

  Density matrix analysis:
  ------------------------
  NOs
    Occupation of frontier NOs:
       0.9815   0.9844
    Number of electrons: 16.000000
    Number of unpaired electrons: n_u =  2.29003, n_u,nl =  2.02532
    NO participation ratio (PR_NO):  2.704358
  
  
  Mulliken Population Analysis
  Atom      Charge (e)              h+              e-           Del q
  --------------------------------------------------------------------
   1 H       -0.148831        0.054603       -0.258805       -0.204202
   2 C        0.303991        0.538317       -0.118944        0.419372
   3 H       -0.161287        0.054277       -0.271631       -0.217354
   4 C        0.310617        0.536113       -0.119735        0.416379
   5 H       -0.146223        0.054243       -0.255028       -0.200785
   6 H       -0.158266        0.053896       -0.267306       -0.213410
  --------------------------------------------------------------------
  Sum:        0.000000        1.291449       -1.291449        0.000000
  
  Multipole moment analysis of the density matrix
    Molecular charge:                      -0.000000
    Number of electrons:                   16.000000
      Center of electronic charge [Ang]: [ -1.565907,  -0.063050,   0.031878]
    Total nuclear charge:                  16.000000
      Center of nuclear charge [Ang]:    [ -1.565268,  -0.061169,   0.033258]
    Dipole moment [D]:                     0.185843
      Cartesian components [D]:          [  0.049138,   0.144488,   0.106048]
    RMS size of the density [Ang]:         1.282103
      Cartesian components [Ang]:        [  0.857504,   0.845276,   0.440436]
  
  Exciton analysis of the difference density matrix
    <r_h> [Ang]:                  [ -1.564597,  -0.063290,   0.042072]
    <r_e> [Ang]:                  [ -1.572436,  -0.085075,   0.013107]
    |<r_e - r_h>| [Ang]:            0.037081
    Hole size [Ang]:                1.413134
      Cartesian components [Ang]: [  0.835864,   0.823120,   0.787879]
    Electron size [Ang]:            2.076918
      Cartesian components [Ang]: [  1.373662,   1.379511,   0.723596]

  Transition density matrix analysis:
  -----------------------------------
  
  CT numbers (Mulliken)
    omega =     0.9250
    <Phe> =    -0.0116
  
  Exciton analysis of the transition density matrix
    Trans. dipole moment [D]:             0.436641
      Cartesian components [D]:         [  0.066381,  -0.103356,   0.419007]
    <r_h> [Ang]:                        [ -1.565022,  -0.060914,   0.050095]
    <r_e> [Ang]:                        [ -1.575183,  -0.092925,   0.005218]
    |<r_e - r_h>| [Ang]:                  0.056053
    Hole size [Ang]:                      1.213784
      Cartesian components [Ang]:       [  0.636075,   0.624976,   0.823460]
    Electron size [Ang]:                  2.297188
      Cartesian components [Ang]:       [  1.518399,   1.527182,   0.799532]
    RMS electron-hole separation [Ang]:   2.588727
      Cartesian components [Ang]:       [  1.638757,   1.643281,   1.147001]
    Covariance(r_h, r_e) [Ang^2]:         0.025989
    Correlation coefficient:              0.009321
    Center-of-mass size [Ang]:            1.304063
      Cartesian components [Ang]:       [  0.826866,   0.828615,   0.574691]

  Decomposition into state-averaged NTOs
    H- 0 -> L+ 1: -0.6777 ( 91.9%)
                   omega =  92.5%
  ----------------------------------------------------------------------------


  Excited state 4 (singlet, A)                                     [converged]
  ----------------------------------------------------------------------------
  Term symbol:  5 (1) A                                     R^2 =  4.51024e-13

  Total energy:                                            -77.9619781056 a.u.
  Excitation energy:                                               9.735188 eV

  Osc. strength:                                                      0.000020
  Trans. dip. moment [a.u.]:           [   0.001820,    0.001923,    0.008651]
  <i|r^2|0> [a.u.]:                    [   0.041072,   -0.001581,   -0.030034]
  Two-photon absorption cross-section (SoS) [a.u.]:                 136.830363
  Two-photon absorption matrix (SoS) [a.u.]:
                                       |    0.763388    0.308569   -2.770970 |
                                       |    0.308569   -0.209614   -2.977157 |
                                       |   -2.770970   -2.977157   -0.554061 |
  Two-photon absorption cross-section [a.u.]:                        84.325889
  Two-photon absorption matrix [a.u.]:
                                       |    0.921670    0.252814   -2.117521 |
                                       |    0.252814   -0.490934   -2.314331 |
                                       |   -2.117521   -2.314331   -0.427900 |

  Dip. moment [a.u.]:                  [  -0.065025,   -0.044795,    0.034943]
  Total dipole [Debye]:                                               0.219473
  <r^2> [a.u.]:                        [ 181.759536,   41.097232,   10.851458]
  Total <r^2> [a.u.]:                                               233.708226

  V1^2 = 0.9633, V2^2 = 0.0367

  Important amplitudes:
      occ i     occ j     vir a      vir b          v   
    -----------------------------------------------------
     8 (A) A             11 (A) A                -0.6696
     7 (A) A              9 (A) A                 0.1492
     8 (A) A             21 (A) A                -0.0780
     8 (A) A             16 (A) A                -0.0675
     8 (A) A   8 (A) B    9 (A) A   13 (A) B      0.0168
     5 (A) A   8 (A) B   11 (A) A   11 (A) B     -0.0157
     8 (A) A   8 (A) B   11 (A) A   17 (A) B     -0.0136
     7 (A) A             20 (A) A                -0.0135
     7 (A) A   8 (A) B   13 (A) A   11 (A) B      0.0127
     4 (A) A   8 (A) B   12 (A) A   11 (A) B      0.0110
     8 (A) A   8 (A) B    9 (A) A   22 (A) B     -0.0110
     5 (A) A   8 (A) A   11 (A) A   21 (A) A      0.0109
     7 (A) A   8 (A) A   11 (A) A   22 (A) A      0.0095
     6 (A) A   8 (A) B   10 (A) A   11 (A) B      0.0091
     6 (A) A   8 (A) B   15 (A) A   11 (A) B      0.0089
     7 (A) A   8 (A) B   22 (A) A   11 (A) B     -0.0088
     3 (A) A   4 (A) B   11 (A) A    9 (A) B     -0.0083
     3 (A) A   8 (A) B   11 (A) A   18 (A) B      0.0079
     6 (A) A   8 (A) A   11 (A) A   15 (A) A     -0.0079
     7 (A) A   8 (A) A   13 (A) A   16 (A) A     -0.0079
     7 (A) A   8 (A) A   11 (A) A   13 (A) A     -0.0075
     8 (A) A             10 (A) A                -0.0070
     4 (A) A   8 (A) B   19 (A) A   11 (A) B     -0.0070
     5 (A) A   8 (A) B   21 (A) A   11 (A) B     -0.0069
     5 (A) A   8 (A) B    9 (A) A    9 (A) B     -0.0067
     4 (A) A   8 (A) A   11 (A) A   12 (A) A     -0.0062
     3 (A) A   6 (A) B   11 (A) A   28 (A) B     -0.0060
     6 (A) A   8 (A) A   11 (A) A   18 (A) A      0.0059
     6 (A) A   8 (A) B   18 (A) A   11 (A) B     -0.0058
     7 (A) A   8 (A) B   16 (A) A   13 (A) B      0.0057
     3 (A) A   8 (A) B   11 (A) A   30 (A) B      0.0056
     5 (A) A   8 (A) B   10 (A) A   10 (A) B     -0.0055
     7 (A) A   8 (A) B   12 (A) A   10 (A) B     -0.0055
     6 (A) A   8 (A) B   11 (A) A   10 (A) B      0.0055
     8 (A) A   8 (A) B   20 (A) A   22 (A) B      0.0055
     3 (A) A   8 (A) A   11 (A) A   18 (A) A      0.0054
     3 (A) A   8 (A) A   11 (A) A   24 (A) A      0.0053
     3 (A) A   5 (A) B   11 (A) A   25 (A) B      0.0052
     5 (A) A   8 (A) A   11 (A) A   16 (A) A      0.0049
     6 (A) A   8 (A) A   10 (A) A   16 (A) A     -0.0047
    -----------------------------------------------------

  Density matrix analysis:
  ------------------------
  NOs
    Occupation of frontier NOs:
       0.9412   1.0268
    Number of electrons: 16.000000
    Number of unpaired electrons: n_u =  2.32260, n_u,nl =  2.04935
    NO participation ratio (PR_NO):  2.918589
  
  
  Mulliken Population Analysis
  Atom      Charge (e)              h+              e-           Del q
  --------------------------------------------------------------------
   1 H       -0.135020        0.045896       -0.236288       -0.190391
   2 C        0.246014        0.497654       -0.136258        0.361396
   3 H       -0.116687        0.045788       -0.218542       -0.172754
   4 C        0.257727        0.495485       -0.131996        0.363489
   5 H       -0.137376        0.045712       -0.237650       -0.191938
   6 H       -0.114658        0.045474       -0.215276       -0.169802
  --------------------------------------------------------------------
  Sum:        0.000000        1.176010       -1.176010       -0.000000
  
  Multipole moment analysis of the density matrix
    Molecular charge:                      0.000000
    Number of electrons:                   16.000000
      Center of electronic charge [Ang]: [ -1.563117,  -0.059688,   0.032102]
    Total nuclear charge:                  16.000000
      Center of nuclear charge [Ang]:    [ -1.565268,  -0.061169,   0.033258]
    Dipole moment [D]:                     0.219473
      Cartesian components [D]:          [ -0.165277,  -0.113858,   0.088815]
    RMS size of the density [Ang]:         1.281554
      Cartesian components [Ang]:        [  0.858941,   0.845998,   0.434614]
  
  Exciton analysis of the difference density matrix
    <r_h> [Ang]:                  [ -1.562969,  -0.061137,   0.043744]
    <r_e> [Ang]:                  [ -1.533619,  -0.039324,   0.014986]
    |<r_e - r_h>| [Ang]:            0.046522
    Hole size [Ang]:                1.394761
      Cartesian components [Ang]: [  0.818215,   0.806459,   0.790889]
    Electron size [Ang]:            2.114155
      Cartesian components [Ang]: [  1.416715,   1.418783,   0.670541]

  Transition density matrix analysis:
  -----------------------------------
  
  CT numbers (Mulliken)
    omega =     0.9291
    <Phe> =    -0.0144
  
  Exciton analysis of the transition density matrix
    Trans. dipole moment [D]:             0.011498
      Cartesian components [D]:         [  0.002313,   0.002444,   0.010994]
    <r_h> [Ang]:                        [ -1.565149,  -0.062474,   0.048892]
    <r_e> [Ang]:                        [ -1.527053,  -0.035922,   0.011150]
    |<r_e - r_h>| [Ang]:                  0.059840
    Hole size [Ang]:                      1.229007
      Cartesian components [Ang]:       [  0.660169,   0.649109,   0.808266]
    Electron size [Ang]:                  2.248903
      Cartesian components [Ang]:       [  1.506761,   1.510500,   0.711073]
    RMS electron-hole separation [Ang]:   2.552366
      Cartesian components [Ang]:       [  1.636654,   1.636025,   1.076734]
    Covariance(r_h, r_e) [Ang^2]:         0.028516
    Correlation coefficient:              0.010317
    Center-of-mass size [Ang]:            1.286959
      Cartesian components [Ang]:       [  0.826909,   0.826141,   0.538494]

  Decomposition into state-averaged NTOs
    H- 0 -> L+ 2: -0.6648 ( 88.4%)
    H- 1 -> L+ 0: -0.1472 (  4.3%)
                   omega =  92.9%
  ----------------------------------------------------------------------------


  Excited state 5 (singlet, A)                                     [converged]
  ----------------------------------------------------------------------------
  Term symbol:  6 (1) A                                     R^2 =  2.46726e-13

  Total energy:                                            -77.9468372313 a.u.
  Excitation energy:                                              10.147192 eV

  Osc. strength:                                                      0.000061
  Trans. dip. moment [a.u.]:           [   0.011381,   -0.010377,   -0.002677]
  <i|r^2|0> [a.u.]:                    [   0.182743,   -0.051303,   -0.029988]
  Two-photon absorption cross-section (SoS) [a.u.]:                 216.539708
  Two-photon absorption matrix (SoS) [a.u.]:
                                       |    0.856129   -0.366526   -3.722171 |
                                       |   -0.366526    0.115290    3.540050 |
[...]
    16    3.665247139527e-04
    17   -3.116379353317e-03
    18   -2.547453211917e-04
    19   -2.859042358497e-03
    20    1.168464643345e-02
    21    9.381230767475e-01
    22   -4.558784273607e-04
    23    1.368961128065e-02
    24    1.593503538150e-03
    25    6.970971743970e-02
    26   -5.175158819798e-02
    27   -1.377922271239e+00
    28    1.013524307512e-01
    29   -9.238262367927e-02
    30   -9.215491403372e-03
    31    3.878432728837e-01
    32   -3.558820172065e-01
    33   -3.635134044255e-02
    34    1.518422164283e-02
    35   -6.950319726430e-04
    36   -2.099365582122e-03
    37    2.535788577610e-04
    38   -2.916411508059e-03
    39    1.057808493623e-02
    40    9.139590392258e-01
    41    6.305038851685e-04
    42   -1.365887924155e-02
    43   -9.728737623668e-04
    44    1.198783459810e-02
    45    9.304194379046e-01
    46    1.382230794340e-02
    47    2.311147868858e-04
    48    3.350766599303e-04
Sym=X
Ene= 0.231045
Spin=Alpha
Occup=0
     1    2.949099773350e-02
     2    1.166015093777e+00
     3   -1.305342494763e-02
     4   -3.550577428335e-03
     5   -5.427581599301e-04
     6    2.352847494246e-04
     7   -9.538988037027e-05
     8   -1.030103605560e-02
     9   -1.558388932434e-01
    10   -1.631734563772e-01
    11   -1.554642321317e-02
    12   -5.296501444582e-01
    13   -5.497001493344e-01
    14   -5.228391906550e-02
    15    4.236948327090e-04
    16    1.614964592104e-03
    17    1.571921383135e-03
    18    1.097102168155e-03
    19   -1.827194702529e-04
    20   -3.037305759884e-02
    21   -1.153130408958e+00
    22   -2.799638059059e-03
    23   -1.288464908388e-02
    24   -1.032416598511e-03
    25    9.872413220900e-04
    26   -6.925033324978e-04
    27   -2.400612719061e-02
    28   -1.526918257090e-01
    29   -1.630738535933e-01
    30   -1.523730279741e-02
    31   -5.298625522705e-01
    32   -5.678982490113e-01
    33   -5.317966056572e-02
    34    1.847512001712e-04
    35   -1.089714544749e-03
    36   -9.664054513921e-04
    37   -1.567264488460e-03
    38   -1.645898347889e-04
    39    2.994598012937e-02
    40    1.191214796888e+00
    41   -2.939954883768e-03
    42   -1.349113347738e-02
    43   -9.591414006870e-04
    44   -3.018371350099e-02
    45   -1.161048187529e+00
    46   -1.276990634343e-02
    47   -3.490897468929e-03
    48   -6.084268002698e-04
Sym=X
Ene= 0.236406
Spin=Alpha
Occup=0
     1   -1.930208733626e-02
     2   -1.070737469366e+00
     3    1.584168030952e-02
     4    9.249734174753e-03
     5   -6.241110811035e-05
     6   -8.647549862195e-02
     7    8.114520845359e-02
     8    1.531592946886e+00
     9    5.986464832915e-02
    10   -5.459479677749e-02
    11   -1.824610394122e-02
    12    2.453132670199e-01
    13   -2.209129146161e-01
    14   -6.689751385292e-02
    15   -2.098241144564e-02
    16    1.336471387683e-03
    17    3.318977688998e-03
    18   -4.136269403518e-04
    19    1.226327734312e-02
    20   -1.880603499514e-02
    21   -1.053968082532e+00
    22   -8.361244067924e-03
    23   -1.582484527482e-02
    24   -2.427671862017e-03
    25    8.763884950532e-02
    26   -8.271631390784e-02
    27   -1.561252995815e+00
    28    5.948176305735e-02
    29   -5.521986340687e-02
    30    7.542588542893e-03
    31    2.404575604294e-01
    32   -2.281548311955e-01
    33    3.646845817411e-02
    34    2.140241922864e-02
    35   -3.751243795575e-03
    36   -1.153704874330e-03
    37    8.397274491572e-04
    38   -1.260487117607e-02
    39    1.929459463175e-02
    40    1.076522188313e+00
    41   -8.302097440298e-03
    42   -1.655682849778e-02
    43   -8.189951197679e-04
    44    1.914527504192e-02
    45    1.082795923792e+00
    46    1.603537446334e-02
    47    9.179722909763e-03
    48    1.610620984288e-03
Sym=X
Ene= 0.302922
Spin=Alpha
Occup=0
     1   -1.987820769239e-02
     2    1.650817211483e+00
     3   -2.342929691598e-02
     4    3.588797830266e-04
     5   -8.913083854646e-04
     6   -5.917720181383e-05
     7    5.312761795388e-05
     8   -4.547392353530e-03
     9   -1.362591913868e-01
    10   -1.435137755668e-01
    11   -1.361504311937e-02
    12   -1.120334709441e+00
    13   -1.175209714790e+00
    14   -1.114197553675e-01
    15    5.340315334845e-04
    16    8.555925305691e-04
    17    4.217208502437e-03
    18   -3.340514052606e-02
    19   -2.079979676915e-03
    20    1.897834515034e-02
    21   -1.643642922558e+00
    22    1.643527809572e-03
    23   -2.332481648700e-02
    24   -1.290555265112e-03
    25    7.475362696279e-05
    26   -2.343761763583e-05
    27    6.370075290608e-04
    28    1.355490541920e-01
    29    1.424959862258e-01
    30    1.353303933670e-02
    31    1.123515980027e+00
    32    1.186392459744e+00
    33    1.121050639453e-01
    34   -2.725337504834e-04
    35   -3.084524656236e-03
    36    1.984082442754e-04
    37   -3.446542906287e-02
    38   -1.623293511542e-03
    39    2.260047436821e-02
    40   -1.662659163851e+00
    41   -1.482617399482e-03
    42    2.348602155557e-02
    43    7.643575159571e-05
    44   -2.220283540204e-02
    45    1.659738124114e+00
    46    2.344506418606e-02
    47   -3.711597043256e-04
    48    2.122085146943e-03
Sym=X
Ene= 0.462276
Spin=Alpha
Occup=0
     1   -1.084927391327e-01
     2   -7.030401609276e-01
     3   -1.452164226331e-02
     4   -1.007301293971e-02
     5   -1.739864757452e-03
     6    6.295752262692e-02
     7    1.542090415810e-02
     8   -3.631221820919e+00
     9    1.075109731885e-01
    10   -1.008427355281e-01
    11   -1.738454717026e-02
    12    2.417174204378e+00
    13   -2.296281805851e+00
    14    8.107680758008e-02
    15    5.179596904078e-02
    16   -4.959511179520e-03
    17   -1.818209654454e-03
    18   -8.060570313737e-04
    19    2.123669300394e-02
    20   -1.107758819416e-01
    21   -6.889082379759e-01
    22    9.130990479831e-03
    23    1.511590116763e-02
    24    6.289268736812e-04
    25   -6.228404352513e-02
    26   -1.683818503521e-02
    27    3.614089238246e+00
    28    1.032830935341e-01
    29   -9.749496087986e-02
    30   -3.272445000331e-03
    31    2.420241145277e+00
    32   -2.314679939909e+00
    33    1.431302256289e-01
    34   -5.365441484493e-02
    35    3.914743524894e-03
    36    3.321837986016e-03
    37    9.332919814328e-04
    38   -1.894208487505e-02
    39    1.183390145716e-01
    40    6.994684325447e-01
    41    9.751153775008e-03
    42    1.560219490924e-02
    43    1.257997312613e-03
    44    1.184547726032e-01
    45    6.920488054412e-01
    46   -1.501036221178e-02
    47   -1.055849495122e-02
    48   -1.211485794436e-03
Sym=X
Ene= 0.580040
Spin=Alpha
Occup=0
     1   -2.361478066811e-01
     2   -6.334803715163e-02
     3    2.238636433411e-02
     4   -2.735626378921e-02
     5   -9.113742905558e-04
     6    7.520993702891e-03
     7    1.694054283116e-01
     8    3.602306423680e-01
     9   -3.024719899057e-01
    10    2.893031557505e-01
    11   -1.581353221082e-02
    12    7.831016053914e-01
    13   -7.409780930007e-01
    14   -6.215828803410e-04
    15    1.968693276000e-03
    16   -2.340736231054e-03
    17   -3.837462139985e-03
    18    3.117534166180e-03
    19   -6.016782378753e-02
    20   -2.357366281028e-01
    21   -5.663024681529e-02
    22    2.889490626313e-02
    23   -2.128030602128e-02
    24   -3.030470659473e-04
    25    4.944327641978e-03
    26    1.681239647749e-01
    27    4.715454325553e-01
    28    3.071589897373e-01
    29   -2.930243353726e-01
    30    1.240765016805e-02
    31   -7.113711420561e-01
    32    6.793356698691e-01
    33   -8.844978560106e-03
    34    1.832116543931e-03
    35   -2.528838055118e-03
    36   -3.596586852800e-03
    37    3.455757410955e-03
    38   -6.004846737141e-02
    39   -2.407759771319e-01
    40   -3.509987142905e-02
    41   -2.722577944184e-02
    42    1.994643205743e-02
    43   -1.049327851555e-03
    44   -2.388719868903e-01
    45   -3.356788341288e-02
    46   -2.170065016388e-02
    47    2.641296234724e-02
    48   -4.787761342847e-04
Sym=X
Ene= 0.608674
Spin=Alpha
Occup=0
     1    5.229760294141e-01
     2   -2.550963878858e-01
     3    5.970594521012e-02
     4   -3.656351917213e-02
     5   -6.133210245124e-04
     6    7.290337338623e-05
     7    1.568282802707e-03
     8   -2.043906262694e-03
     9    3.575071098470e-02
    10    3.702341388128e-02
    11    3.446346661661e-03
    12   -2.621522652715e-01
    13   -2.659683453221e-01
    14   -2.544598756531e-02
    15   -8.112993305801e-04
    16    6.309027223332e-04
    17   -1.436833399430e-02
    18    1.504827767792e-01
    19    7.793680073568e-03
    20   -5.260690772843e-01
    21    2.655934216932e-01
    22   -3.983355168871e-02
    23    5.769736758704e-02
    24    2.608646657540e-03
    25   -2.778509347378e-05
    26    1.118384101480e-03
    27   -8.546510287219e-03
    28    3.640278218068e-02
    29    3.800261256009e-02
    30    3.661436403577e-03
    31   -2.680078028794e-01
    32   -2.766420074225e-01
    33   -2.670791632172e-02
    34    3.525222730530e-05
    35   -1.086695192552e-02
    36    3.205768488563e-03
    37   -1.464883542636e-01
    38   -7.578902396397e-03
    39    5.117091282294e-01
    40   -2.288828961900e-01
    41   -4.024544680603e-02
    42    5.708146814575e-02
    43   -9.790925292113e-04
    44   -5.164179882009e-01
    45    2.329190306544e-01
    46    5.921732765129e-02
    47   -3.726122144155e-02
    48    2.869204246527e-03
Sym=X
Ene= 0.689060
Spin=Alpha
Occup=0
     1   -9.648636598815e-03
     2    4.645199556105e-02
     3   -8.384557889111e-03
     4    6.636996409958e-04
     5   -1.899247499927e-02
     6   -1.045352568103e-03
     7   -3.746621845192e-02
     8    5.490435842249e-02
     9    4.588637678507e-02
    10    1.953111068323e-02
    11   -6.687291553215e-01
    12   -9.718502534789e-02
    13    3.496903023210e-02
    14    6.080747565341e-01
    15    1.795899980498e-02
    16    8.090006504341e-02
    17   -7.926406258575e-02
    18   -8.046422566916e-03
    19    3.760722349704e-03
    20   -9.517035577003e-03
    21    4.631022282562e-02
    22    6.401048114498e-04
    23    1.005477969430e-02
    24   -1.732238810920e-02
    25   -2.717193015455e-03
    26   -1.876134682665e-02
    27   -1.224613358090e-02
    28    2.979766390861e-02
    29    3.502252738757e-02
    30   -6.708866282307e-01
    31   -8.627402241270e-02
    32    2.462569183417e-02
    33    6.118631215734e-01
    34    3.696018459118e-03
    35   -8.331786329344e-02
    36    7.732715021224e-02
    37    8.419010642533e-03
    38   -1.173039452356e-02
    39   -4.086677180325e-02
    40   -1.228707784141e-02
    41   -3.119846392911e-03
    42   -4.394488629545e-03
    43   -1.983983882455e-02
    44   -4.077977809145e-02
    45   -1.151595377766e-02
    46    6.022110495789e-03
    47    5.295048954785e-03
    48   -1.844117225228e-02
Sym=X
Ene= 0.705677
Spin=Alpha
Occup=0
     1   -4.900206706851e-01
     2    1.551532875282e-01
     3   -7.809177379405e-02
     4   -4.436821278987e-02
     5   -7.317007781040e-03
     6   -4.522825696407e-02
     7   -2.945657929424e-01
     8    4.143752983393e-01
     9    1.932173020911e-01
    10   -1.908902656934e-01
    11    4.241088240811e-02
    12   -2.573577067999e-02
    13    4.190766626433e-02
    14   -8.183558361991e-02
    15    1.913812221403e-01
    16   -2.453246833482e-02
    17   -1.549335017194e-02
    18    4.217007022263e-03
    19   -7.647990421693e-02
    20   -4.895587639393e-01
    21    1.668716885609e-01
    22    4.103853224800e-02
    23    8.014814787678e-02
    24    4.436427770702e-03
    25   -4.662323989210e-02
    26   -3.021797106603e-01
    27    5.043126454400e-01
    28   -1.985566688269e-01
    29    1.824505254169e-01
    30    3.505625332814e-02
    31    8.529647481030e-02
    32   -7.210286527191e-02
    33   -1.147162543888e-03
    34    1.910950005003e-01
    35   -2.287929511026e-02
    36   -1.710359174450e-02
    37    4.480749140284e-03
    38   -7.757719287982e-02
    39   -4.862481609937e-01
    40    1.629321868963e-01
    41   -4.037068783880e-02
    42   -8.048150332883e-02
    43   -1.698207113772e-03
    44   -4.840852893580e-01
    45    1.714089109828e-01
    46    7.777176280054e-02
    47    4.460359203556e-02
    48    1.005439752489e-02
Sym=X
Ene= 0.775834
Spin=Alpha
Occup=0
     1    5.389277015994e-01
     2   -4.732904156001e-01
     3    1.061938114406e-01
     4    2.692147293560e-02
     5    7.258821658706e-03
     6    8.846388645712e-02
     7   -2.366511777428e-01
     8   -5.497067153918e-01
     9    1.088079999398e-01
    10   -9.519288067650e-02
    11   -1.692010656012e-02
    12    2.743939017778e-01
    13   -2.840797548196e-01
    14    7.593938650935e-02
    15   -2.023164999953e-01
    16    1.192582483654e-02
    17    2.279337370950e-02
    18   -4.832350379074e-04
    19    7.095669923674e-03
    20    5.441314801582e-01
    21   -4.926304977804e-01
    22   -2.174302701994e-02
    23   -1.087844601181e-01
    24   -5.561445251251e-03
    25   -8.890141132213e-02
    26    2.194777382941e-01
    27    5.652276431354e-01
    28    9.810716644931e-02
    29   -1.003619337895e-01
    30    4.175724110692e-02
    31    3.032336480316e-01
    32   -2.720797086530e-01
    33   -5.626023866174e-02
    34    2.039581915089e-01
    35   -2.304712449750e-02
    36   -1.253203261412e-02
    37    1.092361153492e-03
    38   -8.420492504430e-03
    39   -5.337641672499e-01
    40    4.709369286892e-01
    41   -2.069484429041e-02
    42   -1.091691082238e-01
    43   -4.761710765730e-03
    44   -5.366473981175e-01
    45    4.815407860696e-01
    46    1.081983643412e-01
    47    2.613416676001e-02
    48    8.074875456469e-03
Sym=X
Ene= 0.807134
Spin=Alpha
Occup=0
     1    1.739085659303e-02
     2   -3.029196060405e-02
     3    9.717137943182e-03
     4   -4.495717086541e-03
     5    3.161611512881e-02
     6    2.712375702682e-03
     7    7.621939287258e-03
     8   -2.294813422532e-03
     9   -3.283364443915e-02
    10   -4.059153364226e-02
    11    7.648040622253e-01
    12    7.686340878002e-02
    13    3.190837289523e-02
    14   -1.122717429237e+00
    15   -7.252982125155e-03
    16    6.538242384778e-02
    17   -6.084531334036e-02
    18   -6.193222058321e-03
    19   -3.019031594300e-04
    20    1.754986285497e-02
    21   -3.159756753043e-02
    22    1.995737614884e-03
    23   -1.269216320180e-02
    24    3.020448016150e-02
    25   -4.439951679844e-03
    26    2.256894464340e-02
    27   -1.190396127399e-02
    28    6.446168042562e-02
    29    1.085901701409e-02
    30   -7.621802646764e-01
    31   -7.367192525036e-02
    32   -3.595925768359e-02
    33    1.121691768484e+00
    34    1.723749818607e-02
    35    6.349571984728e-02
    36   -6.227636099299e-02
    37   -6.511373701842e-03
    38    7.947310349421e-03
    39   -1.927834670230e-02
    40    2.181751373011e-02
    41    2.910313839314e-03
    42   -3.059560378720e-03
    43   -3.237502308250e-02
    44   -1.950734318651e-02
    45    2.203130983554e-02
    46    6.232071795063e-03
    47    4.083830495536e-04
    48   -3.154224475982e-02
Sym=X
Ene= 0.858269
Spin=Alpha
Occup=0
     1    1.828714327964e-02
     2   -1.089250728298e+00
     3    1.498007596235e-01
     4    5.475447710994e-02
     5    4.833373823784e-03
     6    4.683639208217e-04
     7    4.683158225217e-03
     8   -2.450702043254e-03
     9   -4.206130659279e-01
    10   -4.452679513784e-01
    11   -4.197275681866e-02
    12    9.582570891383e-01
    13    1.011384009713e+00
    14    9.562662029539e-02
    15   -2.269778356165e-03
    16    9.558188585807e-03
    17   -1.311915928242e-02
    18    2.316942093694e-01
    19    1.174162658987e-02
    20   -1.539685976994e-02
    21    1.089542184447e+00
    22    4.708025869651e-02
    23    1.513261016304e-01
    24    1.481054474247e-02
    25    2.094604254014e-05
    26    5.401692660687e-03
    27   -5.066362197562e-03
    28   -4.013397240198e-01
    29   -4.237004777553e-01
    30   -4.021738656275e-02
    31    9.119439082463e-01
    32    9.627281801159e-01
    33    9.106403787575e-02
    34   -5.108070665684e-04
    35   -1.105232541455e-02
    36    1.120591726873e-02
    37   -2.294038662945e-01
    38   -1.151483454406e-02
    39    1.267768212910e-02
    40   -1.059025154851e+00
    41    4.956317097058e-02
    42    1.460506970323e-01
    43    1.064230943064e-02
    44   -1.288795206758e-02
    45    1.059820475540e+00
    46    1.435978328786e-01
    47    5.732129633869e-02
    48    8.544544578770e-03
Sym=X
Ene= 0.927027
Spin=Alpha
Occup=0
     1   -1.384308457758e-01
     2    1.195334030665e+00
     3   -1.781796124696e-01
     4    9.048093285494e-03
     5   -8.398893317700e-03
     6   -1.007874872428e-03
     7   -5.357128816634e-03
     8   -6.027699915003e-03
     9    4.589702042958e-01
    10    4.996869202815e-01
    11    4.667135217928e-02
    12   -1.348576739021e+00
    13   -1.461213015486e+00
    14   -1.367100589393e-01
    15    3.520084712975e-03
    16   -1.608343594264e-03
    17    1.054789484323e-02
    18   -1.186017285499e-01
    19   -1.789688807323e-03
    20    1.361827265640e-01
    21   -1.217058498202e+00
    22    1.505411092540e-02
    23   -1.790540612171e-01
    24   -8.069712009619e-03
    25    8.835111851084e-04
    26    5.779621766822e-05
    27    1.342133042616e-02
    28   -4.884099448805e-01
    29   -4.995724633458e-01
    30   -4.820983033962e-02
    31    1.430861345962e+00
    32    1.468254068863e+00
    33    1.417815164708e-01
    34   -3.845846865048e-03
    35   -1.478776817585e-02
    36   -3.077243872375e-03
    37   -1.293634642385e-01
    38   -9.896687714979e-03
    39    1.391843154242e-01
    40   -1.249045910049e+00
    41   -1.439674219947e-02
    42    1.849674354066e-01
    43    1.006057631437e-03
    44   -1.366428520116e-01
    45    1.265934496161e+00
    46    1.851282887488e-01
    47   -3.112817108316e-03
    48    1.610293614362e-02
Sym=X
Ene= 0.969645
Spin=Alpha
Occup=0
     1   -6.088153948234e-02
     2    9.256757342319e-01
     3   -9.194566859600e-02
     4   -9.667618191752e-02
     5   -4.436024819969e-04
     6    2.706348997696e-02
     7    2.576256339409e-01
     8    5.113597656353e-01
     9    4.932024962055e-01
    10   -4.527923172514e-01
    11   -8.456462612933e-03
    12   -1.512330025027e+00
    13    1.377372594270e+00
    14    1.107118720369e-02
    15   -5.853812663036e-02
    16    5.971797281757e-03
    17   -2.446097533725e-02
    18    1.104825332544e-02
    19   -2.953837092825e-01
    20   -6.082350954332e-02
    21    8.750144212201e-01
    22    9.136054198785e-02
    23    8.925979609573e-02
    24    1.779751129663e-02
    25   -2.659313184966e-02
    26   -2.416031786744e-01
    27   -5.360540545839e-01
    28    4.730312684148e-01
    29   -4.652158699142e-01
    30    2.558600888815e-02
    31   -1.439372802123e+00
    32    1.427973856920e+00
    33   -8.131353526437e-02
    34    5.627204253233e-02
    35   -4.107565026893e-03
    36    2.224069737648e-02
    37   -1.602712388672e-02
    38    2.965982769522e-01
    39    5.946002204863e-02
    40   -9.130068643902e-01
    41    9.187099935487e-02
    42    9.396213104339e-02
    43    1.035592782033e-02
    44    6.060321147819e-02
    45   -8.691296226681e-01
    46   -8.364605016091e-02
    47   -9.658083365572e-02
    48   -7.020617640693e-03
[5D]

======= END OF MOLDEN-FORMATTED INPUT FILE =======


        *************************************************************
        *                                                           *
        *  Thank you very much for using Q-Chem.  Have a nice day.  *
        *                                                           *
        *************************************************************


