                  Welcome to Q-Chem
     A Quantum Leap Into The Future Of Chemistry


 Q-Chem 5.4 (devel), Q-Chem, Inc., Pleasanton, CA (2021)

 E. Epifanovsky,  A. T. B. Gilbert,  Xintian Feng,  Joonho Lee,  Yuezhi Mao,  
 N. Mardirossian,  P. Pokhilko,  A. White,  M. Wormit,  M. P. Coons,  
 A. L. Dempwolff,  Zhengting Gan,  D. Hait,  P. R. Horn,  L. D. Jacobson,  
 I. Kaliman,  J. Kussmann,  A. W. Lange,  Ka Un Lao,  D. S. Levine,  Jie Liu,  
 S. C. McKenzie,  A. F. Morrison,  K. Nanda,  F. Plasser,  D. R. Rehn,  
 M. L. Vidal,  Zhi-Qiang You,  Ying Zhu,  B. Alam,  B. Albrecht,  
 A. Aldossary,  E. Alguire,  J. H. Andersen,  D. Barton,  K. Begam,  A. Behn,  
 Y. A. Bernard,  E. J. Berquist,  H. Burton,  A. Carreras,  K. Carter-Fenk,  
 R. Chakraborty,  A. D. Chien,  K. D. Closser,  V. Cofer-Shabica,  
 S. Dasgupta,  Jia Deng,  M. de Wergifosse,  M. Diedenhofen,  Hainam Do,  
 S. Ehlert,  Po-Tung Fang,  S. Fatehi,  Qingguo Feng,  T. Friedhoff,  
 J. Gayvert,  Qinghui Ge,  G. Gidofalvi,  M. Goldey,  J. Gomes,  
 C. Gonzalez-Espinoza,  S. Gulania,  A. Gunina,  M. W. D. Hanson-Heine,  
 P. H. P. Harbach,  A. W. Hauser,  M. F. Herbst,  M. Hernandez Vera,  
 M. Hodecker,  Z. C. Holden,  S. Houck,  Xunkun Huang,  Kerwin Hui,  
 B. C. Huynh,  M. Ivanov,  Hyunjun Ji,  Hanjie Jiang,  B. Kaduk,  S. Kaehler,  
 K. Khistyaev,  Jaehoon Kim,  P. Klunzinger,  Z. Koczor-Benda,  
 Joong Hoon Koh,  D. Kosenkov,  L. Koulias,  T. Kowalczyk,  C. M. Krauter,  
 K. Kue,  A. Kunitsa,  T. Kus,  A. Landau,  K. V. Lawler,  D. Lefrancois,  
 S. Lehtola,  Rain Li,  Yi-Pei Li,  Jiashu Liang,  M. Liebenthal,  
 Hung-Hsuan Lin,  You-Sheng Lin,  Fenglai Liu,  Kuan-Yu Liu,  
 M. Loipersberger,  A. Luenser,  A. Manjanath,  P. Manohar,  E. Mansoor,  
 S. F. Manzer,  Shan-Ping Mao,  A. V. Marenich,  T. Markovich,  S. Mason,  
 S. A. Maurer,  P. F. McLaughlin,  M. F. S. J. Menger,  J.-M. Mewes,  
 S. A. Mewes,  P. Morgante,  J. W. Mullinax,  K. J. Oosterbaan,  G. Paran,  
 Alexander C. Paul,  Suranjan K. Paul,  F. Pavosevic,  Zheng Pei,  S. Prager,  
 E. I. Proynov,  E. Ramos,  B. Rana,  A. E. Rask,  A. Rettig,  R. M. Richard,  
 F. Rob,  E. Rossomme,  T. Scheele,  M. Scheurer,  M. Schneider,  
 N. Sergueev,  S. M. Sharada,  W. Skomorowski,  D. W. Small,  C. J. Stein,  
 Yu-Chuan Su,  E. J. Sundstrom,  Zhen Tao,  J. Thirman,  T. Tsuchimochi,  
 N. M. Tubman,  S. P. Veccham,  O. Vydrov,  J. Wenzel,  J. Witte,  A. Yamada,  
 Kun Yao,  S. Yeganeh,  S. R. Yost,  A. Zech,  Igor Ying Zhang,  Xing Zhang,  
 Yu Zhang,  D. Zuev,  A. Aspuru-Guzik,  A. T. Bell,  N. A. Besley,  
 K. B. Bravaya,  B. R. Brooks,  D. Casanova,  Jeng-Da Chai,  S. Coriani,  
 C. J. Cramer,  A. E. DePrince, III,  R. A. DiStasio Jr.,  A. Dreuw,  
 B. D. Dunietz,  T. R. Furlani,  W. A. Goddard III,  S. Grimme,  
 S. Hammes-Schiffer,  T. Head-Gordon,  W. J. Hehre,  Chao-Ping Hsu,  
 T.-C. Jagau,  Yousung Jung,  A. Klamt,  Jing Kong,  D. S. Lambrecht,  
 WanZhen Liang,  N. J. Mayhall,  C. W. McCurdy,  J. B. Neaton,  
 C. Ochsenfeld,  J. A. Parkhill,  R. Peverati,  V. A. Rassolov,  Yihan Shao,  
 L. V. Slipchenko,  T. Stauch,  R. P. Steele,  J. E. Subotnik,  
 A. J. W. Thom,  A. Tkatchenko,  D. G. Truhlar,  T. Van Voorhis,  
 T. A. Wesolowski,  K. B. Whaley,  H. L. Woodcock III,  P. M. Zimmerman,  
 S. Faraji,  P. M. W. Gill,  M. Head-Gordon,  J. M. Herbert,  A. I. Krylov

 Additional authors for Version 5.4.1: 
 S. Kotaru,  Shaozhi Li,  Xiangyuan Li,  F. Matz,  A. Molle,  Haisheng Ren,  
 Yingli Su,  Hung-Yi Tsai,  C. Utku,  Fang Wang

 Contributors to earlier versions of Q-Chem not listed above: 
 R. D. Adamson,  B. Austin,  R. Baer,  J. Baker,  G. J. O. Beran,  
 K. Brandhorst,  S. T. Brown,  E. F. C. Byrd,  A. K. Chakraborty,  
 G. K. L. Chan,  Chun-Min Chang,  Yunqing Chen,  C.-L. Cheng,  
 Siu Hung Chien,  D. M. Chipman,  D. L. Crittenden,  H. Dachsel,  
 R. J. Doerksen,  A. D. Dutoi,  R. G. Edgar,  J. Fosso-Tande,  
 L. Fusti-Molnar,  D. Ghosh,  A. Ghysels,  A. Golubeva-Zadorozhnaya,  
 J. Gonthier,  M. S. Gordon,  S. R. Gwaltney,  G. Hawkins,  J. E. Herr,  
 A. Heyden,  S. Hirata,  E. G. Hohenstein,  G. Kedziora,  F. J. Keil,  
 C. Kelley,  Jihan Kim,  R. A. King,  R. Z. Khaliullin,  P. P. Korambath,  
 W. Kurlancheek,  A. Laurent,  A. M. Lee,  M. S. Lee,  S. V. Levchenko,  
 Ching Yeh Lin,  D. Liotard,  E. Livshits,  R. C. Lochan,  I. Lotan,  
 L. A. Martinez-Martinez,  P. E. Maslen,  N. Nair,  D. P. O'Neill,  
 D. Neuhauser,  E. Neuscamman,  C. M. Oana,  R. Olivares-Amaya,  R. Olson,  
 T. M. Perrine,  B. Peters,  P. A. Pieniazek,  A. Prociuk,  Y. M. Rhee,  
 J. Ritchie,  M. A. Rohrdanz,  E. Rosta,  N. J. Russ,  H. F. Schaefer III,  
 M. W. Schmidt,  N. E. Schultz,  S. Sharma,  N. Shenvi,  C. D. Sherrill,  
 A. C. Simmonett,  A. Sodt,  T. Stein,  D. Stuck,  K. S. Thanthiriwatte,  
 V. Vanovschi,  L. Vogt,  Tao Wang,  A. Warshel,  M. A. Watson,  
 C. F. Williams,  Q. Wu,  X. Xu,  Jun Yang,  W. Zhang,  Yan Zhao

 Please cite Q-Chem as follows:
 Y. Shao et al., Mol. Phys. 113, 184-215 (2015)
 DOI: 10.1080/00268976.2014.952696

 Q-Chem 5.4.1 for Intel X86 EM64T Linux

 Parts of Q-Chem use Armadillo 9.800.1 (Horizon Scraper).
 http://arma.sourceforge.net/

 Q-Chem begins on Mon Mar 20 18:16:35 2023  

 Host: cpu186.baobab
0

     Scratch files written to /scratch/fum/qchem72206//
 Processing $rem in /home/share/wesolowski/qc5.aug2021.FDE/config/preferences:
 Processing $rem in /home/fum/.qchemrc:

 Checking the input file for inconsistencies... 	...done.

--------------------------------------------------------------
User input:
--------------------------------------------------------------
$comment
generated from CCJob.Templates
$end

$rem
sym_ignore = true
method = adc(2)
ee_states = 10
basis = cc-pVDZ
mem_static = 1024
mem_total = 40000
adc_davidson_maxiter = 900
adc_davidson_conv = 6
adc_print = 3
adc_prop_es = true
adc_prop_es2es = true
adc_prop_tpa = true
molden_format = True
state_analysis = true
print_orbitals = 15
gen_scfman = false
fde_export_density = true
fde_details = 3
$end

$molecule
0 1
H -0.005964610708761987 -0.2745789145642506 0.0641041049789465
C -1.0541904993541202 -0.49945816746493876 0.0003977004665807536
H -1.3294967095815173 -1.5788989077605722 -0.07830769869202941
C -2.06848084824598 0.36888223056493874 0.0038497990335950288
H -1.7932131990183822 1.4483359968609237 0.0825343641920043
H -3.116716119991012 0.14401312406392416 -0.05978046767952407                     
$end
--------------------------------------------------------------
 ----------------------------------------------------------------
             Standard Nuclear Orientation (Angstroms)
    I     Atom           X                Y                Z
 ----------------------------------------------------------------
    1      H      -0.0059646107    -0.2745789146     0.0641041050
    2      C      -1.0541904994    -0.4994581675     0.0003977005
    3      H      -1.3294967096    -1.5788989078    -0.0783076987
    4      C      -2.0684808482     0.3688822306     0.0038497990
    5      H      -1.7932131990     1.4483359969     0.0825343642
    6      H      -3.1167161200     0.1440131241    -0.0597804677
 ----------------------------------------------------------------
 Nuclear Repulsion Energy =          33.18548097 hartrees
 There are        8 alpha and        8 beta electrons
 Requested basis set is cc-pVDZ
 There are 24 shells and 48 basis functions
 Total memory of 40000 MB is distributed as follows: 
   MEM_STATIC is set to 1024 MB
   QALLOC/CCMAN JOB total memory use is  38976 MB
 Warning: actual memory use might exceed 40000 MB

 Total QAlloc Memory Limit  40000 MB
 Mega-Array Size      1001 MB
 MEM_STATIC part      1024 MB

                       Distance Matrix (Angstroms)
             H (  1)   C (  2)   H (  3)   C (  4)   H (  5)
   C (  2)  1.073968
   H (  3)  1.863671  1.116772
   C (  4)  2.161399  1.335220  2.084874
   H (  5)  2.482546  2.084899  3.066766  1.116774
   H (  6)  3.141233  2.161409  2.482523  1.073970  1.863645

 A cutoff of  1.0D-11 yielded    300 shell pairs
 There are      1220 function pairs (      1329 Cartesian)
 Smallest overlap matrix eigenvalue = 4.77E-03

 Scale SEOQF with 1.000000e-01/1.000000e-01/1.000000e+00

 Standard Electronic Orientation quadrupole field applied
 Nucleus-field energy     =     0.0000000022 hartrees
 Guess from superposition of atomic densities
 Warning:  Energy on first SCF cycle will be non-variational
 SAD guess density has 16.000000 electrons
 A restricted Hartree-Fock SCF calculation will be
 performed using Pulay DIIS extrapolation
 SCF converges when DIIS error is below 1.0E-08
 using 10 threads for integral computing
 -------------------------------------------------------
 OpenMP Integral computing Module                
 Release: version 1.0, May 2013, Q-Chem Inc. Pittsburgh 
 -------------------------------------------------------
 ---------------------------------------
  Cycle       Energy         DIIS Error
 ---------------------------------------
    1     -78.3928000919      9.91E-02
    2     -78.0136527636      7.11E-03
    3     -78.0341124562      1.82E-03
    4     -78.0355853149      5.56E-04
    5     -78.0356996376      5.90E-05
    6     -78.0357015323      9.42E-06
    7     -78.0357015951      1.95E-06
    8     -78.0357015978      1.68E-07
    9     -78.0357015979      1.74E-08
   10     -78.0357015979      4.02E-09 Convergence criterion met
 ---------------------------------------
 SCF time:  CPU 1.92 s  wall 2.66 s
 SCF   energy in the final basis set = -78.03570160
 Total energy in the final basis set = -78.03570160
Exporting Density Matrix to file 'Densmat_SCF.txt'.
Export successful
================================================================================
|                                                                              |
|                                 A D C  M A N                                 |
|                                                                              |
 ------------------------------------------------------------------------------ 
|                                                                              |
| Components:                                                                  |
|                                                                              |
| - libvmm - 1.3-trunk                                                         |
|   Authors:                                                                   |
|   Evgeny Epifanovsky, Ilya Kaliman                                           |
|                                                                              |
| - libtensor - 2.5-trunk                                                      |
|   Authors:                                                                   |
|   Evgeny Epifanovsky, Michael Wormit, Dmitry Zuev, Sam Manzer,               |
|   Ilya Kaliman                                                               |
|                                                                              |
| - libwfa - 1.1-trunk                                                         |
|   Authors:                                                                   |
|   Felix Plasser, Stefanie Mewes (Baeppler), Benjamin Thomitzni,              |
|   Michael Wormit, Feng Chen, Anna I. Krylov, Pavel Pokhilko                  |
|                                                                              |
| - libadc - 1.1-trunk                                                         |
|   Authors:                                                                   |
|   Michael Wormit, Adrian L. Dempwolff, Philipp H. P. Harbach,                |
|   Caroline Krauter, Dirk Rehn, Matthias Schneider, Jan Wenzel                |
|                                                                              |
| - adcman - 2.6-trunk                                                         |
|   Authors:                                                                   |
|   Michael Wormit, Adrian L. Dempwolff, Philipp H. P. Harbach,                |
|   Caroline Krauter, Daniel Lefrancois, Jan-Michael Mewes, Dirk Rehn,         |
|   Matthias Schneider, Jan Wenzel, Andreas Dreuw                              |
|                                                                              |
| Authors of earlier versions of ADCMAN:                                       |
| Andreas Dreuw, Jan Hendrik Starcke, Dirk Rehn, Michael Wormit                |
|                                                                              |
================================================================================

 Created directory /scratch/fum/qchem72206/plots
  Import QC data ...  CPU 0.00 s  wall 0.00 s

 Alpha MOs, Restricted
 -- Occupied --                  
-11.240 -11.238  -1.030  -0.787  -0.634  -0.589  -0.492  -0.374
  1 A     2 A     3 A     4 A     5 A     6 A     7 A     8 A                  
 -- Virtual --                   
  0.167   0.202   0.230   0.237   0.301   0.461   0.580   0.609
  9 A    10 A    11 A    12 A    13 A    14 A    15 A    16 A                  
  0.689   0.704   0.777   0.807   0.858   0.923   0.973   1.007
 17 A    18 A    19 A    20 A    21 A    22 A    23 A    24 A                  
  1.129   1.233   1.236   1.254   1.299   1.594   1.720   1.739
 25 A    26 A    27 A    28 A    29 A    30 A    31 A    32 A                  
  1.803   1.826   1.857   1.930   1.961   1.971   2.238   2.246
 33 A    34 A    35 A    36 A    37 A    38 A    39 A    40 A                  
  2.347   2.411   2.505   2.608   2.673   2.809   3.081   3.377
 41 A    42 A    43 A    44 A    45 A    46 A    47 A    48 A                  

 Beta MOs, Restricted
 -- Occupied --                  
-11.240 -11.238  -1.030  -0.787  -0.634  -0.589  -0.492  -0.374
  1 A     2 A     3 A     4 A     5 A     6 A     7 A     8 A                  
 -- Virtual --                   
  0.167   0.202   0.230   0.237   0.301   0.461   0.580   0.609
  9 A    10 A    11 A    12 A    13 A    14 A    15 A    16 A                  
  0.689   0.704   0.777   0.807   0.858   0.923   0.973   1.007
 17 A    18 A    19 A    20 A    21 A    22 A    23 A    24 A                  
  1.129   1.233   1.236   1.254   1.299   1.594   1.720   1.739
 25 A    26 A    27 A    28 A    29 A    30 A    31 A    32 A                  
  1.803   1.826   1.857   1.930   1.961   1.971   2.238   2.246
 33 A    34 A    35 A    36 A    37 A    38 A    39 A    40 A                  
  2.347   2.411   2.505   2.608   2.673   2.809   3.081   3.377
 41 A    42 A    43 A    44 A    45 A    46 A    47 A    48 A                  
  Import AO data ...  CPU 0.00 s  wall 0.01 s
  Using point group: C1
  Irreducible representations in point group: A
  Molecular orbitals: 
  Occupied MOs:
  Block   0:   1 (  A) A   2 (  A) A   3 (  A) A   4 (  A) A   5 (  A) A
                  -11.24      -11.24       -1.03     -0.7871     -0.6336
               6 (  A) A   7 (  A) A   8 (  A) A
                 -0.5886     -0.4922     -0.3744
  Block   1:   1 (  A) B   2 (  A) B   3 (  A) B   4 (  A) B   5 (  A) B
                  -11.24      -11.24       -1.03     -0.7871     -0.6336
               6 (  A) B   7 (  A) B   8 (  A) B
                 -0.5886     -0.4922     -0.3744
  Virtual MOs:
  Block   0:   9 (  A) A  10 (  A) A  11 (  A) A  12 (  A) A  13 (  A) A
                  0.1672      0.2023      0.2301      0.2366      0.3014
              14 (  A) A  15 (  A) A  16 (  A) A  17 (  A) A  18 (  A) A
                  0.4606      0.5802      0.6086      0.6886      0.7044
              19 (  A) A  20 (  A) A  21 (  A) A  22 (  A) A
                   0.777      0.8068      0.8581      0.9233
  Block   1:  23 (  A) A  24 (  A) A  25 (  A) A  26 (  A) A  27 (  A) A
                  0.9728       1.007       1.129       1.233       1.236
              28 (  A) A  29 (  A) A  30 (  A) A  31 (  A) A  32 (  A) A
                   1.254       1.299       1.594        1.72       1.739
              33 (  A) A  34 (  A) A  35 (  A) A  36 (  A) A
                   1.803       1.826       1.857        1.93
  Block   2:  37 (  A) A  38 (  A) A  39 (  A) A  40 (  A) A  41 (  A) A
                   1.961       1.971       2.238       2.246       2.347
              42 (  A) A  43 (  A) A  44 (  A) A  45 (  A) A  46 (  A) A
                   2.411       2.505       2.608       2.673       2.809
              47 (  A) A  48 (  A) A
                   3.081       3.377
  Block   3:   9 (  A) B  10 (  A) B  11 (  A) B  12 (  A) B  13 (  A) B
                  0.1672      0.2023      0.2301      0.2366      0.3014
              14 (  A) B  15 (  A) B  16 (  A) B  17 (  A) B  18 (  A) B
                  0.4606      0.5802      0.6086      0.6886      0.7044
              19 (  A) B  20 (  A) B  21 (  A) B  22 (  A) B
                   0.777      0.8068      0.8581      0.9233
  Block   4:  23 (  A) B  24 (  A) B  25 (  A) B  26 (  A) B  27 (  A) B
                  0.9728       1.007       1.129       1.233       1.236
              28 (  A) B  29 (  A) B  30 (  A) B  31 (  A) B  32 (  A) B
                   1.254       1.299       1.594        1.72       1.739
              33 (  A) B  34 (  A) B  35 (  A) B  36 (  A) B
                   1.803       1.826       1.857        1.93
  Block   5:  37 (  A) B  38 (  A) B  39 (  A) B  40 (  A) B  41 (  A) B
                   1.961       1.971       2.238       2.246       2.347
              42 (  A) B  43 (  A) B  44 (  A) B  45 (  A) B  46 (  A) B
                   2.411       2.505       2.608       2.673       2.809
              47 (  A) B  48 (  A) B
                   3.081       3.377
  Import MO data ...  CPU 0.01 s  wall 0.01 s
  Import HF data ...  CPU 0.36 s  wall 0.12 s
  Import 2e integrals ...  CPU 1.24 s  wall 0.22 s

--------------------------------------------------------------------------------
                                   HF Summary                                   
--------------------------------------------------------------------------------
  Energy:                                                  -78.0357015979 a.u.
  Dip. moment [a.u.]:                  [  -0.000004,    0.000001,    0.000016]
  Total dipole [Debye]:                                               0.000043
  <r^2> [a.u.]:                        [ 176.759512,   34.452841,   11.689112]
  Total <r^2> [a.u.]:                                               222.901465
--------------------------------------------------------------------------------
  HF properties ...  CPU 0.03 s  wall 0.02 s
  MP(1) calculation ...  CPU 0.01 s  wall 0.01 s
  N^6 prerequesite intermediates ...  CPU 0.70 s  wall 0.11 s
  Difference density matrix of state mp2_gs printed to ASCII file 'State_mp2_gs_Difference.txt'
Exporting MP density matrix to file 'Densmat_MP.txt'.
Export successful
  Total density matrix of state mp2_gs printed to ASCII file 'State_mp2_gs_Total.txt'
Exporting MP density matrix to file 'Densmat_MP.txt'.
Export successful

--------------------------------------------------------------------------------
                                 MP(2) Summary                                  
--------------------------------------------------------------------------------
  MP energy contribution:                                   -0.2809431363 a.u.
  Total energy:                                            -78.3166447341 a.u.
  Dip. moment [a.u.]:                  [  -0.000004,    0.000001,    0.000016]
  Total dipole [Debye]:                                               0.000042
  <r^2> [a.u.]:                        [ 176.823950,   34.460050,   11.514638]
  Total <r^2> [a.u.]:                                               222.798637

  Density matrix analysis:
  ------------------------
  NOs
    Occupation of frontier NOs:
       0.0457   1.9378
    Number of electrons: 16.000000
    Number of unpaired electrons: n_u =  0.40880, n_u,nl =  0.04620
    NO participation ratio (PR_NO): 13.878888
  
  
  Mulliken Population Analysis
  Atom      Charge (e)              h+              e-           Del q
  --------------------------------------------------------------------
   1 H        0.055856        0.013744       -0.011415        0.002328
   2 C       -0.109242        0.094881       -0.100298       -0.005416
   3 H        0.053392        0.014328       -0.011239        0.003089
   4 C       -0.109251        0.094880       -0.100298       -0.005418
   5 H        0.053390        0.014328       -0.011239        0.003089
   6 H        0.055855        0.013744       -0.011415        0.002328
  --------------------------------------------------------------------
  Sum:       -0.000000        0.245905       -0.245905        0.000000
  
  Multipole moment analysis of the density matrix
    Molecular charge:                      -0.000000
    Number of electrons:                   16.000000
      Center of electronic charge [Ang]: [ -1.561339,  -0.065287,   0.002127]
    Total nuclear charge:                  16.000000
      Center of nuclear charge [Ang]:    [ -1.561339,  -0.065287,   0.002127]
    Dipole moment [D]:                     0.000042
      Cartesian components [D]:          [ -0.000011,   0.000002,   0.000041]
    RMS size of the density [Ang]:         1.207199
      Cartesian components [Ang]:        [  0.810528,   0.773854,   0.448912]
  
  Exciton analysis of the difference density matrix
    <r_h> [Ang]:                  [ -1.561338,  -0.065287,   0.002124]
    <r_e> [Ang]:                  [ -1.561339,  -0.065286,   0.002124]
    |<r_e - r_h>| [Ang]:            0.000001
    Hole size [Ang]:                1.403695
      Cartesian components [Ang]: [  0.851764,   0.844198,   0.729511]
    Electron size [Ang]:            1.361345
      Cartesian components [Ang]: [  0.893801,   0.849046,   0.577495]
--------------------------------------------------------------------------------
  MP(2) calculation ...  CPU 0.28 s  wall 0.21 s
  Start ADC(2)-s ...  CPU 0.02 s  wall 0.01 s
  ADC(2) intermediates ...  CPU 0.16 s  wall 0.05 s
  Starting Davidson for singlet states of irrep A ... 
--------------------------------------------------------------------------------
   It NVec Conv  Avg. Norm  Max. Norm  Conv. states           Remark
--------------------------------------------------------------------------------
        10    0  1.329e-01  4.714e-01  0.4112 n n n n n n n n Guess.
    1   20    0  2.484e-02  1.313e-01  0.3235 n n n n n n n n 
    2   30    0  6.691e-03  4.042e-02  0.3208 n n n n n n n n 
    3   40    0  2.540e-03  2.012e-02  0.3204 n n n n n n n n 
    4   50    0  1.055e-03  9.618e-03  0.3204 n n n n n n n n 
    5   20    0  7.356e-04  7.068e-03  0.3204 n n n n n n n n Subspace collapsed.
    6   30    0  1.504e-03  1.501e-02  0.3204 n n n n n n n n 
    7   40    0  1.048e-03  1.048e-02  0.3204 n n n n n n n n 
    8   50    0  8.952e-04  8.944e-03  0.3204 n n n n n n n n 
    9   20    1  5.513e-04  5.506e-03  0.3204 n y n n n n n n Subspace collapsed.
   10   30    3  4.360e-04  4.358e-03  0.3204 n y y y n n n n 
   11   40    5  1.844e-04  1.843e-03  0.3204 n y y y y y n n 
   12   50    5  1.884e-04  1.884e-03  0.3204 n y y y y y n n 
   13   20    6  1.212e-04  1.212e-03  0.3204 y y y y y y n n Subspace collapsed.
   14   30    6  2.078e-04  2.078e-03  0.3204 y y y y y y n n 
   15   40    6  2.121e-04  2.121e-03  0.3204 y y y y y y n n 
   16   50    6  1.694e-04  1.694e-03  0.3204 y y y y y y n n 
   17   20    7  1.020e-04  1.020e-03  0.3204 y y y y y y n y Subspace collapsed.
   18   30    7  7.471e-05  7.471e-04  0.3204 y y y y y y n y 
   19   40    8  3.584e-05  3.584e-04  0.3204 y y y y y y y y 
   20   50    8  4.808e-05  4.808e-04  0.3204 y y y y y y y y 
   21   20    8  2.488e-05  2.488e-04  0.3204 y y y y y y y y Subspace collapsed.
   22   21    8  2.515e-05  2.515e-04  0.3204 y y y y y y y y 
   23   22    8  2.514e-05  2.514e-04  0.3204 y y y y y y y y 
   24   31    8  4.822e-05  4.822e-04  0.3204 y y y y y y y y 
   25   33    8  4.666e-05  4.666e-04  0.3204 y y y y y y y y 
   26   35    8  4.746e-05  4.746e-04  0.3204 y y y y y y y y 
   27   37    8  4.951e-05  4.951e-04  0.3204 y y y y y y y y 
   28   37    8  4.951e-05  4.951e-04  0.3204 y y y y y y y y 
   29   47    8  4.785e-05  4.785e-04  0.3204 y y y y y y y y 
   30   50    8  4.748e-05  4.748e-04  0.3204 y y y y y y y y 
   31   16    9  2.392e-05  2.392e-04  0.3204 y y y y y y y y Subspace collapsed.
   32   22    9  1.488e-05  1.488e-04  0.3204 y y y y y y y y 
   33   27    9  7.807e-06  7.806e-05  0.3204 y y y y y y y y 
   34   32    9  1.234e-05  1.234e-04  0.3204 y y y y y y y y 
   35   37    9  1.354e-05  1.354e-04  0.3204 y y y y y y y y 
   36   37    9  1.354e-05  1.354e-04  0.3204 y y y y y y y y 
   37   45    9  9.221e-06  9.221e-05  0.3204 y y y y y y y y 
   38   45    9  9.221e-06  9.221e-05  0.3204 y y y y y y y y 
   39   50    9  4.914e-06  4.914e-05  0.3204 y y y y y y y y 
   40   11    9  4.895e-06  4.895e-05  0.3204 y y y y y y y y Subspace collapsed.
   41   16    9  2.614e-06  2.613e-05  0.3204 y y y y y y y y 
   42   16    9  2.614e-06  2.613e-05  0.3204 y y y y y y y y 
   43   22    9  1.814e-06  1.814e-05  0.3204 y y y y y y y y 
   44   27    9  9.898e-07  9.898e-06  0.3204 y y y y y y y y 
   45   31    9  6.063e-07  6.063e-06  0.3204 y y y y y y y y 
   46   35    9  4.210e-07  4.209e-06  0.3204 y y y y y y y y 
   47   39    9  3.106e-07  3.106e-06  0.3204 y y y y y y y y 
   48   43    9  4.278e-07  4.278e-06  0.3204 y y y y y y y y 
   49   47    9  4.402e-07  4.402e-06  0.3204 y y y y y y y y 
   50   50    9  3.200e-07  3.200e-06  0.3204 y y y y y y y y 
   51   13    9  1.470e-07  1.470e-06  0.3204 y y y y y y y y Subspace collapsed.
   52   16    9  1.142e-07  1.142e-06  0.3204 y y y y y y y y 
   53   19   10  7.678e-08  7.678e-07  0.3204 y y y y y y y y Converged.
--------------------------------------------------------------------------------
  Davidson Summary: 
 ------------------------------------------------------------
  State  0: excitation energy =   0.3204 a.u.   (converged)
  State  1: excitation energy =   0.3213 a.u.   (converged)
  State  2: excitation energy =   0.3354 a.u.   (converged)
  State  3: excitation energy =   0.3569 a.u.   (converged)
  State  4: excitation energy =   0.3747 a.u.   (converged)
  State  5: excitation energy =   0.3911 a.u.   (converged)
  State  6: excitation energy =   0.4145 a.u.   (converged)
  State  7: excitation energy =   0.4416 a.u.   (converged)
  State  8: excitation energy =   0.4516 a.u.   (converged)
  State  9: excitation energy =   0.4523 a.u.   (converged)
 ------------------------------------------------------------

  Singlet states of irrep A ...  CPU 278.49 s  wall 89.06 s
  TDMs ...  CPU 2.02 s  wall 0.82 s
  SDMs ...  CPU 4.82 s  wall 1.51 s
  Starting TPA DIIS iterations ... 
------------------------------------ 
   It     Res. Norm  Remark
------------------------------------
                       Guess.
    1     4.683e+00  
    2     6.182e+00  
    3     1.088e+00  
    4     2.496e-01  
    5     6.646e-02  
    6     2.611e-02  
    7     8.203e-03  
    8     1.402e-03  
    9     5.817e-04  
   10     9.073e-05  
   11     3.071e-05  
   12     5.069e-06  
   13     1.698e-06  
   14     5.457e-07  Converged.
   ... Converged in 14 steps (norm: 5.45724e-07)
------------------------------------
  Starting TPA DIIS iterations ... 
------------------------------------ 
   It     Res. Norm  Remark
------------------------------------
                       Guess.
    1     3.909e+00  
    2     5.223e+00  
    3     1.045e+00  
    4     2.869e-01  
    5     6.601e-02  
    6     2.958e-02  
    7     8.541e-03  
    8     1.887e-03  
    9     6.783e-04  
   10     1.073e-04  
   11     4.010e-05  
   12     5.521e-06  
   13     2.138e-06  
   14     5.079e-07  Converged.
   ... Converged in 14 steps (norm: 5.07948e-07)
------------------------------------
  Starting TPA DIIS iterations ... 
------------------------------------ 
   It     Res. Norm  Remark
------------------------------------
                       Guess.
    1     6.868e-01  
    2     4.790e-01  
    3     1.681e-01  
    4     3.720e-02  
    5     1.254e-02  
    6     7.395e-03  
    7     1.124e-03  
    8     4.818e-04  
    9     1.326e-04  
   10     2.956e-05  
   11     5.427e-06  
   12     2.005e-06  
   13     6.505e-07  Converged.
   ... Converged in 13 steps (norm: 6.50545e-07)
------------------------------------
  Starting TPA DIIS iterations ... 
------------------------------------ 
   It     Res. Norm  Remark
------------------------------------
                       Guess.
    1     4.707e+00  
    2     6.225e+00  
    3     1.094e+00  
    4     2.518e-01  
    5     6.710e-02  
    6     2.637e-02  
    7     8.288e-03  
    8     1.417e-03  
    9     5.882e-04  
   10     9.178e-05  
   11     3.109e-05  
   12     5.137e-06  
   13     1.721e-06  
   14     5.532e-07  Converged.
   ... Converged in 14 steps (norm: 5.53209e-07)
------------------------------------
  Starting TPA DIIS iterations ... 
------------------------------------ 
   It     Res. Norm  Remark
------------------------------------
                       Guess.
    1     3.929e+00  
    2     5.259e+00  
    3     1.051e+00  
    4     2.893e-01  
    5     6.666e-02  
    6     2.990e-02  
    7     8.632e-03  
    8     1.908e-03  
    9     6.860e-04  
   10     1.086e-04  
   11     4.059e-05  
   12     5.591e-06  
   13     2.166e-06  
   14     5.149e-07  Converged.
   ... Converged in 14 steps (norm: 5.14878e-07)
------------------------------------
  Starting TPA DIIS iterations ... 
------------------------------------ 
   It     Res. Norm  Remark
------------------------------------
                       Guess.
    1     6.877e-01  
    2     4.804e-01  
    3     1.688e-01  
    4     3.745e-02  
    5     1.267e-02  
    6     7.484e-03  
    7     1.134e-03  
    8     4.881e-04  
    9     1.344e-04  
   10     2.988e-05  
   11     5.480e-06  
   12     2.032e-06  
   13     6.598e-07  Converged.
   ... Converged in 13 steps (norm: 6.59756e-07)
------------------------------------
  Starting TPA DIIS iterations ... 
------------------------------------ 
   It     Res. Norm  Remark
------------------------------------
                       Guess.
    1     5.085e+00  
    2     6.902e+00  
    3     1.196e+00  
    4     2.864e-01  
    5     7.757e-02  
    6     3.074e-02  
    7     9.656e-03  
    8     1.652e-03  
    9     6.951e-04  
   10     1.089e-04  
   11     3.737e-05  
   12     6.262e-06  
   13     2.116e-06  
   14     6.771e-07  Converged.
   ... Converged in 14 steps (norm: 6.77082e-07)
------------------------------------
  Starting TPA DIIS iterations ... 
------------------------------------ 
   It     Res. Norm  Remark
------------------------------------
                       Guess.
    1     4.242e+00  
    2     5.830e+00  
    3     1.146e+00  
    4     3.289e-01  
    5     7.709e-02  
    6     3.513e-02  
    7     1.011e-02  
    8     2.245e-03  
    9     8.106e-04  
   10     1.288e-04  
   11     4.853e-05  
   12     6.739e-06  
   13     2.635e-06  
   14     6.309e-07  Converged.
   ... Converged in 14 steps (norm: 6.30856e-07)
------------------------------------
  Starting TPA DIIS iterations ... 
------------------------------------ 
   It     Res. Norm  Remark
------------------------------------
                       Guess.
    1     7.023e-01  
    2     5.010e-01  
    3     1.806e-01  
    4     4.150e-02  
    5     1.466e-02  
    6     8.870e-03  
    7     1.305e-03  
    8     5.925e-04  
    9     1.654e-04  
   10     3.459e-05  
   11     6.344e-06  
   12     2.485e-06  
   13     8.142e-07  Converged.
   ... Converged in 13 steps (norm: 8.14165e-07)
------------------------------------
  Starting TPA DIIS iterations ... 
------------------------------------ 
   It     Res. Norm  Remark
------------------------------------
                       Guess.
    1     5.762e+00  
    2     8.154e+00  
    3     1.378e+00  
    4     3.528e-01  
    5     9.768e-02  
    6     3.920e-02  
    7     1.229e-02  
    8     2.108e-03  
    9     9.054e-04  
   10     1.426e-04  
   11     5.003e-05  
   12     8.538e-06  
   13     2.932e-06  
   14     9.277e-07  Converged.
   ... Converged in 14 steps (norm: 9.27658e-07)
------------------------------------
  Starting TPA DIIS iterations ... 
------------------------------------ 
   It     Res. Norm  Remark
------------------------------------
                       Guess.
    1     4.803e+00  
    2     6.887e+00  
    3     1.317e+00  
    4     4.052e-01  
    5     9.721e-02  
    6     4.537e-02  
    7     1.298e-02  
    8     2.901e-03  
    9     1.054e-03  
   10     1.682e-04  
   11     6.405e-05  
   12     9.006e-06  
   13     3.562e-06  
   14     8.734e-07  Converged.
   ... Converged in 14 steps (norm: 8.73395e-07)
------------------------------------
  Starting TPA DIIS iterations ... 
------------------------------------ 
   It     Res. Norm  Remark
------------------------------------
                       Guess.
    1     7.256e-01  
    2     5.357e-01  
    3     2.009e-01  
    4     4.926e-02  
    5     1.861e-02  
    6     1.124e-02  
    7     1.653e-03  
    8     8.026e-04  
    9     2.264e-04  
   10     4.131e-05  
   11     8.030e-06  
   12     3.409e-06  
   13     1.136e-06  
   14     5.420e-07  Converged.
   ... Converged in 14 steps (norm: 5.42042e-07)
------------------------------------
  Starting TPA DIIS iterations ... 
------------------------------------ 
   It     Res. Norm  Remark
------------------------------------
                       Guess.
    1     6.445e+00  
    2     9.463e+00  
    3     1.560e+00  
    4     4.249e-01  
    5     1.195e-01  
    6     4.848e-02  
    7     1.517e-02  
    8     2.606e-03  
    9     1.139e-03  
   10     1.801e-04  
   11     6.450e-05  
   12     1.113e-05  
   13     3.888e-06  
   14     1.216e-06  
   15     3.905e-07  Converged.
   ... Converged in 15 steps (norm: 3.90467e-07)
------------------------------------
  Starting TPA DIIS iterations ... 
------------------------------------ 
   It     Res. Norm  Remark
------------------------------------
                       Guess.
    1     5.371e+00  
    2     7.992e+00  
    3     1.487e+00  
    4     4.882e-01  
    5     1.191e-01  
    6     5.673e-02  
    7     1.612e-02  
    8     3.623e-03  
    9     1.323e-03  
   10     2.118e-04  
   11     8.096e-05  
   12     1.152e-05  
   13     4.556e-06  
   14     1.164e-06  
   15     3.285e-07  Converged.
   ... Converged in 15 steps (norm: 3.28513e-07)
------------------------------------
  Starting TPA DIIS iterations ... 
------------------------------------ 
   It     Res. Norm  Remark
------------------------------------
                       Guess.
    1     7.462e-01  
    2     5.680e-01  
    3     2.207e-01  
    4     5.777e-02  
    5     2.286e-02  
    6     1.341e-02  
    7     2.054e-03  
    8     1.028e-03  
    9     2.905e-04  
   10     4.639e-05  
   11     9.924e-06  
   12     4.478e-06  
   13     1.525e-06  
   14     7.210e-07  Converged.
   ... Converged in 14 steps (norm: 7.21037e-07)
------------------------------------
  Starting TPA DIIS iterations ... 
------------------------------------ 
   It     Res. Norm  Remark
------------------------------------
                       Guess.
    1     7.194e+00  
    2     1.095e+01  
    3     1.758e+00  
    4     5.093e-01  
    5     1.451e-01  
    6     5.947e-02  
    7     1.854e-02  
    8     3.193e-03  
    9     1.420e-03  
   10     2.249e-04  
   11     8.216e-05  
   12     1.427e-05  
   13     5.082e-06  
   14     1.574e-06  
   15     5.113e-07  Converged.
   ... Converged in 15 steps (norm: 5.11291e-07)
------------------------------------
  Starting TPA DIIS iterations ... 
------------------------------------ 
   It     Res. Norm  Remark
------------------------------------
                       Guess.
    1     5.994e+00  
    2     9.246e+00  
    3     1.673e+00  
    4     5.857e-01  
    5     1.449e-01  
    6     7.029e-02  
    7     1.983e-02  
    8     4.479e-03  
    9     1.642e-03  
   10     2.633e-04  
   11     1.004e-04  
   12     1.451e-05  
   13     5.639e-06  
   14     1.536e-06  
   15     4.143e-07  Converged.
   ... Converged in 15 steps (norm: 4.14285e-07)
------------------------------------
  Starting TPA DIIS iterations ... 
------------------------------------ 
   It     Res. Norm  Remark
------------------------------------
                       Guess.
    1     7.660e-01  
    2     6.009e-01  
    3     2.414e-01  
    4     6.798e-02  
    5     2.760e-02  
    6     1.560e-02  
    7     2.549e-03  
    8     1.272e-03  
    9     3.599e-04  
   10     5.134e-05  
   11     1.224e-05  
   12     5.803e-06  
   13     2.043e-06  
   14     9.708e-07  Converged.
   ... Converged in 14 steps (norm: 9.70802e-07)
------------------------------------
  Starting TPA DIIS iterations ... 
------------------------------------ 
   It     Res. Norm  Remark
------------------------------------
                       Guess.
    1     8.544e+00  
    2     1.374e+01  
    3     2.112e+00  
    4     6.737e-01  
    5     1.950e-01  
    6     8.122e-02  
    7     2.515e-02  
    8     4.351e-03  
    9     1.983e-03  
   10     3.143e-04  
   11     1.180e-04  
   12     2.059e-05  
   13     7.564e-06  
   14     2.337e-06  
   15     7.584e-07  Converged.
   ... Converged in 15 steps (norm: 7.58375e-07)
------------------------------------
  Starting TPA DIIS iterations ... 
------------------------------------ 
   It     Res. Norm  Remark
------------------------------------
                       Guess.
    1     7.121e+00  
    2     1.161e+01  
    3     2.002e+00  
    4     7.761e-01  
    5     1.954e-01  
    6     9.739e-02  
    7     2.711e-02  
    8     6.172e-03  
    9     2.276e-03  
   10     3.652e-04  
   11     1.363e-04  
   12     2.067e-05  
   13     7.432e-06  
   14     2.336e-06  
   15     6.125e-07  Converged.
   ... Converged in 15 steps (norm: 6.12461e-07)
------------------------------------
  Starting TPA DIIS iterations ... 
------------------------------------ 
   It     Res. Norm  Remark
------------------------------------
                       Guess.
    1     7.965e-01  
    2     6.549e-01  
    3     2.770e-01  
    4     8.899e-02  
    5     3.575e-02  
    6     1.934e-02  
    7     3.567e-03  
    8     1.652e-03  
    9     4.792e-04  
   10     6.151e-05  
   11     1.699e-05  
   12     8.591e-06  
   13     3.351e-06  
   14     1.577e-06  
   15     5.443e-07  Converged.
   ... Converged in 15 steps (norm: 5.44318e-07)
------------------------------------
  Starting TPA DIIS iterations ... 
------------------------------------ 
   It     Res. Norm  Remark
------------------------------------
                       Guess.
    1     1.068e+01  
    2     1.845e+01  
    3     2.660e+00  
    4     9.594e-01  
    5     2.824e-01  
    6     1.200e-01  
    7     3.677e-02  
    8     6.409e-03  
    9     3.004e-03  
   10     4.751e-04  
   11     1.828e-04  
   12     3.189e-05  
   13     1.213e-05  
   14     3.893e-06  
   15     1.227e-06  
   16     3.599e-07  Converged.
   ... Converged in 16 steps (norm: 3.59908e-07)
------------------------------------
  Starting TPA DIIS iterations ... 
------------------------------------ 
   It     Res. Norm  Remark
------------------------------------
                       Guess.
    1     8.908e+00  
    2     1.559e+01  
    3     2.511e+00  
    4     1.106e+00  
    5     2.843e-01  
    6     1.463e-01  
    7     3.998e-02  
    8     9.188e-03  
    9     3.405e-03  
   10     5.452e-04  
   11     1.934e-04  
   12     3.353e-05  
   13     1.042e-05  
   14     3.878e-06  
   15     1.230e-06  
   16     2.967e-07  Converged.
   ... Converged in 16 steps (norm: 2.96667e-07)
------------------------------------
  Starting TPA DIIS iterations ... 
------------------------------------ 
   It     Res. Norm  Remark
------------------------------------
                       Guess.
    1     8.347e-01  
    2     7.295e-01  
    3     3.288e-01  
    4     1.299e-01  
    5     4.768e-02  
    6     2.526e-02  
    7     5.421e-03  
    8     2.054e-03  
    9     6.529e-04  
   10     8.286e-05  
   11     2.580e-05  
   12     1.412e-05  
   13     7.153e-06  
   14     2.721e-06  
   15     9.792e-07  Converged.
   ... Converged in 15 steps (norm: 9.79249e-07)
------------------------------------
  Starting TPA DIIS iterations ... 
------------------------------------ 
   It     Res. Norm  Remark
------------------------------------
                       Guess.
    1     1.168e+01  
    2     2.077e+01  
    3     2.913e+00  
    4     1.103e+00  
    5     3.266e-01  
    6     1.399e-01  
    7     4.267e-02  
    8     7.462e-03  
    9     3.533e-03  
   10     5.577e-04  
   11     2.157e-04  
   12     3.767e-05  
   13     1.448e-05  
   14     4.789e-06  
   15     1.501e-06  
   16     4.663e-07  Converged.
   ... Converged in 16 steps (norm: 4.66279e-07)
------------------------------------
  Starting TPA DIIS iterations ... 
------------------------------------ 
   It     Res. Norm  Remark
------------------------------------
                       Guess.
    1     9.751e+00  
    2     1.756e+01  
    3     2.746e+00  
    4     1.271e+00  
    5     3.295e-01  
    6     1.715e-01  
    7     4.654e-02  
    8     1.074e-02  
    9     3.984e-03  
   10     6.367e-04  
   11     2.210e-04  
   12     4.127e-05  
   13     1.224e-05  
   14     4.702e-06  
   15     1.664e-06  
   16     3.787e-07  Converged.
   ... Converged in 16 steps (norm: 3.78666e-07)
------------------------------------
  Starting TPA DIIS iterations ... 
------------------------------------ 
   It     Res. Norm  Remark
------------------------------------
                       Guess.
    1     8.498e-01  
    2     7.612e-01  
    3     3.517e-01  
    4     1.527e-01  
    5     5.331e-02  
    6     2.808e-02  
    7     6.365e-03  
    8     2.177e-03  
    9     7.304e-04  
   10     9.448e-05  
   11     3.040e-05  
   12     1.726e-05  
   13     9.941e-06  
   14     3.239e-06  
   15     1.221e-06  
   16     2.844e-07  Converged.
   ... Converged in 16 steps (norm: 2.84365e-07)
------------------------------------
  Starting TPA DIIS iterations ... 
------------------------------------ 
   It     Res. Norm  Remark
------------------------------------
                       Guess.
    1     1.176e+01  
    2     2.094e+01  
    3     2.931e+00  
    4     1.113e+00  
    5     3.300e-01  
    6     1.414e-01  
    7     4.312e-02  
    8     7.542e-03  
    9     3.573e-03  
   10     5.640e-04  
   11     2.182e-04  
   12     3.810e-05  
   13     1.466e-05  
   14     4.858e-06  
   15     1.524e-06  
   16     4.748e-07  Converged.
   ... Converged in 16 steps (norm: 4.74786e-07)
------------------------------------
  Starting TPA DIIS iterations ... 
------------------------------------ 
   It     Res. Norm  Remark
------------------------------------
                       Guess.
    1     9.813e+00  
    2     1.771e+01  
    3     2.763e+00  
    4     1.284e+00  
    5     3.329e-01  
    6     1.734e-01  
    7     4.703e-02  
    8     1.085e-02  
    9     4.027e-03  
   10     6.436e-04  
   11     2.230e-04  
   12     4.188e-05  
   13     1.239e-05  
   14     4.765e-06  
   15     1.699e-06  
   16     3.854e-07  Converged.
   ... Converged in 16 steps (norm: 3.85383e-07)
------------------------------------
  Starting TPA DIIS iterations ... 
------------------------------------ 
   It     Res. Norm  Remark
------------------------------------
                       Guess.
    1     8.508e-01  
    2     7.634e-01  
    3     3.534e-01  
    4     1.544e-01  
    5     5.373e-02  
    6     2.829e-02  
    7     6.435e-03  
    8     2.184e-03  
    9     7.360e-04  
   10     9.536e-05  
   11     3.075e-05  
   12     1.751e-05  
   13     1.017e-05  
   14     3.276e-06  
   15     1.239e-06  
   16     2.877e-07  Converged.
   ... Converged in 16 steps (norm: 2.87738e-07)
------------------------------------
  Two-photon absorbption ...  CPU 165.57 s  wall 44.76 s
  Transition density matrix of state singlet_A_1 printed to ASCII file 'State_singlet_A_1_Transition.txt'
  Transition density matrix of state singlet_A_2 printed to ASCII file 'State_singlet_A_2_Transition.txt'
  Transition density matrix of state singlet_A_3 printed to ASCII file 'State_singlet_A_3_Transition.txt'
  Transition density matrix of state singlet_A_4 printed to ASCII file 'State_singlet_A_4_Transition.txt'
  Transition density matrix of state singlet_A_5 printed to ASCII file 'State_singlet_A_5_Transition.txt'
  Transition density matrix of state singlet_A_6 printed to ASCII file 'State_singlet_A_6_Transition.txt'
  Transition density matrix of state singlet_A_7 printed to ASCII file 'State_singlet_A_7_Transition.txt'
  Transition density matrix of state singlet_A_8 printed to ASCII file 'State_singlet_A_8_Transition.txt'
  Transition density matrix of state singlet_A_9 printed to ASCII file 'State_singlet_A_9_Transition.txt'
  Transition density matrix of state singlet_A_10 printed to ASCII file 'State_singlet_A_10_Transition.txt'
  Transition properties ...  CPU 0.41 s  wall 0.73 s
  Difference density matrix of state singlet_A_1 printed to ASCII file 'State_singlet_A_1_Difference.txt'
  Total density matrix of state singlet_A_1 printed to ASCII file 'State_singlet_A_1_Total.txt'
  Difference density matrix of state singlet_A_2 printed to ASCII file 'State_singlet_A_2_Difference.txt'
  Total density matrix of state singlet_A_2 printed to ASCII file 'State_singlet_A_2_Total.txt'
  Difference density matrix of state singlet_A_3 printed to ASCII file 'State_singlet_A_3_Difference.txt'
  Total density matrix of state singlet_A_3 printed to ASCII file 'State_singlet_A_3_Total.txt'
  Difference density matrix of state singlet_A_4 printed to ASCII file 'State_singlet_A_4_Difference.txt'
  Total density matrix of state singlet_A_4 printed to ASCII file 'State_singlet_A_4_Total.txt'
  Difference density matrix of state singlet_A_5 printed to ASCII file 'State_singlet_A_5_Difference.txt'
  Total density matrix of state singlet_A_5 printed to ASCII file 'State_singlet_A_5_Total.txt'
  Difference density matrix of state singlet_A_6 printed to ASCII file 'State_singlet_A_6_Difference.txt'
  Total density matrix of state singlet_A_6 printed to ASCII file 'State_singlet_A_6_Total.txt'
  Difference density matrix of state singlet_A_7 printed to ASCII file 'State_singlet_A_7_Difference.txt'
  Total density matrix of state singlet_A_7 printed to ASCII file 'State_singlet_A_7_Total.txt'
  Difference density matrix of state singlet_A_8 printed to ASCII file 'State_singlet_A_8_Difference.txt'
  Total density matrix of state singlet_A_8 printed to ASCII file 'State_singlet_A_8_Total.txt'
  Difference density matrix of state singlet_A_9 printed to ASCII file 'State_singlet_A_9_Difference.txt'
  Total density matrix of state singlet_A_9 printed to ASCII file 'State_singlet_A_9_Total.txt'
  Difference density matrix of state singlet_A_10 printed to ASCII file 'State_singlet_A_10_Difference.txt'
  Total density matrix of state singlet_A_10 printed to ASCII file 'State_singlet_A_10_Total.txt'
  Properties ...  CPU 0.71 s  wall 1.22 s
  ISR TDMS ...  CPU 29.90 s  wall 9.84 s
  ISR transition properties ...  CPU 0.53 s  wall 0.26 s
  Sum-over-states TPA ...  CPU 0.00 s  wall 0.00 s

--------------------------------------------------------------------------------
                   State-averaged natural transition orbitals
--------------------------------------------------------------------------------
--------------------------------------------------------------------------------
  SA-NTO decomposition ...  CPU 0.01 s  wall 0.03 s

--------------------------------------------------------------------------------
                             Excited State Summary
--------------------------------------------------------------------------------
--------------------------------------------------------------------------------

  Excited state 1 (singlet, A)                                     [converged]
  ----------------------------------------------------------------------------
  Term symbol:  2 (1) A                                     R^2 =  3.22780e-14

  Total energy:                                            -77.9962867118 a.u.
  Excitation energy:                                               8.717385 eV

  Osc. strength:                                                      0.445737
  Trans. dip. moment [a.u.]:           [  -1.058308,    0.983348,    0.008207]
  <i|r^2|0> [a.u.]:                    [  -6.244940,    0.243052,   -0.000609]
  Two-photon absorption cross-section (SoS) [a.u.]:                   0.000022
  Two-photon absorption matrix (SoS) [a.u.]:
                                       |    0.000096    0.000130   -0.001345 |
                                       |    0.000130    0.000119   -0.000927 |
                                       |   -0.001345   -0.000927   -0.000258 |
  Two-photon absorption cross-section [a.u.]:                         0.000020
  Two-photon absorption matrix [a.u.]:
                                       |    0.000009   -0.000064   -0.000040 |
                                       |   -0.000064   -0.000148    0.001573 |
                                       |   -0.000040    0.001573    0.000179 |

  Dip. moment [a.u.]:                  [  -0.000005,   -0.000003,    0.000043]
  Total dipole [Debye]:                                               0.000111
  <r^2> [a.u.]:                        [ 177.650513,   35.066717,   11.921466]
  Total <r^2> [a.u.]:                                               224.638696

  V1^2 = 0.9713, V2^2 = 0.0287

  Important amplitudes:
      occ i     occ j     vir a      vir b          v   
    -----------------------------------------------------
     8 (A) A              9 (A) A                -0.6806
     6 (A) A             14 (A) A                -0.0619
     4 (A) A             10 (A) A                -0.0608
     7 (A) A             16 (A) A                -0.0543
     5 (A) A             13 (A) A                 0.0532
     6 (A) A             23 (A) A                 0.0460
     8 (A) A             20 (A) A                -0.0350
     6 (A) A             19 (A) A                -0.0270
     3 (A) A             12 (A) A                -0.0269
     5 (A) A             22 (A) A                -0.0219
     3 (A) A             27 (A) A                -0.0186
     4 (A) A             24 (A) A                -0.0185
     8 (A) A   8 (A) B   17 (A) A   20 (A) B      0.0184
     7 (A) A             11 (A) A                -0.0177
     7 (A) A             21 (A) A                -0.0175
     6 (A) A             16 (A) A                -0.0166
     6 (A) A             27 (A) A                -0.0159
     8 (A) A   8 (A) B    9 (A) A   28 (A) B      0.0157
     7 (A) A             12 (A) A                -0.0148
     3 (A) A             14 (A) A                -0.0146
     7 (A) A             23 (A) A                -0.0145
     3 (A) A   4 (A) B    9 (A) A    9 (A) B      0.0129
     5 (A) A             10 (A) A                -0.0122
     6 (A) A             12 (A) A                 0.0121
     3 (A) A             19 (A) A                -0.0117
     8 (A) A   8 (A) B   18 (A) A   19 (A) B      0.0108
     7 (A) A             19 (A) A                 0.0107
     7 (A) A             14 (A) A                 0.0106
     7 (A) A             32 (A) A                -0.0094
     3 (A) A             11 (A) A                 0.0093
     3 (A) A             23 (A) A                 0.0082
     7 (A) A             36 (A) A                 0.0078
     8 (A) A   8 (A) B   25 (A) A   29 (A) B     -0.0069
     6 (A) A             34 (A) A                 0.0068
     6 (A) A             40 (A) A                 0.0062
     3 (A) A   6 (A) B    9 (A) A   28 (A) B      0.0062
     8 (A) A   8 (A) B    9 (A) A   29 (A) B     -0.0061
     5 (A) A   7 (A) B    9 (A) A    9 (A) B      0.0059
     5 (A) A             26 (A) A                 0.0058
     5 (A) A   8 (A) B   11 (A) A    9 (A) B     -0.0058
    -----------------------------------------------------

  Density matrix analysis:
  ------------------------
  NOs
    Occupation of frontier NOs:
       0.9484   1.0226
    Number of electrons: 16.000000
    Number of unpaired electrons: n_u =  2.31770, n_u,nl =  2.03371
    NO participation ratio (PR_NO):  2.879902
  
  
  Mulliken Population Analysis
  Atom      Charge (e)              h+              e-           Del q
  --------------------------------------------------------------------
   1 H        0.065012        0.021163       -0.012007        0.009156
   2 C       -0.124822        0.490418       -0.505997       -0.015579
   3 H        0.059816        0.019481       -0.013057        0.006424
   4 C       -0.124833        0.490416       -0.505998       -0.015582
   5 H        0.059815        0.019482       -0.013057        0.006425
   6 H        0.065011        0.021163       -0.012007        0.009156
  --------------------------------------------------------------------
  Sum:       -0.000000        1.062123       -1.062123       -0.000000
  
  Multipole moment analysis of the density matrix
    Molecular charge:                      -0.000000
    Number of electrons:                   16.000000
      Center of electronic charge [Ang]: [ -1.561338,  -0.065286,   0.002126]
    Total nuclear charge:                  16.000000
      Center of nuclear charge [Ang]:    [ -1.561339,  -0.065287,   0.002127]
    Dipole moment [D]:                     0.000111
      Cartesian components [D]:          [ -0.000013,  -0.000007,   0.000110]
    RMS size of the density [Ang]:         1.220464
      Cartesian components [Ang]:        [  0.819404,   0.780684,   0.456774]
  
  Exciton analysis of the difference density matrix
    <r_h> [Ang]:                  [ -1.561338,  -0.065291,   0.002176]
    <r_e> [Ang]:                  [ -1.561338,  -0.065289,   0.002163]
    |<r_e - r_h>| [Ang]:            0.000014
    Hole size [Ang]:                1.287537
      Cartesian components [Ang]: [  0.742809,   0.702136,   0.782938]
    Electron size [Ang]:            1.463860
      Cartesian components [Ang]: [  0.877320,   0.808049,   0.848676]

  Transition density matrix analysis:
  -----------------------------------
  
  CT numbers (Mulliken)
    omega =     0.9530
    <Phe> =    -0.1602
  
  Exciton analysis of the transition density matrix
    Trans. dipole moment [D]:             1.835986
      Cartesian components [D]:         [ -1.344976,   1.249711,   0.010430]
    <r_h> [Ang]:                        [ -1.561335,  -0.065288,   0.002122]
    <r_e> [Ang]:                        [ -1.561337,  -0.065288,   0.002146]
    |<r_e - r_h>| [Ang]:                  0.000024
    Hole size [Ang]:                      1.214986
      Cartesian components [Ang]:       [  0.661598,   0.626285,   0.803894]
    Electron size [Ang]:                  1.486360
      Cartesian components [Ang]:       [  0.888219,   0.816031,   0.868578]
    RMS electron-hole separation [Ang]:   1.936918
      Cartesian components [Ang]:       [  1.138343,   1.043153,   1.169469]
    Covariance(r_h, r_e) [Ang^2]:        -0.033097
    Correlation coefficient:             -0.018327
    Center-of-mass size [Ang]:            0.951218
      Cartesian components [Ang]:       [  0.537927,   0.506979,   0.598684]

  Decomposition into state-averaged NTOs
    H- 0 -> L+ 0:  0.6694 ( 89.6%)
    H- 2 -> L+ 5:  0.0822 (  1.4%)
                   omega =  95.3%
  ----------------------------------------------------------------------------


  Excited state 2 (singlet, A)                                     [converged]
  ----------------------------------------------------------------------------
  Term symbol:  3 (1) A                                     R^2 =  7.04544e-14

  Total energy:                                            -77.9953265230 a.u.
  Excitation energy:                                               8.743513 eV

  Osc. strength:                                                      0.000006
  Trans. dip. moment [a.u.]:           [   0.003889,   -0.003604,   -0.000036]
  <i|r^2|0> [a.u.]:                    [   0.059832,    0.110110,   -0.147880]
  Two-photon absorption cross-section (SoS) [a.u.]:                   2.213662
  Two-photon absorption matrix (SoS) [a.u.]:
                                       |    0.041263    0.040155   -0.422655 |
                                       |    0.040155    0.035464   -0.303249 |
                                       |   -0.422655   -0.303249   -0.077695 |
  Two-photon absorption cross-section [a.u.]:                         1.299019
  Two-photon absorption matrix [a.u.]:
                                       |    0.009208   -0.015231   -0.064328 |
                                       |   -0.015231   -0.051791    0.394652 |
                                       |   -0.064328    0.394652    0.041790 |

  Dip. moment [a.u.]:                  [  -0.000040,    0.000042,    0.000012]
  Total dipole [Debye]:                                               0.000150
  <r^2> [a.u.]:                        [ 176.952621,   32.259714,   13.245401]
  Total <r^2> [a.u.]:                                               222.457736

  V1^2 = 0.9552, V2^2 = 0.0448

  Important amplitudes:
      occ i     occ j     vir a      vir b          v   
    -----------------------------------------------------
     7 (A) A              9 (A) A                -0.6744
     8 (A) A             11 (A) A                -0.1052
     7 (A) A             20 (A) A                -0.0772
     8 (A) A             12 (A) A                -0.0506
     6 (A) A              9 (A) A                 0.0402
     5 (A) A   8 (A) B    9 (A) A    9 (A) B      0.0302
     8 (A) A             16 (A) A                 0.0218
     3 (A) A              9 (A) A                 0.0161
     4 (A) A   7 (A) B    9 (A) A   19 (A) B      0.0135
     5 (A) A             28 (A) A                 0.0133
     8 (A) A             21 (A) A                -0.0129
     5 (A) A   7 (A) B    9 (A) A   16 (A) B     -0.0122
     7 (A) A   8 (A) B   20 (A) A   17 (A) B      0.0106
     8 (A) A             19 (A) A                -0.0091
     5 (A) A   8 (A) B    9 (A) A   20 (A) B      0.0090
     6 (A) A             20 (A) A                 0.0086
     5 (A) A   6 (A) A    9 (A) A   23 (A) A      0.0085
     7 (A) A   8 (A) A    9 (A) A   28 (A) A     -0.0085
     8 (A) A   7 (A) B    9 (A) A   28 (A) B      0.0085
     5 (A) A   6 (A) A    9 (A) A   14 (A) A     -0.0084
     4 (A) A   5 (A) A    9 (A) A   10 (A) A      0.0080
     3 (A) A   7 (A) B    9 (A) A   18 (A) B     -0.0079
     4 (A) A   6 (A) B    9 (A) A   16 (A) B      0.0077
     5 (A) A   6 (A) B    9 (A) A   23 (A) B      0.0075
     5 (A) A   7 (A) A    9 (A) A   16 (A) A     -0.0075
     7 (A) A   8 (A) B   17 (A) A   20 (A) B      0.0075
     4 (A) A   7 (A) B   19 (A) A    9 (A) B      0.0071
     4 (A) A   8 (A) B    9 (A) A   25 (A) B      0.0071
     5 (A) A   6 (A) B    9 (A) A   19 (A) B     -0.0071
     8 (A) A             14 (A) A                 0.0071
     7 (A) A   8 (A) B   19 (A) A   18 (A) B      0.0069
     5 (A) A   5 (A) B    9 (A) A   13 (A) B      0.0067
     6 (A) A   7 (A) B    9 (A) A   18 (A) B      0.0067
     5 (A) A   8 (A) A    9 (A) A   20 (A) A      0.0066
     7 (A) A   8 (A) B   17 (A) A    9 (A) B      0.0065
     5 (A) A   6 (A) B    9 (A) A   14 (A) B     -0.0065
     7 (A) A   7 (A) B   20 (A) A   22 (A) B      0.0064
     4 (A) A   7 (A) A    9 (A) A   19 (A) A      0.0063
     4 (A) A   5 (A) B    9 (A) A   18 (A) B     -0.0063
     5 (A) A   7 (A) B    9 (A) A   19 (A) B      0.0061
    -----------------------------------------------------

  Density matrix analysis:
  ------------------------
  NOs
    Occupation of frontier NOs:
       0.9748   1.0345
    Number of electrons: 16.000000
    Number of unpaired electrons: n_u =  2.35415, n_u,nl =  2.05090
    NO participation ratio (PR_NO):  2.921876
  
  
  Mulliken Population Analysis
  Atom      Charge (e)              h+              e-           Del q
  --------------------------------------------------------------------
   1 H        0.110628        0.070715       -0.015943        0.054772
   2 C       -0.311102        0.286203       -0.488063       -0.201860
   3 H        0.200471        0.170106       -0.023027        0.147079
   4 C       -0.311112        0.286214       -0.488075       -0.201861
   5 H        0.200482        0.170114       -0.023022        0.147092
   6 H        0.110633        0.070723       -0.015944        0.054778
  --------------------------------------------------------------------
  Sum:       -0.000000        1.054074       -1.054074        0.000000
  
  Multipole moment analysis of the density matrix
    Molecular charge:                      -0.000000
    Number of electrons:                   16.000000
      Center of electronic charge [Ang]: [ -1.561337,  -0.065288,   0.002127]
    Total nuclear charge:                  16.000000
      Center of nuclear charge [Ang]:    [ -1.561339,  -0.065287,   0.002127]
    Dipole moment [D]:                     0.000150
      Cartesian components [D]:          [ -0.000101,   0.000107,   0.000029]
    RMS size of the density [Ang]:         1.204726
      Cartesian components [Ang]:        [  0.811919,   0.748559,   0.481470]
  
  Exciton analysis of the difference density matrix
    <r_h> [Ang]:                  [ -1.561359,  -0.065264,   0.002069]
    <r_e> [Ang]:                  [ -1.561341,  -0.065285,   0.002071]
    |<r_e - r_h>| [Ang]:            0.000027
    Hole size [Ang]:                1.485722
      Cartesian components [Ang]: [  0.851297,   1.130942,   0.451257]
    Electron size [Ang]:            1.454942
      Cartesian components [Ang]: [  0.871175,   0.833354,   0.814514]

  Transition density matrix analysis:
  -----------------------------------
  
  CT numbers (Mulliken)
    omega =     0.9219
    <Phe> =    -0.0136
  
  Exciton analysis of the transition density matrix
    Trans. dipole moment [D]:             0.006738
      Cartesian components [D]:         [  0.004942,  -0.004580,  -0.000046]
    <r_h> [Ang]:                        [ -1.561367,  -0.065264,   0.002124]
    <r_e> [Ang]:                        [ -1.561339,  -0.065288,   0.002080]
    |<r_e - r_h>| [Ang]:                  0.000058
    Hole size [Ang]:                      1.512223
      Cartesian components [Ang]:       [  0.850905,   1.170880,   0.437972]
    Electron size [Ang]:                  1.451468
      Cartesian components [Ang]:       [  0.865740,   0.814949,   0.832533]
    RMS electron-hole separation [Ang]:   2.076372
      Cartesian components [Ang]:       [  1.198228,   1.411472,   0.939850]
    Covariance(r_h, r_e) [Ang^2]:         0.041128
    Correlation coefficient:              0.018738
    Center-of-mass size [Ang]:            1.057808
      Cartesian components [Ang]:       [  0.614683,   0.720755,   0.470782]

  Decomposition into state-averaged NTOs
    H- 1 -> L+ 0:  0.6662 ( 88.8%)
    H- 0 -> L+ 2: -0.1149 (  2.6%)
                   omega =  92.2%
  ----------------------------------------------------------------------------


  Excited state 3 (singlet, A)                                     [converged]
  ----------------------------------------------------------------------------
  Term symbol:  4 (1) A                                     R^2 =  7.15038e-14

  Total energy:                                            -77.9812155611 a.u.
  Excitation energy:                                               9.127492 eV

  Osc. strength:                                                      0.023438
  Trans. dip. moment [a.u.]:           [   0.014763,    0.020157,   -0.322784]
  <i|r^2|0> [a.u.]:                    [   0.086920,    0.005181,    0.002603]
  Two-photon absorption cross-section (SoS) [a.u.]:                   0.000016
  Two-photon absorption matrix (SoS) [a.u.]:
                                       |   -0.001149   -0.000003   -0.000147 |
                                       |   -0.000003    0.001561    0.000037 |
                                       |   -0.000147    0.000037    0.000137 |
  Two-photon absorption cross-section [a.u.]:                         0.000009
  Two-photon absorption matrix [a.u.]:
                                       |   -0.000766   -0.000057   -0.000123 |
                                       |   -0.000057    0.001192    0.000039 |
                                       |   -0.000123    0.000039    0.000086 |

  Dip. moment [a.u.]:                  [   0.000046,    0.000063,   -0.000010]
  Total dipole [Debye]:                                               0.000201
  <r^2> [a.u.]:                        [ 182.120292,   40.289666,   11.055414]
  Total <r^2> [a.u.]:                                               233.465372

  V1^2 = 0.9580, V2^2 = 0.0420

  Important amplitudes:
      occ i     occ j     vir a      vir b          v   
    -----------------------------------------------------
     8 (A) A             10 (A) A                 0.6880
     8 (A) A             24 (A) A                 0.0493
     8 (A) A             18 (A) A                -0.0330
     8 (A) A             13 (A) A                -0.0313
     4 (A) A              9 (A) A                 0.0244
     8 (A) A   8 (A) B    9 (A) A   12 (A) B      0.0215
     8 (A) A   8 (A) B   10 (A) A   17 (A) B      0.0171
     5 (A) A   8 (A) B   11 (A) A   10 (A) B      0.0158
     8 (A) A             15 (A) A                -0.0150
     8 (A) A             22 (A) A                 0.0140
     7 (A) A   8 (A) B   13 (A) A   10 (A) B     -0.0136
     6 (A) A   8 (A) A   10 (A) A   15 (A) A      0.0104
     4 (A) A   8 (A) B   12 (A) A   10 (A) B      0.0104
     7 (A) A   8 (A) B   22 (A) A   10 (A) B      0.0103
     4 (A) A   8 (A) A   10 (A) A   12 (A) A     -0.0102
     6 (A) A   8 (A) B   15 (A) A   10 (A) B     -0.0101
     7 (A) A   8 (A) A   10 (A) A   22 (A) A     -0.0096
     7 (A) A   8 (A) A   10 (A) A   13 (A) A      0.0092
     5 (A) A   8 (A) B   21 (A) A   10 (A) B      0.0091
     5 (A) A   8 (A) A   10 (A) A   11 (A) A     -0.0089
     6 (A) A   8 (A) B   10 (A) A   10 (A) B     -0.0084
     6 (A) A   8 (A) A   10 (A) A   18 (A) A     -0.0084
     7 (A) A   8 (A) A   12 (A) A   16 (A) A      0.0080
     3 (A) A   4 (A) B   10 (A) A    9 (A) B     -0.0079
     5 (A) A   8 (A) A   10 (A) A   21 (A) A     -0.0077
     8 (A) A   8 (A) B    9 (A) A   23 (A) B      0.0074
     4 (A) A   8 (A) B   19 (A) A   10 (A) B      0.0073
     8 (A) A   8 (A) B    9 (A) A   19 (A) B      0.0071
     3 (A) A   8 (A) B   10 (A) A   10 (A) B      0.0071
     3 (A) A   8 (A) A   10 (A) A   24 (A) A     -0.0070
     5 (A) A   8 (A) B   10 (A) A   11 (A) B      0.0068
     3 (A) A   8 (A) B   10 (A) A   18 (A) B     -0.0068
     8 (A) A   8 (A) B   10 (A) A   28 (A) B     -0.0067
     7 (A) A   8 (A) B   16 (A) A   12 (A) B     -0.0067
     6 (A) A   8 (A) B   18 (A) A   10 (A) B      0.0064
     5 (A) A   8 (A) B   12 (A) A   10 (A) B      0.0061
     3 (A) A   6 (A) B   10 (A) A   28 (A) B     -0.0059
     8 (A) A   8 (A) B    9 (A) A   11 (A) B     -0.0057
     3 (A) A   5 (A) B   10 (A) A   25 (A) B     -0.0056
     5 (A) A   8 (A) A   10 (A) A   16 (A) A      0.0055
    -----------------------------------------------------

  Density matrix analysis:
  ------------------------
  NOs
    Occupation of frontier NOs:
       0.9812   0.9846
    Number of electrons: 16.000000
    Number of unpaired electrons: n_u =  2.28943, n_u,nl =  2.02521
    NO participation ratio (PR_NO):  2.703364
  
  
  Mulliken Population Analysis
  Atom      Charge (e)              h+              e-           Del q
  --------------------------------------------------------------------
   1 H       -0.142523        0.053300       -0.251679       -0.198379
   2 C        0.308214        0.538031       -0.120574        0.417456
   3 H       -0.165692        0.054760       -0.273844       -0.219084
   4 C        0.308208        0.538027       -0.120568        0.417459
   5 H       -0.165671        0.054761       -0.273822       -0.219061
   6 H       -0.142537        0.053300       -0.251693       -0.198392
  --------------------------------------------------------------------
  Sum:       -0.000000        1.292180       -1.292180       -0.000000
  
  Multipole moment analysis of the density matrix
    Molecular charge:                      -0.000000
    Number of electrons:                   16.000000
      Center of electronic charge [Ang]: [ -1.561340,  -0.065289,   0.002128]
    Total nuclear charge:                  16.000000
      Center of nuclear charge [Ang]:    [ -1.561339,  -0.065287,   0.002127]
    Dipole moment [D]:                     0.000201
      Cartesian components [D]:          [  0.000117,   0.000161,  -0.000025]
    RMS size of the density [Ang]:         1.282189
      Cartesian components [Ang]:        [  0.865821,   0.837185,   0.439869]
  
  Exciton analysis of the difference density matrix
    <r_h> [Ang]:                  [ -1.561338,  -0.065288,   0.002122]
    <r_e> [Ang]:                  [ -1.561359,  -0.065314,   0.002133]
    |<r_e - r_h>| [Ang]:            0.000035
    Hole size [Ang]:                1.412496
      Cartesian components [Ang]: [  0.844607,   0.813606,   0.787293]
    Electron size [Ang]:            2.075251
      Cartesian components [Ang]: [  1.364210,   1.387548,   0.721326]

  Transition density matrix analysis:
  -----------------------------------
  
  CT numbers (Mulliken)
    omega =     0.9249
    <Phe> =    -0.0110
  
  Exciton analysis of the transition density matrix
    Trans. dipole moment [D]:             0.411444
      Cartesian components [D]:         [  0.018762,   0.025616,  -0.410217]
    <r_h> [Ang]:                        [ -1.561335,  -0.065288,   0.002118]
    <r_e> [Ang]:                        [ -1.561365,  -0.065324,   0.002135]
    |<r_e - r_h>| [Ang]:                  0.000050
    Hole size [Ang]:                      1.213240
      Cartesian components [Ang]:       [  0.649692,   0.610738,   0.822709]
    Electron size [Ang]:                  2.296085
      Cartesian components [Ang]:       [  1.503323,   1.541607,   0.797168]
    RMS electron-hole separation [Ang]:   2.586769
      Cartesian components [Ang]:       [  1.629469,   1.651542,   1.143947]
    Covariance(r_h, r_e) [Ang^2]:         0.026292
    Correlation coefficient:              0.009438
    Center-of-mass size [Ang]:            1.303509
      Cartesian components [Ang]:       [  0.822951,   0.832393,   0.573593]

  Decomposition into state-averaged NTOs
    H- 0 -> L+ 1:  0.6793 ( 92.3%)
                   omega =  92.5%
  ----------------------------------------------------------------------------


  Excited state 4 (singlet, A)                                     [converged]
  ----------------------------------------------------------------------------
  Term symbol:  5 (1) A                                     R^2 =  5.68288e-14

  Total energy:                                            -77.9597589494 a.u.
  Excitation energy:                                               9.711356 eV

  Osc. strength:                                                      0.000000
  Trans. dip. moment [a.u.]:           [   0.000145,   -0.000144,   -0.000009]
  <i|r^2|0> [a.u.]:                    [  -0.031345,   -0.009354,    0.041442]
  Two-photon absorption cross-section (SoS) [a.u.]:                 136.273227
  Two-photon absorption matrix (SoS) [a.u.]:
                                       |   -0.313774   -0.316365    3.206841 |
                                       |   -0.316365   -0.303207    2.522905 |
                                       |    3.206841    2.522905    0.616436 |
  Two-photon absorption cross-section [a.u.]:                        77.581246
  Two-photon absorption matrix [a.u.]:
                                       |   -0.233571   -0.238975    2.344406 |
                                       |   -0.238975   -0.236225    1.994785 |
                                       |    2.344406    1.994785    0.468954 |

  Dip. moment [a.u.]:                  [  -0.000058,   -0.000050,   -0.000028]
  Total dipole [Debye]:                                               0.000207
  <r^2> [a.u.]:                        [ 183.220533,   39.598940,   10.733572]
  Total <r^2> [a.u.]:                                               233.553045

  V1^2 = 0.9634, V2^2 = 0.0366

  Important amplitudes:
      occ i     occ j     vir a      vir b          v   
    -----------------------------------------------------
     8 (A) A             11 (A) A                 0.6546
     8 (A) A             12 (A) A                 0.1600
     7 (A) A              9 (A) A                -0.1131
     8 (A) A             21 (A) A                 0.0776
     8 (A) A             16 (A) A                -0.0673
     6 (A) A              9 (A) A                 0.0549
     8 (A) A             14 (A) A                -0.0292
     8 (A) A   8 (A) B    9 (A) A   13 (A) B     -0.0170
     5 (A) A   8 (A) B   11 (A) A   11 (A) B      0.0144
     8 (A) A   8 (A) B   11 (A) A   17 (A) B      0.0134
     7 (A) A   8 (A) B   13 (A) A   11 (A) B     -0.0116
     8 (A) A   8 (A) B    9 (A) A   22 (A) B      0.0110
     5 (A) A   8 (A) A   11 (A) A   21 (A) A     -0.0104
     7 (A) A             20 (A) A                -0.0099
     8 (A) A             19 (A) A                 0.0099
     4 (A) A   8 (A) B   12 (A) A   11 (A) B      0.0098
     6 (A) A   8 (A) B   10 (A) A   11 (A) B     -0.0088
     7 (A) A   8 (A) A   11 (A) A   22 (A) A     -0.0087
     6 (A) A             20 (A) A                 0.0083
     6 (A) A   8 (A) B   15 (A) A   11 (A) B     -0.0081
     7 (A) A   8 (A) B   22 (A) A   11 (A) B      0.0081
     3 (A) A   4 (A) B   11 (A) A    9 (A) B     -0.0078
     3 (A) A   8 (A) B   11 (A) A   18 (A) B     -0.0078
     7 (A) A   8 (A) A   13 (A) A   16 (A) A     -0.0075
     6 (A) A   8 (A) A   11 (A) A   15 (A) A      0.0072
     7 (A) A   8 (A) A   11 (A) A   13 (A) A      0.0071
     4 (A) A   8 (A) B   19 (A) A   11 (A) B      0.0067
     5 (A) A   8 (A) B   21 (A) A   11 (A) B      0.0066
     4 (A) A   8 (A) A   11 (A) A   12 (A) A     -0.0061
     6 (A) A   8 (A) B   18 (A) A   11 (A) B      0.0061
     8 (A) A             23 (A) A                -0.0060
     6 (A) A   8 (A) A   11 (A) A   18 (A) A     -0.0059
     7 (A) A   8 (A) B   12 (A) A   10 (A) B      0.0057
     3 (A) A   6 (A) B   11 (A) A   28 (A) B     -0.0057
     5 (A) A   8 (A) B   10 (A) A   10 (A) B      0.0055
     6 (A) A   8 (A) B   11 (A) A   10 (A) B     -0.0055
     3 (A) A   8 (A) B   11 (A) A   30 (A) B     -0.0054
     8 (A) A   8 (A) B   20 (A) A   22 (A) B      0.0054
     7 (A) A   8 (A) B   16 (A) A   13 (A) B      0.0054
     4 (A) A   8 (A) B   11 (A) A   11 (A) B     -0.0054
    -----------------------------------------------------

  Density matrix analysis:
  ------------------------
  NOs
    Occupation of frontier NOs:
       0.9545   1.0136
    Number of electrons: 16.000000
    Number of unpaired electrons: n_u =  2.32164, n_u,nl =  2.04107
    NO participation ratio (PR_NO):  2.843069
  
  
  Mulliken Population Analysis
  Atom      Charge (e)              h+              e-           Del q
  --------------------------------------------------------------------
   1 H       -0.155305        0.039210       -0.250371       -0.211161
   2 C        0.263120        0.506781       -0.134419        0.372362
   3 H       -0.107811        0.047124       -0.208328       -0.161203
   4 C        0.263104        0.506781       -0.134427        0.372355
   5 H       -0.107827        0.047124       -0.208341       -0.161217
   6 H       -0.155280        0.039209       -0.250345       -0.211135
  --------------------------------------------------------------------
  Sum:       -0.000000        1.186230       -1.186230        0.000000
  
  Multipole moment analysis of the density matrix
    Molecular charge:                      -0.000000
    Number of electrons:                   16.000000
      Center of electronic charge [Ang]: [ -1.561337,  -0.065285,   0.002128]
    Total nuclear charge:                  16.000000
      Center of nuclear charge [Ang]:    [ -1.561339,  -0.065287,   0.002127]
    Dipole moment [D]:                     0.000207
      Cartesian components [D]:          [ -0.000148,  -0.000126,  -0.000070]
    RMS size of the density [Ang]:         1.282792
      Cartesian components [Ang]:        [  0.876877,   0.829934,   0.433419]
  
  Exciton analysis of the difference density matrix
    <r_h> [Ang]:                  [ -1.561335,  -0.065286,   0.002122]
    <r_e> [Ang]:                  [ -1.561311,  -0.065263,   0.002141]
    |<r_e - r_h>| [Ang]:            0.000038
    Hole size [Ang]:                1.388767
      Cartesian components [Ang]: [  0.813900,   0.799480,   0.791880]
    Electron size [Ang]:            2.113647
      Cartesian components [Ang]: [  1.473949,   1.360988,   0.665350]

  Transition density matrix analysis:
  -----------------------------------
  
  CT numbers (Mulliken)
    omega =     0.9291
    <Phe> =    -0.0119
  
  Exciton analysis of the transition density matrix
    Trans. dipole moment [D]:             0.000260
      Cartesian components [D]:         [  0.000184,  -0.000183,  -0.000011]
    <r_h> [Ang]:                        [ -1.561336,  -0.065288,   0.002118]
    <r_e> [Ang]:                        [ -1.561307,  -0.065257,   0.002145]
    |<r_e - r_h>| [Ang]:                  0.000050
    Hole size [Ang]:                      1.219662
      Cartesian components [Ang]:       [  0.647812,   0.639609,   0.811674]
    Electron size [Ang]:                  2.257201
      Cartesian components [Ang]:       [  1.575009,   1.453599,   0.708064]
    RMS electron-hole separation [Ang]:   2.554739
      Cartesian components [Ang]:       [  1.693979,   1.580673,   1.076383]
    Covariance(r_h, r_e) [Ang^2]:         0.027922
    Correlation coefficient:              0.010142
    Center-of-mass size [Ang]:            1.288252
      Cartesian components [Ang]:       [  0.856018,   0.797742,   0.538920]

  Decomposition into state-averaged NTOs
    H- 0 -> L+ 2:  0.6693 ( 89.6%)
    H- 1 -> L+ 0:  0.1110 (  2.5%)
                   omega =  92.9%
  ----------------------------------------------------------------------------


  Excited state 5 (singlet, A)                                     [converged]
  ----------------------------------------------------------------------------
  Term symbol:  6 (1) A                                     R^2 =  3.49621e-13

  Total energy:                                            -77.9419288564 a.u.
  Excitation energy:                                              10.196538 eV

  Osc. strength:                                                      0.000000
  Trans. dip. moment [a.u.]:           [  -0.000021,   -0.000043,   -0.000002]
  <i|r^2|0> [a.u.]:                    [   0.076098,   -0.072048,   -0.003809]
[...]
    16   -1.651506956632e-03
    17   -1.492672570619e-03
    18   -4.394766659855e-03
    19   -3.073963778578e-03
    20    1.172689181250e-02
    21    8.814808457514e-01
    22    5.235109000223e-04
    23    1.194023594549e-02
    24    7.529399368898e-04
    25    7.027895950713e-02
    26   -5.232758796395e-02
    27   -1.384955353085e+00
    28    9.242299867788e-02
    29   -1.029863966209e-01
    30   -1.944038836310e-03
    31    3.906609696311e-01
    32   -3.630630411082e-01
    33   -3.798714093533e-03
    34    1.516462854024e-02
    35   -1.648995235024e-03
    36   -1.491566107355e-03
    37   -4.394618137080e-03
    38   -3.073362385514e-03
    39    1.172263051605e-02
    40    8.814735560078e-01
    41   -5.238680683587e-04
    42   -1.193992289294e-02
    43   -7.524922991786e-04
    44    1.187289179855e-02
    45    9.750316924102e-01
    46    1.579466255065e-02
    47   -1.183527641172e-03
    48    6.770477156014e-04
Sym=X
Ene= 0.230136
Spin=Alpha
Occup=0
     1    3.310078205235e-02
     2    1.445797494893e+00
     3   -1.536663055182e-02
     4   -7.258043964774e-03
     5   -1.172622500094e-03
     6    2.672547819100e-02
     7   -3.693944410058e-02
     8   -3.493879684093e-01
     9   -1.544389685144e-01
    10   -1.461101515288e-01
    11   -1.623814718968e-02
    12   -6.523073667532e-01
    13   -3.978952337883e-01
    14   -5.538699240469e-02
    15    2.800068196680e-03
    16   -3.383609112294e-04
    17   -4.994959159761e-04
    18    1.260638025776e-03
    19   -2.909357051353e-03
    20   -2.749927240228e-02
    21   -8.109672747341e-01
    22    1.045852393586e-03
    23   -9.663471751217e-03
    24   -5.358770173304e-04
    25   -2.672380863309e-02
    26    3.693704015314e-02
    27    3.493475971151e-01
    28   -1.544372835679e-01
    29   -1.461154675340e-01
    30   -1.620658294056e-02
    31   -6.522699527503e-01
    32   -3.978856075134e-01
    33   -5.525857508975e-02
    34   -2.800183992087e-03
    35    3.360303420770e-04
    36    5.005468404259e-04
    37   -1.259692584673e-03
    38    2.909489760983e-03
    39    2.749892797334e-02
    40    8.109506401506e-01
    41    1.046233075883e-03
    42   -9.663474747126e-03
    43   -5.344964911181e-04
    44   -3.310084051563e-02
    45   -1.445728182950e+00
    46   -1.536617295377e-02
    47   -7.258111458765e-03
    48   -1.170406013668e-03
Sym=X
Ene= 0.236635
Spin=Alpha
Occup=0
     1   -1.234260158920e-02
     2   -7.108189775403e-01
     3    1.241407482280e-02
     4    7.094562929048e-03
     5    1.020629397353e-03
     6   -8.272910533502e-02
     7    7.596885212132e-02
     8    1.491385218151e+00
     9    9.692405975117e-03
    10   -1.079380064162e-01
    11   -6.115341363947e-03
    12    4.922589439894e-02
    13   -3.839292675756e-01
    14   -2.101707252740e-02
    15   -2.086374463056e-02
    16    2.557255512813e-03
    17    2.684881219067e-03
    18    1.608676605594e-03
    19    1.201655518211e-02
    20   -2.685221477640e-02
    21   -1.338647149730e+00
    22   -9.065530881052e-03
    23   -1.886399538953e-02
    24   -1.580191071104e-03
    25    8.272830729817e-02
    26   -7.596613401098e-02
    27   -1.491387407810e+00
    28    9.694842905991e-03
    29   -1.079408521702e-01
    30   -6.122528509886e-03
    31    4.923953207894e-02
    32   -3.839438106892e-01
    33   -2.104526506738e-02
    34    2.086377502150e-02
    35   -2.555258885273e-03
    36   -2.685109267035e-03
    37   -1.607167803459e-03
    38   -1.201611739526e-02
    39    2.685135540844e-02
    40    1.338649529880e+00
    41   -9.065955655421e-03
    42   -1.886428502567e-02
    43   -1.580291401451e-03
    44    1.234165578288e-02
    45    7.108178088481e-01
    46    1.241352022621e-02
    47    7.095555595616e-03
    48    1.019618100874e-03
Sym=X
Ene= 0.301392
Spin=Alpha
Occup=0
     1   -2.913206123209e-02
     2    1.715671298928e+00
     3   -2.380701351950e-02
     4   -1.129749252063e-03
     5   -1.214147988039e-03
     6   -4.602006623648e-04
     7    3.929168209378e-03
     8   -1.375010891825e-01
     9   -1.443027637125e-01
    10   -1.347786829005e-01
    11   -1.507517948999e-02
    12   -1.134890923096e+00
    13   -1.144540787347e+00
    14   -1.236211673693e-01
    15    6.638203000762e-04
    16   -1.912083474708e-03
    17    1.712446274472e-03
    18   -3.307138764228e-02
    19   -4.643814027311e-03
    20    8.510521601823e-03
    21   -1.561971630519e+00
    22    2.949387728639e-03
    23   -2.234949222048e-02
    24   -1.207442042300e-03
    25   -4.591384696592e-04
    26    3.929119226671e-03
    27   -1.375383082079e-01
    28    1.443068871271e-01
    29    1.347840299558e-01
    30    1.506101277898e-02
    31    1.134870329292e+00
    32    1.144552781677e+00
    33    1.235725310030e-01
    34    6.645668571450e-04
    35   -1.909153617793e-03
    36    1.713811128617e-03
    37   -3.307008524414e-02
    38   -4.644484671514e-03
    39    8.508163734934e-03
    40   -1.561977428170e+00
    41   -2.950508326287e-03
    42    2.234941808607e-02
    43    1.207021966990e-03
    44   -2.912647640108e-02
    45    1.715691862646e+00
    46    2.380731613718e-02
    47    1.129497859479e-03
    48    1.212537716332e-03
Sym=X
Ene= 0.460565
Spin=Alpha
Occup=0
     1    4.407853860689e-02
     2    8.560204044767e-01
     3    1.075434467321e-02
     4    1.800305972183e-02
     5    1.605585088038e-03
     6   -6.391173613858e-02
     7   -1.579134074881e-02
     8    3.616095887195e+00
     9   -1.025103853871e-01
    10    1.063938483632e-01
    11    1.624259352781e-03
    12   -2.527632407229e+00
    13    2.166117071192e+00
    14    8.836861952525e-03
    15   -5.164060119751e-02
    16    2.841964517504e-03
    17    4.860580419132e-03
    18   -6.072192340714e-03
    19   -1.963006145476e-02
    20    1.702431386826e-01
    21    5.323658997038e-01
    22   -1.430552586764e-03
    23   -1.882671304744e-02
    24   -1.204226679563e-03
    25    6.391264141436e-02
    26    1.578381888663e-02
    27   -3.616098366102e+00
    28   -1.025219949753e-01
    29    1.064040578439e-01
    30    1.630877920829e-03
    31   -2.527610944319e+00
    32    2.166089260418e+00
    33    8.869031932583e-03
    34    5.163606834179e-02
    35   -2.838419162959e-03
    36   -4.855053014647e-03
    37    6.072365296930e-03
    38    1.963587179299e-02
    39   -1.702099797862e-01
    40   -5.324060004848e-01
    41   -1.429609087389e-03
    42   -1.882582939447e-02
    43   -1.202483040956e-03
    44   -4.405322439154e-02
    45   -8.560334942940e-01
    46    1.075316945967e-02
    47    1.800124685459e-02
    48    1.604012254055e-03
Sym=X
Ene= 0.580236
Spin=Alpha
Occup=0
     1   -1.861676945186e-01
     2   -1.675507357988e-01
     3    2.567469298706e-02
     4   -2.377878172427e-02
     5   -2.101111158848e-04
     6    6.057895697270e-03
     7    1.685024199849e-01
     8    4.056715796664e-01
     9   -2.771310145763e-01
    10    3.134700946117e-01
    11    5.554815253761e-03
    12    6.836111222729e-01
    13   -7.634697614032e-01
    14   -1.340078080504e-02
    15    2.592410378856e-03
    16   -2.264395070440e-03
    17   -4.925629336044e-03
    18    3.060498824949e-02
    19   -5.785300099833e-02
    20   -2.921049696602e-01
    21    8.369237505542e-02
    22    3.068162398526e-02
    23   -1.749022783194e-02
    24    4.150540737559e-04
    25    6.065724236801e-03
    26    1.685067653621e-01
    27    4.053563123533e-01
    28    2.771175285931e-01
    29   -3.134561602122e-01
    30   -5.548611830783e-03
    31   -6.838263579645e-01
    32    7.636722447385e-01
    33    1.340761754310e-02
    34    2.590782094068e-03
    35   -2.263628460014e-03
    36   -4.926311014763e-03
    37    3.061479388799e-02
    38   -5.785276852000e-02
    39   -2.921162841410e-01
    40    8.361337403391e-02
    41   -3.068258892794e-02
    42    1.748931758996e-02
    43   -4.142589889836e-04
    44   -1.861254482092e-01
    45   -1.676675619366e-01
    46   -2.568079798155e-02
    47    2.378330180565e-02
    48    2.111648395854e-04
Sym=X
Ene= 0.608579
Spin=Alpha
Occup=0
     1   -5.970455383203e-01
     2    1.102712975052e-01
     3   -6.732425186011e-02
     4    2.582136846239e-02
     5   -1.666246135825e-03
     6   -7.702914092840e-03
     7   -2.083823781313e-03
     8   -4.827970857044e-01
     9   -6.540994090036e-02
    10   -1.446668892646e-02
    11   -4.089970776045e-03
    12    7.237395948266e-01
    13   -1.295282577885e-01
    14    2.709899367843e-02
    15    2.706731894662e-02
    16   -8.825967367845e-03
    17    6.705429686194e-03
    18   -1.498547284646e-01
    19    9.695007916005e-03
    20    4.158771946298e-01
    21   -3.275592477657e-01
    22    4.714306358542e-02
    23   -4.860989633884e-02
    24   -6.810823165073e-04
    25    7.700502728379e-03
    26    2.057900382981e-03
    27    4.827946219782e-01
    28   -6.543788197620e-02
    29   -1.443998996266e-02
    30   -4.100816827752e-03
    31    7.238009334246e-01
    32   -1.295556458422e-01
    33    2.703029077011e-02
    34   -2.706222707230e-02
    35    8.817503949500e-03
    36   -6.712576571018e-03
    37    1.498600415720e-01
    38   -9.691543815283e-03
    39   -4.159057888699e-01
    40    3.276029634115e-01
    41    4.714104923180e-02
    42   -4.861331166155e-02
    43   -6.860276942158e-04
    44    5.970540985049e-01
    45   -1.102860754894e-01
    46   -6.732104932779e-02
    47    2.581956220460e-02
    48   -1.666260826302e-03
Sym=X
Ene= 0.688552
Spin=Alpha
Occup=0
     1    2.190578416731e-04
     2    3.146828372051e-04
     3    1.081147154282e-03
     4    1.402718772548e-03
     5   -2.283307348335e-02
     6    1.013377949069e-05
     7   -8.499130238155e-05
     8    3.763798570614e-04
     9    3.223404112707e-02
    10    4.056386246583e-02
    11   -6.708842646649e-01
    12   -3.011342967240e-02
    13   -3.652998838779e-02
    14    6.128066908583e-01
    15   -4.820493318019e-04
    16    8.672000314576e-02
    17   -7.384048712711e-02
    18   -8.616445872628e-03
    19   -1.625459458368e-03
    20    1.405614952778e-04
    21    2.626777272526e-04
    22    6.973353982711e-04
    23    9.300877923915e-04
    24   -1.508385545152e-02
    25   -9.407564557425e-06
    26    1.077077084666e-04
    27   -3.861203722768e-04
    28    3.221150804263e-02
    29    4.053298577122e-02
    30   -6.708862991126e-01
    31   -3.008455941640e-02
    32   -3.648777799231e-02
    33    6.128083364311e-01
    34    4.752747754033e-04
    35   -8.671911221414e-02
    36    7.384116044746e-02
    37    8.626272962253e-03
    38    1.628803645487e-03
    39   -1.334434315880e-04
    40   -2.510192031293e-04
    41    6.945197144035e-04
    42    9.335108691643e-04
    43   -1.508357788017e-02
    44   -2.010839835245e-04
    45   -3.541926086782e-04
    46    1.071619583262e-03
    47    1.397186631870e-03
    48   -2.283365496204e-02
Sym=X
Ene= 0.704358
Spin=Alpha
Occup=0
     1   -4.628013120967e-01
     2    1.917755712295e-01
     3   -8.890021403943e-02
     4   -3.939135186004e-02
     5   -6.677883932051e-03
     6   -4.596045853647e-02
     7   -3.006252658371e-01
     8    4.484840576058e-01
     9    2.067187382381e-01
    10   -1.790682107658e-01
    11   -8.976994250506e-04
    12   -1.301263844720e-01
    13   -2.472917858210e-03
    14   -6.783994917305e-03
    15    1.915015433115e-01
    16   -2.101616311976e-02
    17   -2.336521647475e-02
    18   -7.571962762664e-03
    19   -7.583165132336e-02
    20   -5.081259548173e-01
    21    1.463911860021e-01
    22    4.433933200748e-02
    23    6.942829634440e-02
    24    6.304301273427e-03
    25   -4.595610284115e-02
    26   -3.006244656589e-01
    27    4.481904553398e-01
    28   -2.067166613105e-01
    29    1.790647475722e-01
    30    8.739455275795e-04
    31    1.299029309910e-01
    32    2.635115482535e-03
    33    6.810272337307e-03
    34    1.915070042793e-01
    35   -2.100433665341e-02
    36   -2.335644922155e-02
    37   -7.580611589139e-03
    38   -7.582165356393e-02
    39   -5.080946612425e-01
    40    1.463228251335e-01
    41   -4.433934444823e-02
    42   -6.942539885770e-02
    43   -6.301524085734e-03
    44   -4.628245695226e-01
    45    1.917135083631e-01
    46    8.890359476099e-02
    47    3.939043259864e-02
    48    6.672234916361e-03
Sym=X
Ene= 0.777004
Spin=Alpha
Occup=0
     1   -4.381485325123e-01
     2    3.853099825385e-01
     3   -8.733418610301e-02
     4   -2.674371934969e-02
     5   -5.823228150077e-03
     6   -8.691593209562e-02
     7    2.302108138881e-01
     8    5.971469590251e-01
     9   -1.350684535328e-01
    10    4.413477684478e-02
    11   -3.948713825550e-03
    12   -3.239875231268e-01
    13    3.483858625880e-01
    14    5.484764287715e-03
    15    1.987632641067e-01
    16   -1.566138333186e-02
    17   -2.364647365968e-02
    18    3.480387844765e-02
    19   -1.171133135638e-02
    20   -6.249542821534e-01
    21    6.202449135697e-01
    22    2.048288546648e-02
    23    1.283909116356e-01
    24    8.746583370212e-03
    25    8.691685505210e-02
    26   -2.302124561840e-01
    27   -5.971972457103e-01
    28   -1.350801519007e-01
    29    4.413279909334e-02
    30   -3.918841383739e-03
    31   -3.239534562545e-01
    32    3.483506437963e-01
    33    5.420021253791e-03
    34   -1.987681291659e-01
    35    1.564107998409e-02
    36    2.363603004302e-02
    37   -3.481199658763e-02
    38    1.170883350032e-02
    39    6.249874948290e-01
    40   -6.202482067536e-01
    41    2.048356559133e-02
    42    1.283929400871e-01
    43    8.741945612740e-03
    44    4.381608964985e-01
    45   -3.852864729643e-01
    46   -8.732954695479e-02
    47   -2.674825198705e-02
    48   -5.819656082275e-03
Sym=X
Ene= 0.806819
Spin=Alpha
Occup=0
     1   -1.202030807236e-05
     2   -1.027565758368e-05
     3    1.358130975432e-03
     4    1.749624247233e-03
     5   -2.882700789472e-02
     6    9.467083630533e-06
     7   -1.568813786785e-04
     8    9.168407658767e-05
     9    3.673845244073e-02
    10    4.610320935884e-02
    11   -7.641580700478e-01
    12   -5.394017524200e-02
    13   -6.767604979557e-02
    14    1.123391472371e+00
    15    4.357236838588e-04
    16   -6.801394742608e-02
    17    5.847646018861e-02
    18    6.793217480765e-03
    19    1.265320991643e-03
    20    3.188861740970e-05
    21    5.938263062623e-05
    22    1.597591283633e-03
    23    2.066814003573e-03
    24   -3.352205753041e-02
    25    6.953126253740e-06
    26   -1.547098609017e-04
    27    9.825479383919e-05
    28   -3.667518974640e-02
    29   -4.606358497647e-02
    30    7.641650464185e-01
    31    5.386955445860e-02
    32    6.757930707289e-02
    33   -1.123400877365e+00
    34    4.448947174562e-04
    35   -6.801319325948e-02
    36    5.847430676582e-02
    37    6.814877580086e-03
    38    1.269794308484e-03
    39    1.224355303606e-05
    40    1.683483387011e-04
    41   -1.599480507489e-03
    42   -2.082643234008e-03
    43    3.351865666751e-02
    44   -2.015287448858e-05
    45   -6.005120346675e-05
    46   -1.360411763148e-03
    47   -1.757231538873e-03
    48    2.882552687859e-02
Sym=X
Ene= 0.858060
Spin=Alpha
Occup=0
     1    3.757788110223e-02
     2   -1.025937092297e+00
     3    1.518705668169e-01
     4    4.766516741267e-02
     5    1.013943856501e-02
     6    1.251806894041e-02
     7   -3.339589325489e-02
     8    7.325958789241e-02
     9   -3.521940625545e-01
    10   -4.829790952266e-01
    11   -4.614034312560e-02
    12    8.443718405628e-01
    13    1.066100113593e+00
    14    1.050533144135e-01
    15   -3.559393621086e-02
    16    1.251757664902e-02
    17   -1.138537545195e-02
    18    2.300723596060e-01
    19   -2.424671045206e-02
    20    3.277103535149e-02
    21    1.096101534124e+00
    22    5.867637762670e-02
    23    1.397795312615e-01
    24    1.130389760664e-02
    25   -1.251743886090e-02
    26    3.340534395580e-02
    27   -7.326363632797e-02
    28   -3.521994174042e-01
    29   -4.829943270895e-01
    30   -4.606047631183e-02
    31    8.443743652820e-01
    32    1.066141508989e+00
    33    1.048830394938e-01
    34    3.559249417256e-02
    35   -1.251373664246e-02
    36    1.138874590213e-02
    37   -2.300782037928e-01
    38    2.424239821135e-02
    39   -3.277775450077e-02
    40   -1.096095797268e+00
    41    5.866879917219e-02
    42    1.397820370110e-01
    43    1.130199138720e-02
    44   -3.756897892684e-02
    45    1.025929847557e+00
    46    1.518733381284e-01
    47    4.766084600590e-02
    48    1.013031686635e-02
Sym=X
Ene= 0.923250
Spin=Alpha
Occup=0
     1   -1.242618728852e-01
     2    1.129239159144e+00
     3   -1.549636991743e-01
     4    2.525907723387e-02
     5   -5.944866241984e-03
     6   -3.101545560972e-03
     7   -1.564986383562e-01
     8    1.967851406215e-01
     9    4.369440409163e-01
    10    5.222951137454e-01
    11    5.249514979417e-02
    12   -1.330341887178e+00
    13   -1.431397095343e+00
    14   -1.503128373154e-01
    15   -1.802929810464e-03
    16   -3.111443780940e-03
    17    9.346819113908e-03
    18   -1.189517651534e-01
    19    4.044287912260e-02
    20    1.658939772658e-01
    21   -1.271488379171e+00
    22   -5.011488164610e-03
    23   -1.972868909212e-01
    24   -1.215684503249e-02
    25   -3.101536921258e-03
    26   -1.564862253794e-01
    27    1.968110867420e-01
    28   -4.369596638798e-01
    29   -5.222801912443e-01
    30   -5.247130592483e-02
    31    1.330387173924e+00
    32    1.431333385925e+00
    33    1.502473315121e-01
    34   -1.800750188131e-03
    35   -3.097087468092e-03
    36    9.340535144910e-03
    37   -1.189515821933e-01
    38    4.042497845141e-02
    39    1.658881613680e-01
    40   -1.271441687831e+00
    41    4.999757298582e-03
    42    1.972808479290e-01
    43    1.215093954429e-02
    44   -1.242724604102e-01
    45    1.129282386010e+00
    46    1.549675105624e-01
    47   -2.525824190305e-02
    48    5.937382666631e-03
Sym=X
Ene= 0.972797
Spin=Alpha
Occup=0
     1   -9.239587350851e-02
     2    1.040836917334e+00
     3   -1.099223856498e-01
     4   -8.909766915447e-02
     5   -1.061077293429e-02
     6    2.650307758371e-02
     7    2.464803821429e-01
     8    5.213075487264e-01
     9    5.138470148481e-01
    10   -4.247488804742e-01
    11   -9.823321117125e-04
    12   -1.581109370300e+00
    13    1.276012060982e+00
    14    1.073720433539e-03
    15   -5.944948287903e-02
    16   -1.333706722285e-02
    17   -7.245519649299e-03
    18   -1.278510693152e-02
    19   -2.934253515386e-01
    20   -2.725295914807e-02
    21    7.348547669873e-01
    22    1.001523340456e-01
    23    6.611899205433e-02
    24    8.850408326863e-03
    25   -2.650254992851e-02
    26   -2.464318033169e-01
    27   -5.213920289577e-01
    28    5.138247390821e-01
    29   -4.247681230917e-01
    30   -1.010172682185e-03
    31   -1.581017655295e+00
    32    1.276111605129e+00
    33    1.150778953566e-03
    34    5.944425398417e-02
    35    1.333407569422e-02
    36    7.248376837581e-03
    37    1.277862983330e-02
    38    2.934174296465e-01
    39    2.725329176293e-02
    40   -7.349052342338e-01
    41    1.001493288542e-01
    42    6.612808284210e-02
    43    8.852825832059e-03
    44    9.240779651119e-02
    45   -1.040740971756e+00
    46   -1.099117766131e-01
    47   -8.909664923445e-02
    48   -1.060260390944e-02
[5D]

======= END OF MOLDEN-FORMATTED INPUT FILE =======


        *************************************************************
        *                                                           *
        *  Thank you very much for using Q-Chem.  Have a nice day.  *
        *                                                           *
        *************************************************************


