                  Welcome to Q-Chem
     A Quantum Leap Into The Future Of Chemistry


 Q-Chem 5.4 (devel), Q-Chem, Inc., Pleasanton, CA (2021)

 E. Epifanovsky,  A. T. B. Gilbert,  Xintian Feng,  Joonho Lee,  Yuezhi Mao,  
 N. Mardirossian,  P. Pokhilko,  A. White,  M. Wormit,  M. P. Coons,  
 A. L. Dempwolff,  Zhengting Gan,  D. Hait,  P. R. Horn,  L. D. Jacobson,  
 I. Kaliman,  J. Kussmann,  A. W. Lange,  Ka Un Lao,  D. S. Levine,  Jie Liu,  
 S. C. McKenzie,  A. F. Morrison,  K. Nanda,  F. Plasser,  D. R. Rehn,  
 M. L. Vidal,  Zhi-Qiang You,  Ying Zhu,  B. Alam,  B. Albrecht,  
 A. Aldossary,  E. Alguire,  J. H. Andersen,  D. Barton,  K. Begam,  A. Behn,  
 Y. A. Bernard,  E. J. Berquist,  H. Burton,  A. Carreras,  K. Carter-Fenk,  
 R. Chakraborty,  A. D. Chien,  K. D. Closser,  V. Cofer-Shabica,  
 S. Dasgupta,  Jia Deng,  M. de Wergifosse,  M. Diedenhofen,  Hainam Do,  
 S. Ehlert,  Po-Tung Fang,  S. Fatehi,  Qingguo Feng,  T. Friedhoff,  
 J. Gayvert,  Qinghui Ge,  G. Gidofalvi,  M. Goldey,  J. Gomes,  
 C. Gonzalez-Espinoza,  S. Gulania,  A. Gunina,  M. W. D. Hanson-Heine,  
 P. H. P. Harbach,  A. W. Hauser,  M. F. Herbst,  M. Hernandez Vera,  
 M. Hodecker,  Z. C. Holden,  S. Houck,  Xunkun Huang,  Kerwin Hui,  
 B. C. Huynh,  M. Ivanov,  Hyunjun Ji,  Hanjie Jiang,  B. Kaduk,  S. Kaehler,  
 K. Khistyaev,  Jaehoon Kim,  P. Klunzinger,  Z. Koczor-Benda,  
 Joong Hoon Koh,  D. Kosenkov,  L. Koulias,  T. Kowalczyk,  C. M. Krauter,  
 K. Kue,  A. Kunitsa,  T. Kus,  A. Landau,  K. V. Lawler,  D. Lefrancois,  
 S. Lehtola,  Rain Li,  Yi-Pei Li,  Jiashu Liang,  M. Liebenthal,  
 Hung-Hsuan Lin,  You-Sheng Lin,  Fenglai Liu,  Kuan-Yu Liu,  
 M. Loipersberger,  A. Luenser,  A. Manjanath,  P. Manohar,  E. Mansoor,  
 S. F. Manzer,  Shan-Ping Mao,  A. V. Marenich,  T. Markovich,  S. Mason,  
 S. A. Maurer,  P. F. McLaughlin,  M. F. S. J. Menger,  J.-M. Mewes,  
 S. A. Mewes,  P. Morgante,  J. W. Mullinax,  K. J. Oosterbaan,  G. Paran,  
 Alexander C. Paul,  Suranjan K. Paul,  F. Pavosevic,  Zheng Pei,  S. Prager,  
 E. I. Proynov,  E. Ramos,  B. Rana,  A. E. Rask,  A. Rettig,  R. M. Richard,  
 F. Rob,  E. Rossomme,  T. Scheele,  M. Scheurer,  M. Schneider,  
 N. Sergueev,  S. M. Sharada,  W. Skomorowski,  D. W. Small,  C. J. Stein,  
 Yu-Chuan Su,  E. J. Sundstrom,  Zhen Tao,  J. Thirman,  T. Tsuchimochi,  
 N. M. Tubman,  S. P. Veccham,  O. Vydrov,  J. Wenzel,  J. Witte,  A. Yamada,  
 Kun Yao,  S. Yeganeh,  S. R. Yost,  A. Zech,  Igor Ying Zhang,  Xing Zhang,  
 Yu Zhang,  D. Zuev,  A. Aspuru-Guzik,  A. T. Bell,  N. A. Besley,  
 K. B. Bravaya,  B. R. Brooks,  D. Casanova,  Jeng-Da Chai,  S. Coriani,  
 C. J. Cramer,  A. E. DePrince, III,  R. A. DiStasio Jr.,  A. Dreuw,  
 B. D. Dunietz,  T. R. Furlani,  W. A. Goddard III,  S. Grimme,  
 S. Hammes-Schiffer,  T. Head-Gordon,  W. J. Hehre,  Chao-Ping Hsu,  
 T.-C. Jagau,  Yousung Jung,  A. Klamt,  Jing Kong,  D. S. Lambrecht,  
 WanZhen Liang,  N. J. Mayhall,  C. W. McCurdy,  J. B. Neaton,  
 C. Ochsenfeld,  J. A. Parkhill,  R. Peverati,  V. A. Rassolov,  Yihan Shao,  
 L. V. Slipchenko,  T. Stauch,  R. P. Steele,  J. E. Subotnik,  
 A. J. W. Thom,  A. Tkatchenko,  D. G. Truhlar,  T. Van Voorhis,  
 T. A. Wesolowski,  K. B. Whaley,  H. L. Woodcock III,  P. M. Zimmerman,  
 S. Faraji,  P. M. W. Gill,  M. Head-Gordon,  J. M. Herbert,  A. I. Krylov

 Additional authors for Version 5.4.1: 
 S. Kotaru,  Shaozhi Li,  Xiangyuan Li,  F. Matz,  A. Molle,  Haisheng Ren,  
 Yingli Su,  Hung-Yi Tsai,  C. Utku,  Fang Wang

 Contributors to earlier versions of Q-Chem not listed above: 
 R. D. Adamson,  B. Austin,  R. Baer,  J. Baker,  G. J. O. Beran,  
 K. Brandhorst,  S. T. Brown,  E. F. C. Byrd,  A. K. Chakraborty,  
 G. K. L. Chan,  Chun-Min Chang,  Yunqing Chen,  C.-L. Cheng,  
 Siu Hung Chien,  D. M. Chipman,  D. L. Crittenden,  H. Dachsel,  
 R. J. Doerksen,  A. D. Dutoi,  R. G. Edgar,  J. Fosso-Tande,  
 L. Fusti-Molnar,  D. Ghosh,  A. Ghysels,  A. Golubeva-Zadorozhnaya,  
 J. Gonthier,  M. S. Gordon,  S. R. Gwaltney,  G. Hawkins,  J. E. Herr,  
 A. Heyden,  S. Hirata,  E. G. Hohenstein,  G. Kedziora,  F. J. Keil,  
 C. Kelley,  Jihan Kim,  R. A. King,  R. Z. Khaliullin,  P. P. Korambath,  
 W. Kurlancheek,  A. Laurent,  A. M. Lee,  M. S. Lee,  S. V. Levchenko,  
 Ching Yeh Lin,  D. Liotard,  E. Livshits,  R. C. Lochan,  I. Lotan,  
 L. A. Martinez-Martinez,  P. E. Maslen,  N. Nair,  D. P. O'Neill,  
 D. Neuhauser,  E. Neuscamman,  C. M. Oana,  R. Olivares-Amaya,  R. Olson,  
 T. M. Perrine,  B. Peters,  P. A. Pieniazek,  A. Prociuk,  Y. M. Rhee,  
 J. Ritchie,  M. A. Rohrdanz,  E. Rosta,  N. J. Russ,  H. F. Schaefer III,  
 M. W. Schmidt,  N. E. Schultz,  S. Sharma,  N. Shenvi,  C. D. Sherrill,  
 A. C. Simmonett,  A. Sodt,  T. Stein,  D. Stuck,  K. S. Thanthiriwatte,  
 V. Vanovschi,  L. Vogt,  Tao Wang,  A. Warshel,  M. A. Watson,  
 C. F. Williams,  Q. Wu,  X. Xu,  Jun Yang,  W. Zhang,  Yan Zhao

 Please cite Q-Chem as follows:
 Y. Shao et al., Mol. Phys. 113, 184-215 (2015)
 DOI: 10.1080/00268976.2014.952696

 Q-Chem 5.4.1 for Intel X86 EM64T Linux

 Parts of Q-Chem use Armadillo 9.800.1 (Horizon Scraper).
 http://arma.sourceforge.net/

 Q-Chem begins on Tue Mar 21 11:20:36 2023  

 Host: cpu186.baobab
0

     Scratch files written to /scratch/fum/qchem53248//
 Processing $rem in /home/share/wesolowski/qc5.aug2021.FDE/config/preferences:
 Processing $rem in /home/fum/.qchemrc:

 Checking the input file for inconsistencies... 	...done.

--------------------------------------------------------------
User input:
--------------------------------------------------------------
$comment
generated from CCJob.Templates
$end

$rem
sym_ignore = true
method = adc(2)
ee_states = 10
basis = cc-pVDZ
mem_static = 1024
mem_total = 40000
adc_davidson_maxiter = 900
adc_davidson_conv = 6
adc_print = 3
adc_prop_es = true
adc_prop_es2es = true
adc_prop_tpa = true
molden_format = True
state_analysis = true
print_orbitals = 15
gen_scfman = false
fde_export_density = true
fde_details = 3
$end

$molecule
0 1
H -0.021630363585096218 -0.24677771393554127 0.0642793174514152
C -1.0781864787508426 -0.524385279305991 -0.0028022603215330896
H -1.3011983967006975 -1.5931432001818984 -0.07649589871437809
C -2.0453553166936014 0.3935627944500349 0.0037395804127717215
H -1.821764187854221 1.462507693294667 0.0797635083857205
H -3.101303411069828 0.1161416034482892 -0.06091298398007136                     
$end
--------------------------------------------------------------
 ----------------------------------------------------------------
             Standard Nuclear Orientation (Angstroms)
    I     Atom           X                Y                Z
 ----------------------------------------------------------------
    1      H      -0.0216303636    -0.2467777139     0.0642793175
    2      C      -1.0781864788    -0.5243852793    -0.0028022603
    3      H      -1.3011983967    -1.5931432002    -0.0764958987
    4      C      -2.0453553167     0.3935627945     0.0037395804
    5      H      -1.8217641879     1.4625076933     0.0797635084
    6      H      -3.1013034111     0.1161416034    -0.0609129840
 ----------------------------------------------------------------
 Nuclear Repulsion Energy =          33.20991074 hartrees
 There are        8 alpha and        8 beta electrons
 Requested basis set is cc-pVDZ
 There are 24 shells and 48 basis functions
 Total memory of 40000 MB is distributed as follows: 
   MEM_STATIC is set to 1024 MB
   QALLOC/CCMAN JOB total memory use is  38976 MB
 Warning: actual memory use might exceed 40000 MB

 Total QAlloc Memory Limit  40000 MB
 Mega-Array Size      1001 MB
 MEM_STATIC part      1024 MB

                       Distance Matrix (Angstroms)
             H (  1)   C (  2)   H (  3)   C (  4)   H (  5)
   C (  2)  1.094476
   H (  3)  1.862743  1.094262
   C (  4)  2.123479  1.333449  2.123019
   H (  5)  2.482414  2.123080  3.103612  1.094722
   H (  6)  3.103509  2.122888  2.482393  1.093695  1.862716

 A cutoff of  1.0D-11 yielded    300 shell pairs
 There are      1220 function pairs (      1329 Cartesian)
 Smallest overlap matrix eigenvalue = 4.81E-03

 Scale SEOQF with 1.000000e-01/1.000000e-01/1.000000e+00

 Standard Electronic Orientation quadrupole field applied
 Nucleus-field energy     =     0.0000000022 hartrees
 Guess from superposition of atomic densities
 Warning:  Energy on first SCF cycle will be non-variational
 SAD guess density has 16.000000 electrons
 A restricted Hartree-Fock SCF calculation will be
 performed using Pulay DIIS extrapolation
 SCF converges when DIIS error is below 1.0E-08
 using 10 threads for integral computing
 -------------------------------------------------------
 OpenMP Integral computing Module                
 Release: version 1.0, May 2013, Q-Chem Inc. Pittsburgh 
 -------------------------------------------------------
 ---------------------------------------
  Cycle       Energy         DIIS Error
 ---------------------------------------
    1     -78.3977744639      9.93E-02
    2     -78.0175889219      7.13E-03
    3     -78.0380549435      1.83E-03
    4     -78.0395310677      5.64E-04
    5     -78.0396486819      5.81E-05
    6     -78.0396505454      9.29E-06
    7     -78.0396506067      1.95E-06
    8     -78.0396506094      1.94E-07
    9     -78.0396506095      8.39E-08
   10     -78.0396506095      9.35E-09 Convergence criterion met
 ---------------------------------------
 SCF time:  CPU 1.94 s  wall 2.88 s
 SCF   energy in the final basis set = -78.03965061
 Total energy in the final basis set = -78.03965061
Exporting Density Matrix to file 'Densmat_SCF.txt'.
Export successful
================================================================================
|                                                                              |
|                                 A D C  M A N                                 |
|                                                                              |
 ------------------------------------------------------------------------------ 
|                                                                              |
| Components:                                                                  |
|                                                                              |
| - libvmm - 1.3-trunk                                                         |
|   Authors:                                                                   |
|   Evgeny Epifanovsky, Ilya Kaliman                                           |
|                                                                              |
| - libtensor - 2.5-trunk                                                      |
|   Authors:                                                                   |
|   Evgeny Epifanovsky, Michael Wormit, Dmitry Zuev, Sam Manzer,               |
|   Ilya Kaliman                                                               |
|                                                                              |
| - libwfa - 1.1-trunk                                                         |
|   Authors:                                                                   |
|   Felix Plasser, Stefanie Mewes (Baeppler), Benjamin Thomitzni,              |
|   Michael Wormit, Feng Chen, Anna I. Krylov, Pavel Pokhilko                  |
|                                                                              |
| - libadc - 1.1-trunk                                                         |
|   Authors:                                                                   |
|   Michael Wormit, Adrian L. Dempwolff, Philipp H. P. Harbach,                |
|   Caroline Krauter, Dirk Rehn, Matthias Schneider, Jan Wenzel                |
|                                                                              |
| - adcman - 2.6-trunk                                                         |
|   Authors:                                                                   |
|   Michael Wormit, Adrian L. Dempwolff, Philipp H. P. Harbach,                |
|   Caroline Krauter, Daniel Lefrancois, Jan-Michael Mewes, Dirk Rehn,         |
|   Matthias Schneider, Jan Wenzel, Andreas Dreuw                              |
|                                                                              |
| Authors of earlier versions of ADCMAN:                                       |
| Andreas Dreuw, Jan Hendrik Starcke, Dirk Rehn, Michael Wormit                |
|                                                                              |
================================================================================

 Created directory /scratch/fum/qchem53248/plots
  Import QC data ...  CPU 0.00 s  wall 0.02 s

 Alpha MOs, Restricted
 -- Occupied --                  
-11.239 -11.237  -1.030  -0.786  -0.635  -0.582  -0.500  -0.374
  1 A     2 A     3 A     4 A     5 A     6 A     7 A     8 A                  
 -- Virtual --                   
  0.168   0.203   0.231   0.236   0.303   0.463   0.580   0.609
  9 A    10 A    11 A    12 A    13 A    14 A    15 A    16 A                  
  0.689   0.705   0.776   0.807   0.858   0.928   0.971   1.006
 17 A    18 A    19 A    20 A    21 A    22 A    23 A    24 A                  
  1.130   1.237   1.241   1.263   1.291   1.593   1.728   1.744
 25 A    26 A    27 A    28 A    29 A    30 A    31 A    32 A                  
  1.811   1.852   1.854   1.901   1.963   1.972   2.224   2.248
 33 A    34 A    35 A    36 A    37 A    38 A    39 A    40 A                  
  2.356   2.423   2.493   2.623   2.679   2.795   3.099   3.369
 41 A    42 A    43 A    44 A    45 A    46 A    47 A    48 A                  

 Beta MOs, Restricted
 -- Occupied --                  
-11.239 -11.237  -1.030  -0.786  -0.635  -0.582  -0.500  -0.374
  1 A     2 A     3 A     4 A     5 A     6 A     7 A     8 A                  
 -- Virtual --                   
  0.168   0.203   0.231   0.236   0.303   0.463   0.580   0.609
  9 A    10 A    11 A    12 A    13 A    14 A    15 A    16 A                  
  0.689   0.705   0.776   0.807   0.858   0.928   0.971   1.006
 17 A    18 A    19 A    20 A    21 A    22 A    23 A    24 A                  
  1.130   1.237   1.241   1.263   1.291   1.593   1.728   1.744
 25 A    26 A    27 A    28 A    29 A    30 A    31 A    32 A                  
  1.811   1.852   1.854   1.901   1.963   1.972   2.224   2.248
 33 A    34 A    35 A    36 A    37 A    38 A    39 A    40 A                  
  2.356   2.423   2.493   2.623   2.679   2.795   3.099   3.369
 41 A    42 A    43 A    44 A    45 A    46 A    47 A    48 A                  
  Import AO data ...  CPU 0.01 s  wall 0.28 s
  Using point group: C1
  Irreducible representations in point group: A
  Molecular orbitals: 
  Occupied MOs:
  Block   0:   1 (  A) A   2 (  A) A   3 (  A) A   4 (  A) A   5 (  A) A
                  -11.24      -11.24       -1.03     -0.7859      -0.635
               6 (  A) A   7 (  A) A   8 (  A) A
                 -0.5823     -0.4995     -0.3744
  Block   1:   1 (  A) B   2 (  A) B   3 (  A) B   4 (  A) B   5 (  A) B
                  -11.24      -11.24       -1.03     -0.7859      -0.635
               6 (  A) B   7 (  A) B   8 (  A) B
                 -0.5823     -0.4995     -0.3744
  Virtual MOs:
  Block   0:   9 (  A) A  10 (  A) A  11 (  A) A  12 (  A) A  13 (  A) A
                  0.1679      0.2026       0.231      0.2364       0.303
              14 (  A) A  15 (  A) A  16 (  A) A  17 (  A) A  18 (  A) A
                  0.4628      0.5798      0.6089      0.6887      0.7048
              19 (  A) A  20 (  A) A  21 (  A) A  22 (  A) A
                  0.7757      0.8074      0.8584       0.928
  Block   1:  23 (  A) A  24 (  A) A  25 (  A) A  26 (  A) A  27 (  A) A
                  0.9706       1.006        1.13       1.237       1.241
              28 (  A) A  29 (  A) A  30 (  A) A  31 (  A) A  32 (  A) A
                   1.263       1.291       1.593       1.728       1.744
              33 (  A) A  34 (  A) A  35 (  A) A  36 (  A) A
                   1.811       1.852       1.854       1.901
  Block   2:  37 (  A) A  38 (  A) A  39 (  A) A  40 (  A) A  41 (  A) A
                   1.963       1.972       2.224       2.248       2.356
              42 (  A) A  43 (  A) A  44 (  A) A  45 (  A) A  46 (  A) A
                   2.423       2.493       2.623       2.679       2.795
              47 (  A) A  48 (  A) A
                   3.099       3.369
  Block   3:   9 (  A) B  10 (  A) B  11 (  A) B  12 (  A) B  13 (  A) B
                  0.1679      0.2026       0.231      0.2364       0.303
              14 (  A) B  15 (  A) B  16 (  A) B  17 (  A) B  18 (  A) B
                  0.4628      0.5798      0.6089      0.6887      0.7048
              19 (  A) B  20 (  A) B  21 (  A) B  22 (  A) B
                  0.7757      0.8074      0.8584       0.928
  Block   4:  23 (  A) B  24 (  A) B  25 (  A) B  26 (  A) B  27 (  A) B
                  0.9706       1.006        1.13       1.237       1.241
              28 (  A) B  29 (  A) B  30 (  A) B  31 (  A) B  32 (  A) B
                   1.263       1.291       1.593       1.728       1.744
              33 (  A) B  34 (  A) B  35 (  A) B  36 (  A) B
                   1.811       1.852       1.854       1.901
  Block   5:  37 (  A) B  38 (  A) B  39 (  A) B  40 (  A) B  41 (  A) B
                   1.963       1.972       2.224       2.248       2.356
              42 (  A) B  43 (  A) B  44 (  A) B  45 (  A) B  46 (  A) B
                   2.423       2.493       2.623       2.679       2.795
              47 (  A) B  48 (  A) B
                   3.099       3.369
  Import MO data ...  CPU 0.13 s  wall 0.41 s
  Import HF data ...  CPU 1.23 s  wall 0.47 s
  Import 2e integrals ...  CPU 1.19 s  wall 0.23 s

--------------------------------------------------------------------------------
                                   HF Summary                                   
--------------------------------------------------------------------------------
  Energy:                                                  -78.0396506095 a.u.
  Dip. moment [a.u.]:                  [  -0.000180,   -0.000212,    0.001260]
  Total dipole [Debye]:                                               0.003280
  <r^2> [a.u.]:                        [ 175.892595,   35.294081,   11.677974]
  Total <r^2> [a.u.]:                                               222.864650
--------------------------------------------------------------------------------
  HF properties ...  CPU 0.07 s  wall 0.06 s
  MP(1) calculation ...  CPU 0.01 s  wall 0.04 s
  N^6 prerequesite intermediates ...  CPU 0.60 s  wall 0.22 s
  Difference density matrix of state mp2_gs printed to ASCII file 'State_mp2_gs_Difference.txt'
Exporting MP density matrix to file 'Densmat_MP.txt'.
Export successful
  Total density matrix of state mp2_gs printed to ASCII file 'State_mp2_gs_Total.txt'
Exporting MP density matrix to file 'Densmat_MP.txt'.
Export successful

--------------------------------------------------------------------------------
                                 MP(2) Summary                                  
--------------------------------------------------------------------------------
  MP energy contribution:                                   -0.2804888183 a.u.
  Total energy:                                            -78.3201394277 a.u.
  Dip. moment [a.u.]:                  [  -0.000155,   -0.000179,    0.001247]
  Total dipole [Debye]:                                               0.003226
  <r^2> [a.u.]:                        [ 175.933138,   35.329776,   11.505519]
  Total <r^2> [a.u.]:                                               222.768433

  Density matrix analysis:
  ------------------------
  NOs
    Occupation of frontier NOs:
       0.0455   1.9380
    Number of electrons: 16.000000
    Number of unpaired electrons: n_u =  0.40725, n_u,nl =  0.04580
    NO participation ratio (PR_NO): 13.896557
  
  
  Mulliken Population Analysis
  Atom      Charge (e)              h+              e-           Del q
  --------------------------------------------------------------------
   1 H        0.055025        0.013904       -0.011310        0.002593
   2 C       -0.110067        0.094602       -0.099797       -0.005195
   3 H        0.054946        0.013909       -0.011309        0.002601
   4 C       -0.109825        0.094587       -0.099783       -0.005196
   5 H        0.055037        0.013904       -0.011309        0.002596
   6 H        0.054884        0.013910       -0.011308        0.002602
  --------------------------------------------------------------------
  Sum:        0.000000        0.244816       -0.244816       -0.000000
  
  Multipole moment analysis of the density matrix
    Molecular charge:                      -0.000000
    Number of electrons:                   16.000000
      Center of electronic charge [Ang]: [ -1.561692,  -0.065382,   0.000725]
    Total nuclear charge:                  16.000000
      Center of nuclear charge [Ang]:    [ -1.561697,  -0.065388,   0.000766]
    Dipole moment [D]:                     0.003226
      Cartesian components [D]:          [ -0.000393,  -0.000456,   0.003169]
    RMS size of the density [Ang]:         1.206519
      Cartesian components [Ang]:        [  0.800164,   0.783619,   0.448739]
  
  Exciton analysis of the difference density matrix
    <r_h> [Ang]:                  [ -1.561581,  -0.065316,   0.000531]
    <r_e> [Ang]:                  [ -1.561637,  -0.065387,   0.000559]
    |<r_e - r_h>| [Ang]:            0.000095
    Hole size [Ang]:                1.401654
      Cartesian components [Ang]: [  0.852984,   0.840263,   0.728704]
    Electron size [Ang]:            1.361761
      Cartesian components [Ang]: [  0.879649,   0.864212,   0.577712]
--------------------------------------------------------------------------------
  MP(2) calculation ...  CPU 0.53 s  wall 0.31 s
  Start ADC(2)-s ...  CPU 0.06 s  wall 0.04 s
  ADC(2) intermediates ...  CPU 0.24 s  wall 0.05 s
  Starting Davidson for singlet states of irrep A ... 
--------------------------------------------------------------------------------
   It NVec Conv  Avg. Norm  Max. Norm  Conv. states           Remark
--------------------------------------------------------------------------------
        10    0  1.329e-01  4.687e-01  0.4117 n n n n n n n n Guess.
    1   20    0  2.315e-02  1.125e-01  0.3261 n n n n n n n n 
    2   30    0  5.921e-03  2.462e-02  0.3213 n n n n n n n n 
    3   40    0  1.967e-03  1.049e-02  0.3209 n n n n n n n n 
    4   50    0  5.176e-04  3.451e-03  0.3209 n n n n n n n n 
    5   20    0  2.645e-04  1.666e-03  0.3209 n n n n n n n n Subspace collapsed.
    6   30    0  1.247e-04  7.787e-04  0.3209 n n n n n n n n 
    7   40    0  1.007e-04  7.762e-04  0.3209 n n n n n n n n 
    8   50    0  5.423e-05  3.354e-04  0.3209 n n n n n n n n 
    9   20    0  2.948e-05  1.916e-04  0.3209 n n n n n n n n Subspace collapsed.
   10   30    3  2.369e-05  1.827e-04  0.3209 n y y y n n n n 
   11   40    5  1.771e-05  1.638e-04  0.3209 y y y y y n n n 
   12   50    6  7.006e-06  5.176e-05  0.3209 y y y y y y n n 
   13   20    6  4.451e-06  3.593e-05  0.3209 y y y y y y n n Subspace collapsed.
   14   30    6  3.503e-06  2.167e-05  0.3209 y y y y y y n n 
   15   40    6  2.489e-06  1.707e-05  0.3209 y y y y y y n n 
   16   50    6  1.838e-06  1.342e-05  0.3209 y y y y y y n n 
   17   20    6  7.937e-07  5.779e-06  0.3209 y y y y y y n n Subspace collapsed.
   18   30    7  6.287e-07  4.601e-06  0.3209 y y y y y y y n 
   19   40    7  4.971e-07  3.657e-06  0.3209 y y y y y y y n 
   20   50    8  2.730e-07  2.048e-06  0.3209 y y y y y y y y 
   21   20    8  2.052e-07  1.522e-06  0.3209 y y y y y y y y Subspace collapsed.
   22   30    8  2.687e-07  1.953e-06  0.3209 y y y y y y y y 
   23   32    8  2.516e-07  1.807e-06  0.3209 y y y y y y y y 
   24   34    8  2.551e-07  1.829e-06  0.3209 y y y y y y y y 
   25   43    8  2.626e-07  1.921e-06  0.3209 y y y y y y y y 
   26   43    8  2.626e-07  1.921e-06  0.3209 y y y y y y y y 
   27   50    8  2.662e-07  1.968e-06  0.3209 y y y y y y y y 
   28   16    9  1.489e-07  1.108e-06  0.3209 y y y y y y y y Subspace collapsed.
   29   22   10  1.211e-07  8.881e-07  0.3209 y y y y y y y y Converged.
--------------------------------------------------------------------------------
  Davidson Summary: 
 ------------------------------------------------------------
  State  0: excitation energy =   0.3209 a.u.   (converged)
  State  1: excitation energy =   0.3290 a.u.   (converged)
  State  2: excitation energy =   0.3359 a.u.   (converged)
  State  3: excitation energy =   0.3579 a.u.   (converged)
  State  4: excitation energy =   0.3733 a.u.   (converged)
  State  5: excitation energy =   0.3866 a.u.   (converged)
  State  6: excitation energy =   0.4202 a.u.   (converged)
  State  7: excitation energy =   0.4435 a.u.   (converged)
  State  8: excitation energy =   0.4537 a.u.   (converged)
  State  9: excitation energy =   0.4585 a.u.   (converged)
 ------------------------------------------------------------

  Singlet states of irrep A ...  CPU 190.26 s  wall 62.37 s
  TDMs ...  CPU 2.31 s  wall 0.85 s
  SDMs ...  CPU 4.50 s  wall 1.46 s
  Starting TPA DIIS iterations ... 
------------------------------------ 
   It     Res. Norm  Remark
------------------------------------
                       Guess.
    1     4.399e+00  
    2     5.836e+00  
    3     1.086e+00  
    4     2.632e-01  
    5     6.571e-02  
    6     2.776e-02  
    7     8.476e-03  
    8     1.550e-03  
    9     5.825e-04  
   10     9.770e-05  
   11     3.153e-05  
   12     4.885e-06  
   13     1.652e-06  
   14     4.810e-07  Converged.
   ... Converged in 14 steps (norm: 4.80992e-07)
------------------------------------
  Starting TPA DIIS iterations ... 
------------------------------------ 
   It     Res. Norm  Remark
------------------------------------
                       Guess.
    1     4.186e+00  
    2     5.544e+00  
    3     1.037e+00  
    4     2.616e-01  
    5     6.545e-02  
    6     2.779e-02  
    7     8.336e-03  
    8     1.572e-03  
    9     5.922e-04  
   10     9.739e-05  
   11     3.191e-05  
   12     4.858e-06  
   13     1.683e-06  
   14     4.755e-07  Converged.
   ... Converged in 14 steps (norm: 4.75523e-07)
------------------------------------
  Starting TPA DIIS iterations ... 
------------------------------------ 
   It     Res. Norm  Remark
------------------------------------
                       Guess.
    1     6.846e-01  
    2     4.773e-01  
    3     1.678e-01  
    4     4.567e-02  
    5     1.817e-02  
    6     7.375e-03  
    7     1.073e-03  
    8     4.583e-04  
    9     1.263e-04  
   10     3.095e-05  
   11     5.134e-06  
   12     1.637e-06  
   13     6.496e-07  Converged.
   ... Converged in 13 steps (norm: 6.49554e-07)
------------------------------------
  Starting TPA DIIS iterations ... 
------------------------------------ 
   It     Res. Norm  Remark
------------------------------------
                       Guess.
    1     4.595e+00  
    2     6.187e+00  
    3     1.142e+00  
    4     2.832e-01  
    5     7.139e-02  
    6     3.036e-02  
    7     9.258e-03  
    8     1.692e-03  
    9     6.390e-04  
   10     1.076e-04  
   11     3.496e-05  
   12     5.450e-06  
   13     1.853e-06  
   14     5.380e-07  Converged.
   ... Converged in 14 steps (norm: 5.38032e-07)
------------------------------------
  Starting TPA DIIS iterations ... 
------------------------------------ 
   It     Res. Norm  Remark
------------------------------------
                       Guess.
    1     4.372e+00  
    2     5.877e+00  
    3     1.090e+00  
    4     2.812e-01  
    5     7.111e-02  
    6     3.041e-02  
    7     9.106e-03  
    8     1.717e-03  
    9     6.499e-04  
   10     1.073e-04  
   11     3.537e-05  
   12     5.416e-06  
   13     1.890e-06  
   14     5.315e-07  Converged.
   ... Converged in 14 steps (norm: 5.31466e-07)
------------------------------------
  Starting TPA DIIS iterations ... 
------------------------------------ 
   It     Res. Norm  Remark
------------------------------------
                       Guess.
    1     6.929e-01  
    2     4.889e-01  
    3     1.744e-01  
    4     4.920e-02  
    5     1.940e-02  
    6     7.802e-03  
    7     1.165e-03  
    8     5.136e-04  
    9     1.440e-04  
   10     3.430e-05  
   11     5.593e-06  
   12     1.830e-06  
   13     7.508e-07  Converged.
   ... Converged in 13 steps (norm: 7.5081e-07)
------------------------------------
  Starting TPA DIIS iterations ... 
------------------------------------ 
   It     Res. Norm  Remark
------------------------------------
                       Guess.
    1     4.775e+00  
    2     6.514e+00  
    3     1.193e+00  
    4     3.020e-01  
    5     7.675e-02  
    6     3.283e-02  
    7     9.997e-03  
    8     1.826e-03  
    9     6.926e-04  
   10     1.170e-04  
   11     3.825e-05  
   12     5.993e-06  
   13     2.048e-06  
   14     5.929e-07  Converged.
   ... Converged in 14 steps (norm: 5.92924e-07)
------------------------------------
  Starting TPA DIIS iterations ... 
------------------------------------ 
   It     Res. Norm  Remark
------------------------------------
                       Guess.
    1     4.543e+00  
    2     6.187e+00  
    3     1.138e+00  
    4     2.998e-01  
    5     7.646e-02  
    6     3.289e-02  
    7     9.834e-03  
    8     1.854e-03  
    9     7.047e-04  
   10     1.167e-04  
   11     3.869e-05  
   12     5.953e-06  
   13     2.090e-06  
   14     5.853e-07  Converged.
   ... Converged in 14 steps (norm: 5.85259e-07)
------------------------------------
  Starting TPA DIIS iterations ... 
------------------------------------ 
   It     Res. Norm  Remark
------------------------------------
                       Guess.
    1     7.001e-01  
    2     4.992e-01  
    3     1.803e-01  
    4     5.259e-02  
    5     2.050e-02  
    6     8.197e-03  
    7     1.253e-03  
    8     5.678e-04  
    9     1.613e-04  
   10     3.704e-05  
   11     6.021e-06  
   12     2.019e-06  
   13     8.548e-07  Converged.
   ... Converged in 13 steps (norm: 8.54757e-07)
------------------------------------
  Starting TPA DIIS iterations ... 
------------------------------------ 
   It     Res. Norm  Remark
------------------------------------
                       Guess.
    1     5.425e+00  
    2     7.724e+00  
    3     1.377e+00  
    4     3.742e-01  
    5     9.726e-02  
    6     4.238e-02  
    7     1.283e-02  
    8     2.337e-03  
    9     8.998e-04  
   10     1.535e-04  
   11     5.124e-05  
   12     8.142e-06  
   13     2.837e-06  
   14     8.117e-07  Converged.
   ... Converged in 14 steps (norm: 8.11672e-07)
------------------------------------
  Starting TPA DIIS iterations ... 
------------------------------------ 
   It     Res. Norm  Remark
------------------------------------
                       Guess.
    1     5.159e+00  
    2     7.336e+00  
    3     1.313e+00  
    4     3.707e-01  
    5     9.692e-02  
    6     4.252e-02  
    7     1.263e-02  
    8     2.379e-03  
    9     9.165e-04  
   10     1.531e-04  
   11     5.175e-05  
   12     8.073e-06  
   13     2.900e-06  
   14     7.993e-07  Converged.
   ... Converged in 14 steps (norm: 7.99294e-07)
------------------------------------
  Starting TPA DIIS iterations ... 
------------------------------------ 
   It     Res. Norm  Remark
------------------------------------
                       Guess.
    1     7.239e-01  
    2     5.347e-01  
    3     2.012e-01  
    4     6.601e-02  
    5     2.426e-02  
    6     9.677e-03  
    7     1.603e-03  
    8     7.855e-04  
    9     2.297e-04  
   10     4.384e-05  
   11     7.626e-06  
   12     2.788e-06  
   13     1.330e-06  
   14     5.689e-07  Converged.
   ... Converged in 14 steps (norm: 5.68907e-07)
------------------------------------
  Starting TPA DIIS iterations ... 
------------------------------------ 
   It     Res. Norm  Remark
------------------------------------
                       Guess.
    1     5.975e+00  
    2     8.782e+00  
    3     1.532e+00  
    4     4.398e-01  
    5     1.159e-01  
    6     5.118e-02  
    7     1.541e-02  
    8     2.801e-03  
    9     1.091e-03  
   10     1.872e-04  
   11     6.345e-05  
   12     1.016e-05  
   13     3.600e-06  
   14     1.022e-06  
   15     3.501e-07  Converged.
   ... Converged in 15 steps (norm: 3.50101e-07)
------------------------------------
  Starting TPA DIIS iterations ... 
------------------------------------ 
   It     Res. Norm  Remark
------------------------------------
                       Guess.
    1     5.681e+00  
    2     8.340e+00  
    3     1.460e+00  
    4     4.352e-01  
    5     1.155e-01  
    6     5.139e-02  
    7     1.517e-02  
    8     2.855e-03  
    9     1.111e-03  
   10     1.867e-04  
   11     6.400e-05  
   12     1.006e-05  
   13     3.683e-06  
   14     1.005e-06  
   15     3.618e-07  Converged.
   ... Converged in 15 steps (norm: 3.61806e-07)
------------------------------------
  Starting TPA DIIS iterations ... 
------------------------------------ 
   It     Res. Norm  Remark
------------------------------------
                       Guess.
    1     7.417e-01  
    2     5.626e-01  
    3     2.183e-01  
    4     7.882e-02  
    5     2.721e-02  
    6     1.101e-02  
    7     1.939e-03  
    8     9.844e-04  
    9     2.905e-04  
   10     4.644e-05  
   11     9.084e-06  
   12     3.544e-06  
   13     1.872e-06  
   14     7.472e-07  Converged.
   ... Converged in 14 steps (norm: 7.47212e-07)
------------------------------------
  Starting TPA DIIS iterations ... 
------------------------------------ 
   It     Res. Norm  Remark
------------------------------------
                       Guess.
    1     6.527e+00  
    2     9.872e+00  
    3     1.685e+00  
    4     5.094e-01  
    5     1.357e-01  
    6     6.061e-02  
    7     1.815e-02  
    8     3.293e-03  
    9     1.295e-03  
   10     2.233e-04  
   11     7.664e-05  
   12     1.235e-05  
   13     4.442e-06  
   14     1.258e-06  
   15     4.409e-07  Converged.
   ... Converged in 15 steps (norm: 4.40928e-07)
------------------------------------
  Starting TPA DIIS iterations ... 
------------------------------------ 
   It     Res. Norm  Remark
------------------------------------
                       Guess.
    1     6.204e+00  
    2     9.375e+00  
    3     1.606e+00  
    4     5.034e-01  
    5     1.352e-01  
    6     6.091e-02  
    7     1.787e-02  
    8     3.360e-03  
    9     1.320e-03  
   10     2.227e-04  
   11     7.721e-05  
   12     1.221e-05  
   13     4.546e-06  
   14     1.235e-06  
   15     4.593e-07  Converged.
   ... Converged in 15 steps (norm: 4.59302e-07)
------------------------------------
  Starting TPA DIIS iterations ... 
------------------------------------ 
   It     Res. Norm  Remark
------------------------------------
                       Guess.
    1     7.576e-01  
    2     5.889e-01  
    3     2.348e-01  
    4     9.298e-02  
    5     3.006e-02  
    6     1.243e-02  
    7     2.311e-03  
    8     1.184e-03  
    9     3.509e-04  
   10     4.769e-05  
   11     1.066e-05  
   12     4.396e-06  
   13     2.560e-06  
   14     9.487e-07  Converged.
   ... Converged in 14 steps (norm: 9.48693e-07)
------------------------------------
  Starting TPA DIIS iterations ... 
------------------------------------ 
   It     Res. Norm  Remark
------------------------------------
                       Guess.
    1     8.348e+00  
    2     1.367e+01  
    3     2.186e+00  
    4     7.628e-01  
    5     2.077e-01  
    6     9.565e-02  
    7     2.814e-02  
    8     5.076e-03  
    9     2.050e-03  
   10     3.565e-04  
   11     1.251e-04  
   12     2.053e-05  
   13     7.625e-06  
   14     2.234e-06  
   15     8.197e-07  Converged.
   ... Converged in 15 steps (norm: 8.19671e-07)
------------------------------------
  Starting TPA DIIS iterations ... 
------------------------------------ 
   It     Res. Norm  Remark
------------------------------------
                       Guess.
    1     7.931e+00  
    2     1.297e+01  
    3     2.081e+00  
    4     7.509e-01  
    5     2.071e-01  
    6     9.632e-02  
    7     2.772e-02  
    8     5.195e-03  
    9     2.092e-03  
   10     3.555e-04  
   11     1.256e-04  
   12     2.021e-05  
   13     7.812e-06  
   14     2.180e-06  
   15     8.814e-07  Converged.
   ... Converged in 15 steps (norm: 8.81407e-07)
------------------------------------
  Starting TPA DIIS iterations ... 
------------------------------------ 
   It     Res. Norm  Remark
------------------------------------
                       Guess.
    1     8.012e-01  
    2     6.667e-01  
    3     2.860e-01  
    4     1.486e-01  
    5     3.950e-02  
    6     1.763e-02  
    7     3.770e-03  
    8     1.725e-03  
    9     5.361e-04  
   10     5.468e-05  
   11     1.681e-05  
   12     7.855e-06  
   13     5.919e-06  
   14     1.789e-06  
   15     6.041e-07  Converged.
   ... Converged in 15 steps (norm: 6.0406e-07)
------------------------------------
  Starting TPA DIIS iterations ... 
------------------------------------ 
   It     Res. Norm  Remark
------------------------------------
                       Guess.
    1     1.015e+01  
    2     1.767e+01  
    3     2.668e+00  
    4     1.041e+00  
    5     2.873e-01  
    6     1.353e-01  
    7     3.919e-02  
    8     7.041e-03  
    9     2.901e-03  
   10     5.057e-04  
   11     1.771e-04  
   12     2.993e-05  
   13     1.121e-05  
   14     3.500e-06  
   15     1.372e-06  
   16     3.230e-07  Converged.
   ... Converged in 16 steps (norm: 3.23039e-07)
------------------------------------
  Starting TPA DIIS iterations ... 
------------------------------------ 
   It     Res. Norm  Remark
------------------------------------
                       Guess.
    1     9.638e+00  
    2     1.678e+01  
    3     2.539e+00  
    4     1.021e+00  
    5     2.866e-01  
    6     1.365e-01  
    7     3.863e-02  
    8     7.221e-03  
    9     2.961e-03  
   10     5.040e-04  
   11     1.777e-04  
   12     2.936e-05  
   13     1.152e-05  
   14     3.398e-06  
   15     1.526e-06  
   16     4.074e-07  Converged.
   ... Converged in 16 steps (norm: 4.07439e-07)
------------------------------------
  Starting TPA DIIS iterations ... 
------------------------------------ 
   It     Res. Norm  Remark
------------------------------------
                       Guess.
    1     8.347e-01  
    2     7.334e-01  
    3     3.326e-01  
    4     2.150e-01  
    5     4.960e-02  
    6     2.324e-02  
    7     5.472e-03  
    8     2.023e-03  
    9     6.992e-04  
   10     7.141e-05  
   11     2.416e-05  
   12     1.209e-05  
   13     1.072e-05  
   14     2.927e-06  
   15     1.010e-06  
   16     7.935e-07  Converged.
   ... Converged in 16 steps (norm: 7.93515e-07)
------------------------------------
  Starting TPA DIIS iterations ... 
------------------------------------ 
   It     Res. Norm  Remark
------------------------------------
                       Guess.
    1     1.114e+01  
    2     1.998e+01  
    3     2.929e+00  
    4     1.203e+00  
    5     3.343e-01  
    6     1.591e-01  
    7     4.571e-02  
    8     8.197e-03  
    9     3.408e-03  
   10     5.940e-04  
   11     2.068e-04  
   12     3.573e-05  
   13     1.342e-05  
   14     4.314e-06  
   15     1.807e-06  
   16     4.285e-07  Converged.
   ... Converged in 16 steps (norm: 4.28454e-07)
------------------------------------
  Starting TPA DIIS iterations ... 
------------------------------------ 
   It     Res. Norm  Remark
------------------------------------
                       Guess.
    1     1.058e+01  
    2     1.897e+01  
    3     2.787e+00  
    4     1.179e+00  
    5     3.334e-01  
    6     1.606e-01  
    7     4.506e-02  
    8     8.415e-03  
    9     3.479e-03  
   10     5.918e-04  
   11     2.074e-04  
   12     3.499e-05  
   13     1.382e-05  
   14     4.186e-06  
   15     2.034e-06  
   16     5.831e-07  Converged.
   ... Converged in 16 steps (norm: 5.83077e-07)
------------------------------------
  Starting TPA DIIS iterations ... 
------------------------------------ 
   It     Res. Norm  Remark
------------------------------------
                       Guess.
    1     8.504e-01  
    2     7.669e-01  
    3     3.568e-01  
    4     2.550e-01  
    5     5.550e-02  
    6     2.637e-02  
    7     6.483e-03  
    8     2.110e-03  
    9     7.836e-04  
   10     8.309e-05  
   11     2.868e-05  
   12     1.467e-05  
   13     1.387e-05  
   14     3.697e-06  
   15     1.361e-06  
   16     1.086e-06  
   17     5.946e-07  Converged.
   ... Converged in 17 steps (norm: 5.94606e-07)
------------------------------------
  Starting TPA DIIS iterations ... 
------------------------------------ 
   It     Res. Norm  Remark
------------------------------------
                       Guess.
    1     1.166e+01  
    2     2.121e+01  
    3     3.063e+00  
    4     1.289e+00  
    5     3.595e-01  
    6     1.719e-01  
    7     4.922e-02  
    8     8.817e-03  
    9     3.681e-03  
   10     6.414e-04  
   11     2.226e-04  
   12     3.893e-05  
   13     1.465e-05  
   14     4.767e-06  
   15     2.079e-06  
   16     4.921e-07  Converged.
   ... Converged in 16 steps (norm: 4.92088e-07)
------------------------------------
  Starting TPA DIIS iterations ... 
------------------------------------ 
   It     Res. Norm  Remark
------------------------------------
                       Guess.
    1     1.107e+01  
    2     2.013e+01  
    3     2.915e+00  
    4     1.262e+00  
    5     3.586e-01  
    6     1.736e-01  
    7     4.852e-02  
    8     9.055e-03  
    9     3.759e-03  
   10     6.390e-04  
   11     2.232e-04  
   12     3.810e-05  
   13     1.512e-05  
   14     4.629e-06  
   15     2.350e-06  
   16     6.942e-07  Converged.
   ... Converged in 16 steps (norm: 6.9417e-07)
------------------------------------
  Starting TPA DIIS iterations ... 
------------------------------------ 
   It     Res. Norm  Remark
------------------------------------
                       Guess.
    1     8.579e-01  
    2     7.836e-01  
    3     3.691e-01  
    4     2.764e-01  
    5     5.864e-02  
    6     2.798e-02  
    7     7.024e-03  
    8     2.143e-03  
    9     8.264e-04  
   10     8.951e-05  
   11     3.116e-05  
   12     1.606e-05  
   13     1.563e-05  
   14     4.139e-06  
   15     1.590e-06  
   16     1.259e-06  
   17     7.119e-07  Converged.
   ... Converged in 17 steps (norm: 7.11941e-07)
------------------------------------
  Two-photon absorbption ...  CPU 157.72 s  wall 42.93 s
  Transition density matrix of state singlet_A_1 printed to ASCII file 'State_singlet_A_1_Transition.txt'
  Transition density matrix of state singlet_A_2 printed to ASCII file 'State_singlet_A_2_Transition.txt'
  Transition density matrix of state singlet_A_3 printed to ASCII file 'State_singlet_A_3_Transition.txt'
  Transition density matrix of state singlet_A_4 printed to ASCII file 'State_singlet_A_4_Transition.txt'
  Transition density matrix of state singlet_A_5 printed to ASCII file 'State_singlet_A_5_Transition.txt'
  Transition density matrix of state singlet_A_6 printed to ASCII file 'State_singlet_A_6_Transition.txt'
  Transition density matrix of state singlet_A_7 printed to ASCII file 'State_singlet_A_7_Transition.txt'
  Transition density matrix of state singlet_A_8 printed to ASCII file 'State_singlet_A_8_Transition.txt'
  Transition density matrix of state singlet_A_9 printed to ASCII file 'State_singlet_A_9_Transition.txt'
  Transition density matrix of state singlet_A_10 printed to ASCII file 'State_singlet_A_10_Transition.txt'
  Transition properties ...  CPU 0.33 s  wall 0.61 s
  Difference density matrix of state singlet_A_1 printed to ASCII file 'State_singlet_A_1_Difference.txt'
  Total density matrix of state singlet_A_1 printed to ASCII file 'State_singlet_A_1_Total.txt'
  Difference density matrix of state singlet_A_2 printed to ASCII file 'State_singlet_A_2_Difference.txt'
  Total density matrix of state singlet_A_2 printed to ASCII file 'State_singlet_A_2_Total.txt'
  Difference density matrix of state singlet_A_3 printed to ASCII file 'State_singlet_A_3_Difference.txt'
  Total density matrix of state singlet_A_3 printed to ASCII file 'State_singlet_A_3_Total.txt'
  Difference density matrix of state singlet_A_4 printed to ASCII file 'State_singlet_A_4_Difference.txt'
  Total density matrix of state singlet_A_4 printed to ASCII file 'State_singlet_A_4_Total.txt'
  Difference density matrix of state singlet_A_5 printed to ASCII file 'State_singlet_A_5_Difference.txt'
  Total density matrix of state singlet_A_5 printed to ASCII file 'State_singlet_A_5_Total.txt'
  Difference density matrix of state singlet_A_6 printed to ASCII file 'State_singlet_A_6_Difference.txt'
  Total density matrix of state singlet_A_6 printed to ASCII file 'State_singlet_A_6_Total.txt'
  Difference density matrix of state singlet_A_7 printed to ASCII file 'State_singlet_A_7_Difference.txt'
  Total density matrix of state singlet_A_7 printed to ASCII file 'State_singlet_A_7_Total.txt'
  Difference density matrix of state singlet_A_8 printed to ASCII file 'State_singlet_A_8_Difference.txt'
  Total density matrix of state singlet_A_8 printed to ASCII file 'State_singlet_A_8_Total.txt'
  Difference density matrix of state singlet_A_9 printed to ASCII file 'State_singlet_A_9_Difference.txt'
  Total density matrix of state singlet_A_9 printed to ASCII file 'State_singlet_A_9_Total.txt'
  Difference density matrix of state singlet_A_10 printed to ASCII file 'State_singlet_A_10_Difference.txt'
  Total density matrix of state singlet_A_10 printed to ASCII file 'State_singlet_A_10_Total.txt'
  Properties ...  CPU 0.62 s  wall 1.02 s
  ISR TDMS ...  CPU 28.45 s  wall 9.06 s
  ISR transition properties ...  CPU 0.50 s  wall 0.24 s
  Sum-over-states TPA ...  CPU 0.00 s  wall 0.00 s

--------------------------------------------------------------------------------
                   State-averaged natural transition orbitals
--------------------------------------------------------------------------------
--------------------------------------------------------------------------------
  SA-NTO decomposition ...  CPU 0.01 s  wall 0.04 s

--------------------------------------------------------------------------------
                             Excited State Summary
--------------------------------------------------------------------------------
--------------------------------------------------------------------------------

  Excited state 1 (singlet, A)                                     [converged]
  ----------------------------------------------------------------------------
  Term symbol:  2 (1) A                                     R^2 =  1.66923e-13

  Total energy:                                            -77.9992526047 a.u.
  Excitation energy:                                               8.731775 eV

  Osc. strength:                                                      0.446199
  Trans. dip. moment [a.u.]:           [   1.047280,   -0.994453,   -0.006897]
  <i|r^2|0> [a.u.]:                    [   6.180507,   -0.244920,    0.000047]
  Two-photon absorption cross-section (SoS) [a.u.]:                   0.000033
  Two-photon absorption matrix (SoS) [a.u.]:
                                       |   -0.001067   -0.000418   -0.001283 |
                                       |   -0.000418    0.000387    0.001255 |
                                       |   -0.001283    0.001255    0.000296 |
  Two-photon absorption cross-section [a.u.]:                         0.000096
  Two-photon absorption matrix [a.u.]:
                                       |   -0.000579   -0.000154   -0.002617 |
                                       |   -0.000154    0.001042    0.002037 |
                                       |   -0.002617    0.002037    0.000323 |

  Dip. moment [a.u.]:                  [  -0.000135,   -0.000181,    0.001525]
  Total dipole [Debye]:                                               0.003920
  <r^2> [a.u.]:                        [ 176.680558,   36.015481,   11.916519]
  Total <r^2> [a.u.]:                                               224.612558

  V1^2 = 0.9713, V2^2 = 0.0287

  Important amplitudes:
      occ i     occ j     vir a      vir b          v   
    -----------------------------------------------------
     8 (A) A              9 (A) A                -0.6809
     6 (A) A             14 (A) A                 0.0617
     4 (A) A             10 (A) A                -0.0614
     7 (A) A             16 (A) A                -0.0575
     5 (A) A             13 (A) A                -0.0527
     6 (A) A             23 (A) A                 0.0485
     8 (A) A             20 (A) A                -0.0348
     6 (A) A             19 (A) A                 0.0302
     3 (A) A             12 (A) A                 0.0285
     5 (A) A             22 (A) A                -0.0218
     4 (A) A             24 (A) A                -0.0188
     3 (A) A             26 (A) A                 0.0187
     7 (A) A             11 (A) A                -0.0186
     8 (A) A   8 (A) B   17 (A) A   20 (A) B      0.0184
     8 (A) A   8 (A) B    9 (A) A   28 (A) B      0.0168
     6 (A) A             26 (A) A                -0.0163
     7 (A) A             21 (A) A                 0.0152
     3 (A) A             14 (A) A                -0.0143
     6 (A) A             12 (A) A                 0.0136
     3 (A) A   4 (A) B    9 (A) A    9 (A) B      0.0129
     3 (A) A             19 (A) A                -0.0121
     8 (A) A   8 (A) B   18 (A) A   19 (A) B      0.0111
     7 (A) A             32 (A) A                 0.0097
     7 (A) A             36 (A) A                -0.0086
     3 (A) A             23 (A) A                -0.0082
     8 (A) A   8 (A) B   25 (A) A   29 (A) B      0.0076
     6 (A) A             35 (A) A                -0.0072
     6 (A) A             40 (A) A                -0.0067
     3 (A) A   6 (A) B    9 (A) A   28 (A) B     -0.0065
     5 (A) A   8 (A) B   11 (A) A    9 (A) B      0.0062
     7 (A) A   8 (A) B   13 (A) A   20 (A) B     -0.0060
     5 (A) A   8 (A) B   11 (A) A   20 (A) B     -0.0060
     5 (A) A   7 (A) B    9 (A) A    9 (A) B     -0.0060
     6 (A) A   8 (A) A   19 (A) A   28 (A) A      0.0060
     5 (A) A             27 (A) A                 0.0060
     5 (A) A   8 (A) B   16 (A) A    9 (A) B     -0.0059
     3 (A) A   5 (A) B    9 (A) A   25 (A) B      0.0058
     7 (A) A   8 (A) B   22 (A) A   20 (A) B     -0.0057
     3 (A) A             40 (A) A                 0.0056
     8 (A) A   8 (A) B   19 (A) A   30 (A) B      0.0056
    -----------------------------------------------------

  Density matrix analysis:
  ------------------------
  NOs
    Occupation of frontier NOs:
       0.9491   1.0219
    Number of electrons: 16.000000
    Number of unpaired electrons: n_u =  2.31679, n_u,nl =  2.03329
    NO participation ratio (PR_NO):  2.874060
  
  
  Mulliken Population Analysis
  Atom      Charge (e)              h+              e-           Del q
  --------------------------------------------------------------------
   1 H        0.063054        0.020444       -0.012415        0.008029
   2 C       -0.126114        0.490662       -0.506709       -0.016047
   3 H        0.062960        0.020434       -0.012421        0.008013
   4 C       -0.125847        0.490669       -0.506691       -0.016022
   5 H        0.063050        0.020440       -0.012426        0.008014
   6 H        0.062898        0.020436       -0.012423        0.008013
  --------------------------------------------------------------------
  Sum:        0.000000        1.063085       -1.063085        0.000000
  
  Multipole moment analysis of the density matrix
    Molecular charge:                      0.000000
    Number of electrons:                   16.000000
      Center of electronic charge [Ang]: [ -1.561692,  -0.065382,   0.000716]
    Total nuclear charge:                  16.000000
      Center of nuclear charge [Ang]:    [ -1.561697,  -0.065388,   0.000766]
    Dipole moment [D]:                     0.003920
      Cartesian components [D]:          [ -0.000344,  -0.000460,   0.003877]
    RMS size of the density [Ang]:         1.219821
      Cartesian components [Ang]:        [  0.808296,   0.791240,   0.456683]
  
  Exciton analysis of the difference density matrix
    <r_h> [Ang]:                  [ -1.561721,  -0.065367,   0.000098]
    <r_e> [Ang]:                  [ -1.561731,  -0.065367,  -0.000041]
    |<r_e - r_h>| [Ang]:            0.000139
    Hole size [Ang]:                1.287299
      Cartesian components [Ang]: [  0.730262,   0.714683,   0.782997]
    Electron size [Ang]:            1.463856
      Cartesian components [Ang]: [  0.854478,   0.831501,   0.849321]

  Transition density matrix analysis:
  -----------------------------------
  
  CT numbers (Mulliken)
    omega =     0.9532
    <Phe> =    -0.1603
  
  Exciton analysis of the transition density matrix
    Trans. dipole moment [D]:             1.835424
      Cartesian components [D]:         [  1.330960,  -1.263823,  -0.008765]
    <r_h> [Ang]:                        [ -1.561753,  -0.065379,   0.000216]
    <r_e> [Ang]:                        [ -1.561720,  -0.065357,  -0.000147]
    |<r_e - r_h>| [Ang]:                  0.000365
    Hole size [Ang]:                      1.214404
      Cartesian components [Ang]:       [  0.649997,   0.636933,   0.804112]
    Electron size [Ang]:                  1.486751
      Cartesian components [Ang]:       [  0.864947,   0.840367,   0.869528]
    RMS electron-hole separation [Ang]:   1.937174
      Cartesian components [Ang]:       [  1.106981,   1.076025,   1.170216]
    Covariance(r_h, r_e) [Ang^2]:        -0.033719
    Correlation coefficient:             -0.018675
    Center-of-mass size [Ang]:            0.951022
      Cartesian components [Ang]:       [  0.528169,   0.516229,   0.599155]

  Decomposition into state-averaged NTOs
    H- 0 -> L+ 0:  0.6697 ( 89.7%)
    H- 2 -> L+ 5:  0.0830 (  1.4%)
                   omega =  95.3%
  ----------------------------------------------------------------------------


  Excited state 2 (singlet, A)                                     [converged]
  ----------------------------------------------------------------------------
  Term symbol:  3 (1) A                                     R^2 =  3.10990e-13

  Total energy:                                            -77.9911440418 a.u.
  Excitation energy:                                               8.952420 eV

  Osc. strength:                                                      0.000001
  Trans. dip. moment [a.u.]:           [   0.001134,    0.000074,    0.001391]
  <i|r^2|0> [a.u.]:                    [   0.075917,    0.081427,   -0.150636]
  Two-photon absorption cross-section (SoS) [a.u.]:                   4.564727
  Two-photon absorption matrix (SoS) [a.u.]:
                                       |    0.054942    0.056889   -0.513287 |
                                       |    0.056889    0.058711   -0.542380 |
                                       |   -0.513287   -0.542380   -0.113858 |
  Two-photon absorption cross-section [a.u.]:                         0.174865
  Two-photon absorption matrix [a.u.]:
                                       |    0.007690   -0.010083    0.099026 |
                                       |   -0.010083   -0.029916    0.105964 |
                                       |    0.099026    0.105964    0.022122 |

  Dip. moment [a.u.]:                  [  -0.000587,   -0.001956,    0.002727]
  Total dipole [Debye]:                                               0.008659
  <r^2> [a.u.]:                        [ 175.020463,   34.354483,   13.212968]
  Total <r^2> [a.u.]:                                               222.587914

  V1^2 = 0.9541, V2^2 = 0.0459

  Important amplitudes:
      occ i     occ j     vir a      vir b          v   
    -----------------------------------------------------
     7 (A) A              9 (A) A                 0.6685
     8 (A) A             11 (A) A                 0.1513
     7 (A) A             20 (A) A                 0.0756
     5 (A) A   8 (A) B    9 (A) A    9 (A) B      0.0315
     8 (A) A             16 (A) A                -0.0281
     8 (A) A             21 (A) A                -0.0178
     5 (A) A             28 (A) A                 0.0150
     4 (A) A   7 (A) B    9 (A) A   19 (A) B     -0.0136
     5 (A) A   7 (A) B    9 (A) A   16 (A) B     -0.0134
     7 (A) A   8 (A) B   20 (A) A   17 (A) B     -0.0106
     7 (A) A   8 (A) A    9 (A) A   28 (A) A      0.0098
     5 (A) A   8 (A) B    9 (A) A   20 (A) B      0.0094
     4 (A) A   6 (A) B    9 (A) A   16 (A) B      0.0091
     5 (A) A   6 (A) A    9 (A) A   23 (A) A      0.0090
     5 (A) A   6 (A) A    9 (A) A   14 (A) A      0.0089
     5 (A) A   6 (A) B    9 (A) A   19 (A) B      0.0086
     8 (A) A   7 (A) B    9 (A) A   28 (A) B     -0.0085
     6 (A) A   7 (A) B    9 (A) A   18 (A) B      0.0085
     4 (A) A   5 (A) A    9 (A) A   10 (A) A      0.0085
     5 (A) A   6 (A) B    9 (A) A   23 (A) B      0.0080
     3 (A) A   7 (A) B    9 (A) A   18 (A) B      0.0080
     5 (A) A   7 (A) A    9 (A) A   16 (A) A     -0.0078
     4 (A) A   8 (A) B    9 (A) A   25 (A) B      0.0076
     4 (A) A   7 (A) B   19 (A) A    9 (A) B     -0.0075
     7 (A) A   8 (A) B   17 (A) A   20 (A) B     -0.0074
     5 (A) A   5 (A) B    9 (A) A   13 (A) B     -0.0073
     7 (A) A   8 (A) B   19 (A) A   18 (A) B     -0.0071
     4 (A) A   5 (A) B    9 (A) A   18 (A) B     -0.0069
     5 (A) A   8 (A) A    9 (A) A   20 (A) A      0.0068
     7 (A) A   7 (A) B   20 (A) A   22 (A) B      0.0066
     7 (A) A   8 (A) B   17 (A) A    9 (A) B     -0.0065
     5 (A) A   6 (A) B    9 (A) A   14 (A) B      0.0063
     5 (A) A   7 (A) B   11 (A) A   20 (A) B      0.0062
     4 (A) A   5 (A) B   10 (A) A    9 (A) B     -0.0061
     4 (A) A   7 (A) A    9 (A) A   19 (A) A     -0.0061
     5 (A) A             38 (A) A                 0.0060
     4 (A) A   6 (A) B   16 (A) A    9 (A) B      0.0058
     4 (A) A   8 (A) A    9 (A) A   25 (A) A      0.0057
     6 (A) A   7 (A) A   19 (A) A   28 (A) A     -0.0056
     5 (A) A   7 (A) A   11 (A) A   20 (A) A      0.0054
    -----------------------------------------------------

  Density matrix analysis:
  ------------------------
  NOs
    Occupation of frontier NOs:
       0.9560   1.0553
    Number of electrons: 16.000000
    Number of unpaired electrons: n_u =  2.35842, n_u,nl =  2.06490
    NO participation ratio (PR_NO):  3.045392
  
  
  Mulliken Population Analysis
  Atom      Charge (e)              h+              e-           Del q
  --------------------------------------------------------------------
   1 H        0.154686        0.124828       -0.025167        0.099661
   2 C       -0.310250        0.272704       -0.472887       -0.200183
   3 H        0.155647        0.125126       -0.024426        0.100701
   4 C       -0.310048        0.272463       -0.472685       -0.200222
   5 H        0.155099        0.125326       -0.025264        0.100062
   6 H        0.154866        0.124326       -0.024345        0.099981
  --------------------------------------------------------------------
  Sum:        0.000000        1.044773       -1.044773       -0.000000
  
  Multipole moment analysis of the density matrix
    Molecular charge:                      0.000000
    Number of electrons:                   16.000000
      Center of electronic charge [Ang]: [ -1.561677,  -0.065323,   0.000676]
    Total nuclear charge:                  16.000000
      Center of nuclear charge [Ang]:    [ -1.561697,  -0.065388,   0.000766]
    Dipole moment [D]:                     0.008659
      Cartesian components [D]:          [ -0.001492,  -0.004972,   0.006930]
    RMS size of the density [Ang]:         1.205231
      Cartesian components [Ang]:        [  0.790148,   0.772656,   0.480885]
  
  Exciton analysis of the difference density matrix
    <r_h> [Ang]:                  [ -1.560751,  -0.065178,   0.000973]
    <r_e> [Ang]:                  [ -1.560532,  -0.064278,   0.000224]
    |<r_e - r_h>| [Ang]:            0.001191
    Hole size [Ang]:                1.496148
      Cartesian components [Ang]: [  1.012915,   1.002307,   0.455898]
    Electron size [Ang]:            1.480161
      Cartesian components [Ang]: [  0.884341,   0.862166,   0.815775]

  Transition density matrix analysis:
  -----------------------------------
  
  CT numbers (Mulliken)
    omega =     0.9214
    <Phe> =    -0.0114
  
  Exciton analysis of the transition density matrix
    Trans. dipole moment [D]:             0.002283
      Cartesian components [D]:         [  0.001441,   0.000094,   0.001768]
    <r_h> [Ang]:                        [ -1.560665,  -0.065219,   0.001157]
    <r_e> [Ang]:                        [ -1.560536,  -0.064181,   0.000033]
    |<r_e - r_h>| [Ang]:                  0.001536
    Hole size [Ang]:                      1.527091
      Cartesian components [Ang]:       [  1.037604,   1.027201,   0.447485]
    Electron size [Ang]:                  1.475573
      Cartesian components [Ang]:       [  0.873306,   0.850310,   0.831639]
    RMS electron-hole separation [Ang]:   2.103545
      Cartesian components [Ang]:       [  1.340184,   1.318482,   0.943616]
    Covariance(r_h, r_e) [Ang^2]:         0.042211
    Correlation coefficient:              0.018733
    Center-of-mass size [Ang]:            1.071651
      Cartesian components [Ang]:       [  0.686017,   0.674156,   0.472578]

  Decomposition into state-averaged NTOs
    H- 1 -> L+ 0:  0.6608 ( 87.3%)
    H- 0 -> L+ 2: -0.1513 (  4.6%)
                   omega =  92.1%
  ----------------------------------------------------------------------------


  Excited state 3 (singlet, A)                                     [converged]
  ----------------------------------------------------------------------------
  Term symbol:  4 (1) A                                     R^2 =  2.25045e-13

  Total energy:                                            -77.9841897735 a.u.
  Excitation energy:                                               9.141655 eV

  Osc. strength:                                                      0.023586
  Trans. dip. moment [a.u.]:           [   0.012352,    0.022080,   -0.323526]
  <i|r^2|0> [a.u.]:                    [   0.072000,    0.004997,    0.000951]
  Two-photon absorption cross-section (SoS) [a.u.]:                   0.001369
  Two-photon absorption matrix (SoS) [a.u.]:
                                       |    0.000238   -0.001041    0.004093 |
                                       |   -0.001041    0.003089    0.003595 |
                                       |    0.004093    0.003595    0.012245 |
  Two-photon absorption cross-section [a.u.]:                         0.001575
  Two-photon absorption matrix [a.u.]:
                                       |    0.004890   -0.002691    0.004118 |
                                       |   -0.002691    0.006745    0.003759 |
                                       |    0.004118    0.003759    0.007743 |

  Dip. moment [a.u.]:                  [  -0.007391,   -0.005990,   -0.002393]
  Total dipole [Debye]:                                               0.024934
  <r^2> [a.u.]:                        [ 181.412883,   41.007084,   11.053599]
  Total <r^2> [a.u.]:                                               233.473565

  V1^2 = 0.9580, V2^2 = 0.0420

  Important amplitudes:
      occ i     occ j     vir a      vir b          v   
    -----------------------------------------------------
     8 (A) A             10 (A) A                 0.6887
     8 (A) A             24 (A) A                 0.0508
     8 (A) A             18 (A) A                -0.0332
     4 (A) A              9 (A) A                 0.0247
     8 (A) A   8 (A) B    9 (A) A   12 (A) B     -0.0223
     8 (A) A   8 (A) B   10 (A) A   17 (A) B      0.0172
     5 (A) A   8 (A) B   11 (A) A   10 (A) B     -0.0169
     8 (A) A             15 (A) A                -0.0149
     7 (A) A   8 (A) B   13 (A) A   10 (A) B     -0.0143
     4 (A) A   8 (A) B   12 (A) A   10 (A) B     -0.0113
     6 (A) A   8 (A) A   10 (A) A   15 (A) A     -0.0112
     7 (A) A   8 (A) B   22 (A) A   10 (A) B     -0.0109
     6 (A) A   8 (A) B   15 (A) A   10 (A) B      0.0109
     4 (A) A   8 (A) A   10 (A) A   12 (A) A      0.0108
     7 (A) A   8 (A) A   10 (A) A   22 (A) A      0.0099
     7 (A) A   8 (A) A   10 (A) A   13 (A) A      0.0098
     5 (A) A   8 (A) A   10 (A) A   11 (A) A      0.0097
     5 (A) A   8 (A) B   21 (A) A   10 (A) B      0.0094
     6 (A) A   8 (A) B   10 (A) A   10 (A) B      0.0090
     6 (A) A   8 (A) A   10 (A) A   18 (A) A      0.0086
     7 (A) A   8 (A) A   12 (A) A   16 (A) A     -0.0084
     3 (A) A   4 (A) B   10 (A) A    9 (A) B     -0.0080
     5 (A) A   8 (A) A   10 (A) A   21 (A) A     -0.0079
     4 (A) A   8 (A) B   19 (A) A   10 (A) B      0.0076
     8 (A) A   8 (A) B    9 (A) A   23 (A) B     -0.0075
     8 (A) A   8 (A) B   10 (A) A   28 (A) B     -0.0074
     5 (A) A   8 (A) B   10 (A) A   11 (A) B     -0.0072
     7 (A) A   8 (A) B   16 (A) A   12 (A) B      0.0072
     3 (A) A   8 (A) A   10 (A) A   24 (A) A     -0.0072
     3 (A) A   8 (A) B   10 (A) A   10 (A) B      0.0071
     8 (A) A   8 (A) B    9 (A) A   19 (A) B      0.0070
     3 (A) A   8 (A) B   10 (A) A   18 (A) B     -0.0068
     6 (A) A   8 (A) B   18 (A) A   10 (A) B     -0.0065
     3 (A) A   6 (A) B   10 (A) A   28 (A) B      0.0062
     7 (A) A   8 (A) B   12 (A) A   11 (A) B     -0.0059
     6 (A) A             28 (A) A                -0.0058
     5 (A) A   8 (A) A   10 (A) A   16 (A) A     -0.0057
     3 (A) A   5 (A) B   10 (A) A   25 (A) B     -0.0056
     6 (A) A   8 (A) A   11 (A) A   16 (A) A      0.0055
     4 (A) A   8 (A) A   10 (A) A   23 (A) A      0.0055
    -----------------------------------------------------

  Density matrix analysis:
  ------------------------
  NOs
    Occupation of frontier NOs:
       0.9812   0.9847
    Number of electrons: 16.000000
    Number of unpaired electrons: n_u =  2.28866, n_u,nl =  2.02505
    NO participation ratio (PR_NO):  2.701275
  
  
  Mulliken Population Analysis
  Atom      Charge (e)              h+              e-           Del q
  --------------------------------------------------------------------
   1 H       -0.156167        0.054311       -0.265502       -0.211191
   2 C        0.310098        0.538134       -0.117968        0.420165
   3 H       -0.154195        0.054398       -0.263540       -0.209142
   4 C        0.310212        0.538009       -0.117972        0.420037
   5 H       -0.156017        0.054327       -0.265381       -0.211054
   6 H       -0.153931        0.054379       -0.263194       -0.208816
  --------------------------------------------------------------------
  Sum:        0.000000        1.293557       -1.293557        0.000000
  
  Multipole moment analysis of the density matrix
    Molecular charge:                      0.000000
    Number of electrons:                   16.000000
      Center of electronic charge [Ang]: [ -1.561452,  -0.065190,   0.000845]
    Total nuclear charge:                  16.000000
      Center of nuclear charge [Ang]:    [ -1.561697,  -0.065388,   0.000766]
    Dipole moment [D]:                     0.024934
      Cartesian components [D]:          [ -0.018785,  -0.015226,  -0.006082]
    RMS size of the density [Ang]:         1.282115
      Cartesian components [Ang]:        [  0.858438,   0.844658,   0.439837]
  
  Exciton analysis of the difference density matrix
    <r_h> [Ang]:                  [ -1.561589,  -0.065361,   0.000388]
    <r_e> [Ang]:                  [ -1.558629,  -0.062984,   0.001877]
    |<r_e - r_h>| [Ang]:            0.004078
    Hole size [Ang]:                1.412904
      Cartesian components [Ang]: [  0.836594,   0.822637,   0.787195]
    Electron size [Ang]:            2.079249
      Cartesian components [Ang]: [  1.376727,   1.380600,   0.722385]

  Transition density matrix analysis:
  -----------------------------------
  
  CT numbers (Mulliken)
    omega =     0.9250
    <Phe> =    -0.0109
  
  Exciton analysis of the transition density matrix
    Trans. dipole moment [D]:             0.412416
      Cartesian components [D]:         [  0.015698,   0.028061,  -0.411160]
    <r_h> [Ang]:                        [ -1.561884,  -0.065526,   0.000017]
    <r_e> [Ang]:                        [ -1.557587,  -0.062154,   0.002301]
    |<r_e - r_h>| [Ang]:                  0.005920
    Hole size [Ang]:                      1.212757
      Cartesian components [Ang]:       [  0.636345,   0.623652,   0.822742]
    Electron size [Ang]:                  2.301761
      Cartesian components [Ang]:       [  1.523114,   1.529789,   0.798734]
    RMS electron-hole separation [Ang]:   2.591616
      Cartesian components [Ang]:       [  1.643061,   1.644885,   1.145066]
    Covariance(r_h, r_e) [Ang^2]:         0.026224
    Correlation coefficient:              0.009394
    Center-of-mass size [Ang]:            1.305884
      Cartesian components [Ang]:       [  0.829155,   0.829571,   0.574149]

  Decomposition into state-averaged NTOs
    H- 0 -> L+ 1: -0.6794 ( 92.3%)
                   omega =  92.5%
  ----------------------------------------------------------------------------


  Excited state 4 (singlet, A)                                     [converged]
  ----------------------------------------------------------------------------
  Term symbol:  5 (1) A                                     R^2 =  6.02435e-13

  Total energy:                                            -77.9622655178 a.u.
  Excitation energy:                                               9.738244 eV

  Osc. strength:                                                      0.000001
  Trans. dip. moment [a.u.]:           [  -0.000193,    0.000134,   -0.001470]
  <i|r^2|0> [a.u.]:                    [   0.013176,    0.017224,   -0.031509]
  Two-photon absorption cross-section (SoS) [a.u.]:                 134.684763
  Two-photon absorption matrix (SoS) [a.u.]:
                                       |    0.287566    0.308440   -2.792801 |
                                       |    0.308440    0.330540   -2.941714 |
                                       |   -2.792801   -2.941714   -0.618169 |
  Two-photon absorption cross-section [a.u.]:                        80.047204
  Two-photon absorption matrix [a.u.]:
                                       |    0.235808    0.238452   -2.150759 |
                                       |    0.238452    0.240762   -2.270005 |
                                       |   -2.150759   -2.270005   -0.476591 |

  Dip. moment [a.u.]:                  [   0.008641,    0.009779,   -0.000761]
  Total dipole [Debye]:                                               0.033226
  <r^2> [a.u.]:                        [ 181.607627,   41.021204,   10.783227]
  Total <r^2> [a.u.]:                                               233.412058

  V1^2 = 0.9633, V2^2 = 0.0367

  Important amplitudes:
      occ i     occ j     vir a      vir b          v   
    -----------------------------------------------------
     8 (A) A             11 (A) A                 0.6688
     7 (A) A              9 (A) A                -0.1535
     8 (A) A             21 (A) A                -0.0779
     8 (A) A             16 (A) A                -0.0674
     8 (A) A   8 (A) B    9 (A) A   13 (A) B     -0.0167
     5 (A) A   8 (A) B   11 (A) A   11 (A) B     -0.0157
     7 (A) A             20 (A) A                -0.0140
     8 (A) A   8 (A) B   11 (A) A   17 (A) B      0.0137
     7 (A) A   8 (A) B   13 (A) A   11 (A) B     -0.0127
     4 (A) A   8 (A) B   12 (A) A   11 (A) B     -0.0111
     8 (A) A   8 (A) B    9 (A) A   22 (A) B     -0.0110
     5 (A) A   8 (A) A   11 (A) A   21 (A) A     -0.0109
     7 (A) A   8 (A) A   11 (A) A   22 (A) A      0.0095
     6 (A) A   8 (A) B   10 (A) A   11 (A) B      0.0091
     6 (A) A   8 (A) B   15 (A) A   11 (A) B      0.0089
     7 (A) A   8 (A) B   22 (A) A   11 (A) B     -0.0089
     3 (A) A   4 (A) B   11 (A) A    9 (A) B     -0.0083
     3 (A) A   8 (A) B   11 (A) A   18 (A) B     -0.0080
     6 (A) A   8 (A) A   11 (A) A   15 (A) A     -0.0079
     7 (A) A   8 (A) A   13 (A) A   16 (A) A     -0.0079
     7 (A) A   8 (A) A   11 (A) A   13 (A) A      0.0075
     4 (A) A   8 (A) B   19 (A) A   11 (A) B      0.0070
     5 (A) A   8 (A) B   21 (A) A   11 (A) B      0.0069
     5 (A) A   8 (A) B    9 (A) A    9 (A) B     -0.0069
     4 (A) A   8 (A) A   11 (A) A   12 (A) A      0.0062
     3 (A) A   6 (A) B   11 (A) A   28 (A) B      0.0060
     6 (A) A   8 (A) A   11 (A) A   18 (A) A      0.0059
     6 (A) A   8 (A) B   18 (A) A   11 (A) B     -0.0058
     7 (A) A   8 (A) B   16 (A) A   13 (A) B      0.0057
     3 (A) A   8 (A) B   11 (A) A   30 (A) B     -0.0056
     5 (A) A   8 (A) B   10 (A) A   10 (A) B     -0.0055
     7 (A) A   8 (A) B   12 (A) A   10 (A) B     -0.0055
     8 (A) A   8 (A) B   20 (A) A   22 (A) B     -0.0055
     6 (A) A   8 (A) B   11 (A) A   10 (A) B      0.0055
     3 (A) A   5 (A) B   11 (A) A   25 (A) B     -0.0054
     3 (A) A   8 (A) A   11 (A) A   18 (A) A     -0.0054
     3 (A) A   8 (A) A   11 (A) A   24 (A) A     -0.0053
     5 (A) A   8 (A) A   11 (A) A   16 (A) A     -0.0049
     6 (A) A   8 (A) A   10 (A) A   16 (A) A      0.0047
     8 (A) A   8 (A) B   11 (A) A   28 (A) B     -0.0043
    -----------------------------------------------------

  Density matrix analysis:
  ------------------------
  NOs
    Occupation of frontier NOs:
       0.9387   1.0295
    Number of electrons: 16.000000
    Number of unpaired electrons: n_u =  2.32235, n_u,nl =  2.05106
    NO participation ratio (PR_NO):  2.932722
  
  
  Mulliken Population Analysis
  Atom      Charge (e)              h+              e-           Del q
  --------------------------------------------------------------------
   1 H       -0.123285        0.045976       -0.224286       -0.178310
   2 C        0.250943        0.495287       -0.134277        0.361011
   3 H       -0.127805        0.046049       -0.228800       -0.182751
   4 C        0.251215        0.495226       -0.134186        0.361040
   5 H       -0.124232        0.046015       -0.225284       -0.179269
   6 H       -0.126836        0.046001       -0.227721       -0.181721
  --------------------------------------------------------------------
  Sum:        0.000000        1.174555       -1.174555        0.000000
  
  Multipole moment analysis of the density matrix
    Molecular charge:                      0.000000
    Number of electrons:                   16.000000
      Center of electronic charge [Ang]: [ -1.561982,  -0.065711,   0.000791]
    Total nuclear charge:                  16.000000
      Center of nuclear charge [Ang]:    [ -1.561697,  -0.065388,   0.000766]
    Dipole moment [D]:                     0.033226
      Cartesian components [D]:          [  0.021964,   0.024855,  -0.001935]
    RMS size of the density [Ang]:         1.281023
      Cartesian components [Ang]:        [  0.859458,   0.844764,   0.434425]
  
  Exciton analysis of the difference density matrix
    <r_h> [Ang]:                  [ -1.561929,  -0.065672,   0.000289]
    <r_e> [Ang]:                  [ -1.565892,  -0.070159,   0.001194]
    |<r_e - r_h>| [Ang]:            0.006054
    Hole size [Ang]:                1.394931
      Cartesian components [Ang]: [  0.819500,   0.806389,   0.789930]
    Electron size [Ang]:            2.114332
      Cartesian components [Ang]: [  1.418469,   1.416531,   0.672150]

  Transition density matrix analysis:
  -----------------------------------
  
  CT numbers (Mulliken)
    omega =     0.9293
    <Phe> =    -0.0146
  
  Exciton analysis of the transition density matrix
    Trans. dipole moment [D]:             0.001892
      Cartesian components [D]:         [ -0.000246,   0.000171,  -0.001869]
    <r_h> [Ang]:                        [ -1.561691,  -0.065369,   0.000087]
    <r_e> [Ang]:                        [ -1.566644,  -0.071050,   0.001292]
    |<r_e - r_h>| [Ang]:                  0.007633
    Hole size [Ang]:                      1.229184
      Cartesian components [Ang]:       [  0.661926,   0.649580,   0.806717]
    Electron size [Ang]:                  2.247894
      Cartesian components [Ang]:       [  1.507852,   1.507199,   0.712572]
    RMS electron-hole separation [Ang]:   2.550889
      Cartesian components [Ang]:       [  1.637905,   1.633032,   1.075876]
    Covariance(r_h, r_e) [Ang^2]:         0.028471
    Correlation coefficient:              0.010304
    Center-of-mass size [Ang]:            1.286552
      Cartesian components [Ang]:       [  0.827771,   0.824689,   0.538422]

  Decomposition into state-averaged NTOs
    H- 0 -> L+ 2: -0.6641 ( 88.2%)
    H- 1 -> L+ 0: -0.1514 (  4.6%)
                   omega =  92.9%
  ----------------------------------------------------------------------------


  Excited state 5 (singlet, A)                                     [converged]
  ----------------------------------------------------------------------------
  Term symbol:  6 (1) A                                     R^2 =  1.62895e-12

  Total energy:                                            -77.9468233746 a.u.
  Excitation energy:                                              10.158446 eV

  Osc. strength:                                                      0.000000
  Trans. dip. moment [a.u.]:           [  -0.000601,    0.000535,   -0.000170]
  <i|r^2|0> [a.u.]:                    [   0.078254,   -0.093862,    0.013736]
  Two-photon absorption cross-section (SoS) [a.u.]:                 223.499683
  Two-photon absorption matrix (SoS) [a.u.]:
                                       |    0.385057    0.038644   -3.828109 |
                                       |    0.038644   -0.410497    3.622301 |
                                       |   -3.828109    3.622301    0.059987 |
  Two-photon absorption cross-section [a.u.]:                       115.469337
  Two-photon absorption matrix [a.u.]:
                                       |    0.289667    0.036288   -2.749709 |
                                       |    0.036288   -0.281384    2.605473 |
                                       |   -2.749709    2.605473    0.040567 |

  Dip. moment [a.u.]:                  [  -0.000150,   -0.001012,   -0.000020]
  Total dipole [Debye]:                                               0.002600
  <r^2> [a.u.]:                        [ 180.445977,   39.742629,   11.597255]
  Total <r^2> [a.u.]:                                               231.785862

  V1^2 = 0.9554, V2^2 = 0.0446

  Important amplitudes:
      occ i     occ j     vir a      vir b          v   
    -----------------------------------------------------
     8 (A) A             12 (A) A                 0.5697
     6 (A) A              9 (A) A                -0.3819
     8 (A) A             19 (A) A                -0.0525
     6 (A) A             20 (A) A                -0.0520
     8 (A) A             23 (A) A                 0.0293
     8 (A) A   8 (A) B    9 (A) A   10 (A) B     -0.0205
[...]
    16   -1.384237887479e-03
    17   -1.736896632661e-03
    18    1.491524702216e-04
    19   -2.907976897288e-03
    20    1.138312865072e-02
    21    9.264419247546e-01
    22   -5.145082933735e-04
    23    1.371159135767e-02
    24    8.050123037141e-04
    25    7.032366717328e-02
    26   -5.220273896553e-02
    27   -1.383537741484e+00
    28    9.954657771818e-02
    29   -9.509760037829e-02
    30   -1.722933026213e-03
    31    3.842315406221e-01
    32   -3.660083737080e-01
    33   -6.593819863035e-03
    34    1.506875475739e-02
    35   -1.338889520546e-03
    36   -1.775144126533e-03
    37    7.417128237032e-05
    38   -2.911384192869e-03
    39    1.160856721098e-02
    40    9.286037398456e-01
    41    4.979577544218e-04
    42   -1.372306786548e-02
    43   -8.324117260742e-04
    44    1.139165950389e-02
    45    9.264645843563e-01
    46    1.374848133625e-02
    47    1.808069819124e-04
    48    6.216665043258e-04
Sym=X
Ene= 0.231048
Spin=Alpha
Occup=0
     1   -2.985374545181e-02
     2   -1.164677414432e+00
     3    1.288869096698e-02
     4    3.499260167925e-03
     5    8.132588378025e-04
     6    2.542184577940e-04
     7   -1.720841951780e-04
     8   -5.759879851958e-03
     9    1.542916599961e-01
    10    1.629476666179e-01
    11    1.701755395554e-02
    12    5.291769859481e-01
    13    5.586663794264e-01
    14    5.836305729263e-02
    15    8.027465598699e-05
    16   -1.190615161022e-04
    17    2.410426686965e-05
    18   -1.373308399997e-03
    19   -1.081970013895e-04
    20    2.989690977605e-02
    21    1.171777387083e+00
    22    2.858805304401e-03
    23    1.317750020287e-02
    24    9.263627119533e-04
    25   -4.249086550108e-05
    26    3.620888128046e-05
    27   -2.003307965733e-04
    28    1.545193971978e-01
    29    1.626327417016e-01
    30    1.698391845125e-02
    31    5.308693328280e-01
    32    5.573315355013e-01
    33    5.825679080172e-02
    34    1.283453676056e-05
    35    1.394606985347e-04
    36   -8.221437043504e-06
    37    1.394612679749e-03
    38    6.066002210142e-05
    39   -3.000236283638e-02
    40   -1.168355485075e+00
    41    2.845239763189e-03
    42    1.310367739017e-02
    43    9.239122741058e-04
    44    2.976109451209e-02
    45    1.168734772919e+00
    46    1.296739152790e-02
    47    3.520999339895e-03
    48    8.129623318636e-04
Sym=X
Ene= 0.236440
Spin=Alpha
Occup=0
     1   -1.931286351966e-02
     2   -1.073697490249e+00
     3    1.589102691912e-02
     4    9.227452077542e-03
     5    1.320034692167e-03
     6   -8.710159330422e-02
     7    8.229978754649e-02
     8    1.544534209464e+00
     9    5.917603097183e-02
    10   -5.560782448509e-02
    11   -1.677233377611e-04
    12    2.427532480012e-01
    13   -2.289889400252e-01
    14   -4.817021994088e-04
    15   -2.128164737504e-02
    16    2.531700720864e-03
    17    2.776135156469e-03
    18   -6.253187887850e-04
    19    1.241053534481e-02
    20   -1.930312099467e-02
    21   -1.069980160374e+00
    22   -8.390225423537e-03
    23   -1.630666742871e-02
    24   -1.349987101634e-03
    25    8.714362976015e-02
    26   -8.234984774166e-02
    27   -1.545557470055e+00
    28    5.911103040094e-02
    29   -5.568803229336e-02
    30   -1.302342225850e-03
    31    2.432656263955e-01
    32   -2.286474101495e-01
    33   -4.988596655358e-03
    34    2.129933731977e-02
    35   -2.431609308137e-03
    36   -2.873024061366e-03
    37    5.843581852093e-04
    38   -1.242277577541e-02
    39    1.922474077556e-02
    40    1.069721782474e+00
    41   -8.395567734671e-03
    42   -1.628510294067e-02
    43   -1.421150117782e-03
    44    1.934864990909e-02
    45    1.075272043545e+00
    46    1.594372949090e-02
    47    9.219784549372e-03
    48    1.248675887261e-03
Sym=X
Ene= 0.302963
Spin=Alpha
Occup=0
     1   -2.104792833161e-02
     2    1.657705250366e+00
     3   -2.350822658060e-02
     4    3.962718398293e-04
     5   -1.136959851641e-03
     6    1.265722067445e-05
     7    3.139327116044e-06
     8   -4.893792421427e-04
     9   -1.356454542254e-01
    10   -1.426690349498e-01
    11   -1.492259424594e-02
    12   -1.124437474062e+00
    13   -1.183716381249e+00
    14   -1.237234554800e-01
    15    1.928403503242e-05
    16   -1.782445806846e-03
    17    1.877252387303e-03
    18   -3.406886985759e-02
    19   -1.759571378672e-03
    20    2.102943091258e-02
    21   -1.657553110742e+00
    22    1.611916688331e-03
    23   -2.344337353724e-02
    24   -1.272801129736e-03
    25   -9.766506475525e-06
    26    1.744351457518e-05
    27   -1.457258484241e-03
    28    1.356107159123e-01
    29    1.426781739978e-01
    30    1.490648122355e-02
    31    1.125330848952e+00
    32    1.183321351518e+00
    33    1.236929057936e-01
    34    7.607003544278e-05
    35   -1.615026902955e-03
    36    2.054110386993e-03
    37   -3.409070983866e-02
    38   -1.801691920662e-03
    39    2.097667049888e-02
    40   -1.657055731559e+00
    41   -1.617083569882e-03
    42    2.344191823628e-02
    43    1.324784190912e-03
    44   -2.122237606397e-02
    45    1.659020005391e+00
    46    2.351644297381e-02
    47   -3.846388768105e-04
    48    1.083599936497e-03
Sym=X
Ene= 0.462774
Spin=Alpha
Occup=0
     1   -1.140933600334e-01
     2   -6.987997898951e-01
     3   -1.494076268589e-02
     4   -1.033126893350e-02
     5   -1.321856240087e-03
     6    6.252239626322e-02
     7    1.655102083919e-02
     8   -3.641239020775e+00
     9    1.044418312699e-01
    10   -9.910968117403e-02
    11   -1.069309262280e-03
    12    2.433526655500e+00
    13   -2.310448125012e+00
    14   -1.563349416562e-02
    15    5.295908660815e-02
    16   -3.242509531063e-03
    17   -4.445093891427e-03
    18   -1.056541991506e-03
    19    2.014775450369e-02
    20   -1.144884508329e-01
    21   -6.988463750641e-01
    22    9.501897799254e-03
    23    1.547813638999e-02
    24    1.373285639752e-03
    25   -6.250747289756e-02
    26   -1.661802074253e-02
    27    3.640878489745e+00
    28    1.043000927028e-01
    29   -9.902284724877e-02
    30   -1.699855143725e-03
    31    2.434817069187e+00
    32   -2.309685041935e+00
    33   -1.830038406788e-02
    34   -5.299762105931e-02
    35    3.301938334258e-03
    36    4.393515235666e-03
    37    1.025195855053e-03
    38   -2.008902512562e-02
    39    1.149228360729e-01
    40    6.968982267353e-01
    41    9.495585336900e-03
    42    1.548891821342e-02
    43    1.345361116148e-03
    44    1.141123531058e-01
    45    7.006360607981e-01
    46   -1.495275288927e-02
    47   -1.035892261693e-02
    48   -1.349086412474e-03
Sym=X
Ene= 0.579808
Spin=Alpha
Occup=0
     1   -2.373830001031e-01
     2   -4.864195543141e-02
     3    2.214170918895e-02
     4   -2.700210030272e-02
     5   -5.203813686330e-04
     6    6.290485493704e-03
     7    1.690295927560e-01
     8    4.155446409956e-01
     9   -3.054593229146e-01
    10    2.901990032628e-01
    11    2.204104852214e-03
    12    7.491893099488e-01
    13   -7.119089547657e-01
    14   -6.277090912623e-03
    15    1.995180736791e-03
    16   -3.557940114375e-03
    17   -3.277859928783e-03
    18    3.245573966067e-03
    19   -5.978761037226e-02
    20   -2.380714647364e-01
    21   -4.793619488477e-02
    22    2.810548960651e-02
    23   -2.061957321552e-02
    24    1.419875271007e-04
    25    6.219742928557e-03
    26    1.689781452663e-01
    27    4.188537099604e-01
    28    3.055403553060e-01
    29   -2.903443470446e-01
    30   -2.108984364582e-03
    31   -7.476256602645e-01
    32    7.093426790298e-01
    33    6.811020158913e-03
    34    1.990197769334e-03
    35   -3.556814414332e-03
    36   -3.277354856815e-03
    37    3.175597928247e-03
    38   -5.979089453681e-02
    39   -2.379062527250e-01
    40   -4.644616193553e-02
    41   -2.811911552419e-02
    42    2.066359928927e-02
    43   -7.893507472585e-05
    44   -2.377341884966e-01
    45   -4.851558574908e-02
    46   -2.202935923093e-02
    47    2.690663184188e-02
    48    5.809324732664e-04
Sym=X
Ene= 0.608870
Spin=Alpha
Occup=0
     1    5.201251143453e-01
     2   -2.454000038406e-01
     3    5.958127846267e-02
     4   -3.699708063616e-02
     5    7.110137523607e-04
     6    2.486404373166e-05
     7   -1.455421107157e-04
     8    2.831001255631e-03
     9    3.574442655503e-02
    10    3.735914508036e-02
    11    3.913300036116e-03
    12   -2.630291871378e-01
    13   -2.727734931244e-01
    14   -2.872787344128e-02
    15   -2.719747233366e-04
    16    7.682658704623e-03
    17   -8.285547348315e-03
    18    1.486523370615e-01
    19    7.657937959350e-03
    20   -5.188559254341e-01
    21    2.457600700327e-01
    22   -4.010990605101e-02
    23    5.748025034820e-02
    24    1.428323728837e-03
    25   -3.220111312185e-05
    26   -3.336074871879e-04
    27   -1.042497732589e-03
    28    3.580078342512e-02
    29    3.742545285733e-02
    30    3.927633222138e-03
    31   -2.636575084743e-01
    32   -2.728276951164e-01
    33   -2.869347988570e-02
    34    1.780089832590e-04
    35   -7.202173218651e-03
    36    8.778045096564e-03
    37   -1.485542656817e-01
    38   -7.518116501814e-03
    39    5.193379605373e-01
    40   -2.462388994899e-01
    41   -4.011571814808e-02
    42    5.749093663585e-02
    43    1.583024323188e-03
    44   -5.191626880773e-01
    45    2.433424836590e-01
    46    5.953464974885e-02
    47   -3.701186177700e-02
    48    5.574411718932e-04
Sym=X
Ene= 0.688653
Spin=Alpha
Occup=0
     1    1.713752864938e-03
     2    5.161124382537e-04
     3    1.103943368489e-03
     4    1.300012556299e-03
     5   -1.874655732347e-02
     6    1.091622957975e-04
     7    7.653237363001e-04
     8    6.843359938978e-04
     9    3.179434866813e-02
    10    3.991156642251e-02
    11   -6.706950018577e-01
    12   -3.165846360467e-02
    13   -3.398737818778e-02
    14    6.127134629248e-01
    15   -1.418551720427e-03
    16    8.267941738774e-02
    17   -7.829528891187e-02
    18   -8.598753740292e-03
    19   -6.802280551991e-04
    20    1.708386575227e-03
    21    5.452715651732e-04
    22    7.230872413320e-04
    23    8.978335754253e-04
    24   -1.882559263865e-02
    25    3.918547929551e-05
    26    1.584874348266e-03
    27   -2.422215193206e-03
    28    3.238494599300e-02
    29    3.929671195570e-02
    30   -6.706894159662e-01
    31   -3.201949226176e-02
    32   -3.358084107571e-02
    33    6.127406019839e-01
    34    5.344615385331e-04
    35   -8.259686340943e-02
    36    7.839692402164e-02
    37    8.592621330333e-03
    38    1.010539676383e-03
    39    3.443990772982e-04
    40   -1.966285429532e-03
    41    8.744016199861e-04
    42    1.497397569781e-03
    43   -1.869506210628e-02
    44    3.494035928313e-04
    45   -1.994450071348e-03
    46    5.079986599302e-04
    47    1.112822366676e-03
    48   -1.892141993283e-02
Sym=X
Ene= 0.704765
Spin=Alpha
Occup=0
     1   -4.878169883122e-01
     2    1.644799932232e-01
     3   -7.814665905572e-02
     4   -4.441450468516e-02
     5   -6.524539799782e-03
     6   -4.596672828275e-02
     7   -3.011763884019e-01
     8    4.626168917429e-01
     9    1.962083640292e-01
    10   -1.856883908198e-01
    11   -3.140502828159e-03
    12   -5.801253564063e-02
    13    5.354185502927e-02
    14    4.511325018670e-04
    15    1.912908656137e-01
    16   -2.036975976843e-02
    17   -2.354608788951e-02
    18    3.813478849420e-03
    19   -7.661274316229e-02
    20   -4.884876314143e-01
    21    1.634203048657e-01
    22    4.029623622679e-02
    23    8.028747819312e-02
    24    6.509940324050e-03
    25   -4.594211974950e-02
    26   -3.014385142767e-01
    27    4.645033952666e-01
    28   -1.955804307104e-01
    29    1.864883459548e-01
    30    2.297845499339e-05
    31    5.711246726448e-02
    32   -5.627994626088e-02
    33    2.923543017547e-03
    34    1.911267034741e-01
    35   -2.040266487957e-02
    36   -2.347147586819e-02
    37    3.753858036264e-03
    38   -7.668394850564e-02
    39   -4.878053654503e-01
    40    1.648977716070e-01
    41   -4.039423935421e-02
    42   -8.017751755071e-02
    43   -6.617941838453e-03
    44   -4.876252259469e-01
    45    1.624481024442e-01
    46    7.812479453157e-02
    47    4.431689877786e-02
    48    6.399585156405e-03
Sym=X
Ene= 0.775740
Spin=Alpha
Occup=0
     1    5.386532335233e-01
     2   -4.809841465114e-01
     3    1.076452308046e-01
     4    2.644307135302e-02
     5    6.752224282413e-03
     6    8.891349709412e-02
     7   -2.269967986281e-01
     8   -5.664763995972e-01
     9    1.035067660419e-01
    10   -9.852468072365e-02
    11    9.252175361421e-04
    12    2.948365986397e-01
    13   -2.785274104331e-01
    14   -5.111715041895e-03
    15   -2.031923067690e-01
    16    1.749969625220e-02
    17    2.118931059368e-02
    18   -3.889320166942e-04
    19    7.631666046225e-03
    20    5.386573953389e-01
    21   -4.804826693664e-01
    22   -2.092224407636e-02
    23   -1.088992233528e-01
    24   -7.397043355868e-03
    25   -8.895995461131e-02
    26    2.263825047457e-01
    27    5.671102250867e-01
    28    1.042970931018e-01
    29   -9.728827895620e-02
    30   -1.629448694926e-03
    31    2.924429575725e-01
    32   -2.815845249449e-01
    33    5.507640391978e-04
    34    2.033835053595e-01
    35   -1.702081627132e-02
    36   -2.165593577237e-02
    37    4.357243010188e-04
    38   -7.728509696411e-03
    39   -5.395391112612e-01
    40    4.830627343644e-01
    41   -2.095550712706e-02
    42   -1.091357699436e-01
    43   -7.441582572884e-03
    44   -5.381192947102e-01
    45    4.782963282163e-01
    46    1.075923856886e-01
    47    2.643836727281e-02
    48    6.709640847911e-03
Sym=X
Ene= 0.807406
Spin=Alpha
Occup=0
     1   -8.550247849943e-04
     2    9.462653132729e-04
     3   -1.695775509654e-03
     4   -1.811812024237e-03
     5    3.136667547241e-02
     6   -1.946400150066e-04
     7    1.009268982298e-03
     8   -5.329523463820e-04
     9   -3.752581535106e-02
    10   -4.427387719302e-02
    11    7.643197824660e-01
    12    5.426776753830e-02
    13    6.603504902656e-02
    14   -1.124453262883e+00
    15   -2.637593916434e-04
    16    6.537206412144e-02
    17   -6.206008825449e-02
    18   -6.798094827741e-03
    19   -5.820738246819e-04
    20   -8.562775317053e-04
    21    1.021018070341e-03
    22   -1.550308517114e-03
    23   -1.656905681184e-03
    24    3.145794828495e-02
    25    1.243213309811e-04
    26    3.398026865060e-04
    27   -1.495289453450e-04
    28    3.609756194666e-02
    29    4.552497464494e-02
    30   -7.643060231132e-01
    31   -5.436670123447e-02
    32   -6.576824199919e-02
    33    1.124483742555e+00
    34   -1.350484117312e-03
    35    6.543914607954e-02
    36   -6.196918005020e-02
    37   -6.800247151878e-03
    38   -9.352365373109e-04
    39    7.918464432207e-04
    40   -1.402974679899e-03
    41    1.343792419932e-03
    42    2.361090964989e-03
    43   -3.136520323574e-02
    44    7.877849854622e-04
    45   -1.313129297180e-03
    46    1.001792104011e-03
    47    1.998537284051e-03
    48   -3.152824513238e-02
Sym=X
Ene= 0.858424
Spin=Alpha
Occup=0
     1    1.462539823422e-02
     2   -1.076022108766e+00
     3    1.464540498433e-01
     4    5.607410591966e-02
     5    1.024448539818e-02
     6    6.257300438420e-05
     7   -1.047746897454e-03
     8    1.217516707361e-03
     9   -4.114956406612e-01
    10   -4.337547516881e-01
    11   -4.534465813773e-02
    12    9.368937206724e-01
    13    9.870990261827e-01
    14    1.032053978852e-01
    15   -2.891599253444e-04
    16    1.163308995310e-02
    17   -1.313505442010e-02
    18    2.304568610963e-01
    19    1.168164845435e-02
    20   -1.417042475882e-02
    21    1.075921857088e+00
    22    4.852064754388e-02
    23    1.489322632963e-01
    24    1.119527615816e-02
    25   -1.475472039545e-04
    26   -7.190487600194e-04
    27    1.132372657592e-04
    28   -4.109505001733e-01
    29   -4.334175802390e-01
    30   -4.521443051774e-02
    31    9.361739470808e-01
    32    9.863589735396e-01
    33    1.029484905632e-01
    34    7.300747006336e-04
    35   -1.158082325281e-02
    36    1.317173291227e-02
    37   -2.303511333103e-01
    38   -1.167361252971e-02
    39    1.374991142273e-02
    40   -1.075520605808e+00
    41    4.863771745268e-02
    42    1.487556231858e-01
    43    1.136034050550e-02
    44   -1.465782650948e-02
    45    1.075409760030e+00
    46    1.463621337471e-01
    47    5.607168320788e-02
    48    1.005982521333e-02
Sym=X
Ene= 0.928008
Spin=Alpha
Occup=0
     1    1.414403343552e-01
     2   -1.231712384280e+00
     3    1.825520064743e-01
     4   -5.621561747502e-03
     5    8.655748883602e-03
     6   -1.343824842388e-04
     7    9.868715259659e-04
     8   -3.775268537883e-03
     9   -4.749093209181e-01
    10   -4.974793379506e-01
    11   -5.211149694444e-02
    12    1.385351460047e+00
    13    1.451508185762e+00
    14    1.520350640304e-01
    15    3.284936161687e-04
    16    6.716256252674e-03
    17   -6.774362041701e-03
    18    1.254727945888e-01
    19    6.990184803853e-03
    20   -1.419860106324e-01
    21    1.229650370031e+00
    22   -1.526469913857e-02
    23    1.820789397541e-01
    24    9.776351661004e-03
    25    2.016535065451e-04
    26    1.968860692986e-03
    27   -3.806146721848e-04
    28    4.724287256220e-01
    29    5.003830115384e-01
    30    5.214136177992e-02
    31   -1.379194332872e+00
    32   -1.459158992766e+00
    33   -1.521242749476e-01
    34   -6.888857438084e-04
    35    6.126718559341e-03
    36   -7.378848677894e-03
    37    1.258314337587e-01
    38    5.503165804833e-03
    39   -1.415860084254e-01
    40    1.234175191545e+00
    41    1.473025658935e-02
    42   -1.823993722264e-01
    43   -1.013934203645e-02
    44    1.418864235722e-01
    45   -1.229360503070e+00
    46   -1.825661869629e-01
    47    6.041168962970e-03
    48   -8.300111359333e-03
Sym=X
Ene= 0.970585
Spin=Alpha
Occup=0
     1   -5.995056105762e-02
     2    8.937915601023e-01
     3   -8.720833331727e-02
     4   -9.662574316332e-02
     5   -9.817673299728e-03
     6    2.707289916307e-02
     7    2.531639166610e-01
     8    5.134744052855e-01
     9    4.821691094948e-01
    10   -4.599260396365e-01
    11   -3.313095807739e-03
    12   -1.471056656164e+00
    13    1.404989115695e+00
    14    1.006167347561e-02
    15   -5.790411193000e-02
    16   -1.160413033156e-02
    17   -9.623401751461e-03
    18    1.547899701660e-02
    19   -2.963701184098e-01
    20   -5.962863219674e-02
    21    9.000170999399e-01
    22    9.205326208242e-02
    23    9.280070927705e-02
    24    9.944494823304e-03
    25   -2.706370205388e-02
    26   -2.525887285841e-01
    27   -5.144466280556e-01
    28    4.845914207163e-01
    29   -4.570809062124e-01
    30   -4.573189339914e-03
    31   -1.480441124717e+00
    32    1.394246326605e+00
    33    1.324459508179e-02
    34    5.789035746795e-02
    35    1.155682743015e-02
    36    9.671774986949e-03
    37   -1.462186016645e-02
    38    2.964165451923e-01
    39    5.956729385536e-02
    40   -8.913165955726e-01
    41    9.207925506688e-02
    42    9.161250450440e-02
    43    1.019487198206e-02
    44    5.985518207905e-02
    45   -9.017124295950e-01
    46   -8.823418959149e-02
    47   -9.664807748565e-02
    48   -9.548785373994e-03
[5D]

======= END OF MOLDEN-FORMATTED INPUT FILE =======


        *************************************************************
        *                                                           *
        *  Thank you very much for using Q-Chem.  Have a nice day.  *
        *                                                           *
        *************************************************************


