                  Welcome to Q-Chem
     A Quantum Leap Into The Future Of Chemistry


 Q-Chem 5.4 (devel), Q-Chem, Inc., Pleasanton, CA (2021)

 E. Epifanovsky,  A. T. B. Gilbert,  Xintian Feng,  Joonho Lee,  Yuezhi Mao,  
 N. Mardirossian,  P. Pokhilko,  A. White,  M. Wormit,  M. P. Coons,  
 A. L. Dempwolff,  Zhengting Gan,  D. Hait,  P. R. Horn,  L. D. Jacobson,  
 I. Kaliman,  J. Kussmann,  A. W. Lange,  Ka Un Lao,  D. S. Levine,  Jie Liu,  
 S. C. McKenzie,  A. F. Morrison,  K. Nanda,  F. Plasser,  D. R. Rehn,  
 M. L. Vidal,  Zhi-Qiang You,  Ying Zhu,  B. Alam,  B. Albrecht,  
 A. Aldossary,  E. Alguire,  J. H. Andersen,  D. Barton,  K. Begam,  A. Behn,  
 Y. A. Bernard,  E. J. Berquist,  H. Burton,  A. Carreras,  K. Carter-Fenk,  
 R. Chakraborty,  A. D. Chien,  K. D. Closser,  V. Cofer-Shabica,  
 S. Dasgupta,  Jia Deng,  M. de Wergifosse,  M. Diedenhofen,  Hainam Do,  
 S. Ehlert,  Po-Tung Fang,  S. Fatehi,  Qingguo Feng,  T. Friedhoff,  
 J. Gayvert,  Qinghui Ge,  G. Gidofalvi,  M. Goldey,  J. Gomes,  
 C. Gonzalez-Espinoza,  S. Gulania,  A. Gunina,  M. W. D. Hanson-Heine,  
 P. H. P. Harbach,  A. W. Hauser,  M. F. Herbst,  M. Hernandez Vera,  
 M. Hodecker,  Z. C. Holden,  S. Houck,  Xunkun Huang,  Kerwin Hui,  
 B. C. Huynh,  M. Ivanov,  Hyunjun Ji,  Hanjie Jiang,  B. Kaduk,  S. Kaehler,  
 K. Khistyaev,  Jaehoon Kim,  P. Klunzinger,  Z. Koczor-Benda,  
 Joong Hoon Koh,  D. Kosenkov,  L. Koulias,  T. Kowalczyk,  C. M. Krauter,  
 K. Kue,  A. Kunitsa,  T. Kus,  A. Landau,  K. V. Lawler,  D. Lefrancois,  
 S. Lehtola,  Rain Li,  Yi-Pei Li,  Jiashu Liang,  M. Liebenthal,  
 Hung-Hsuan Lin,  You-Sheng Lin,  Fenglai Liu,  Kuan-Yu Liu,  
 M. Loipersberger,  A. Luenser,  A. Manjanath,  P. Manohar,  E. Mansoor,  
 S. F. Manzer,  Shan-Ping Mao,  A. V. Marenich,  T. Markovich,  S. Mason,  
 S. A. Maurer,  P. F. McLaughlin,  M. F. S. J. Menger,  J.-M. Mewes,  
 S. A. Mewes,  P. Morgante,  J. W. Mullinax,  K. J. Oosterbaan,  G. Paran,  
 Alexander C. Paul,  Suranjan K. Paul,  F. Pavosevic,  Zheng Pei,  S. Prager,  
 E. I. Proynov,  E. Ramos,  B. Rana,  A. E. Rask,  A. Rettig,  R. M. Richard,  
 F. Rob,  E. Rossomme,  T. Scheele,  M. Scheurer,  M. Schneider,  
 N. Sergueev,  S. M. Sharada,  W. Skomorowski,  D. W. Small,  C. J. Stein,  
 Yu-Chuan Su,  E. J. Sundstrom,  Zhen Tao,  J. Thirman,  T. Tsuchimochi,  
 N. M. Tubman,  S. P. Veccham,  O. Vydrov,  J. Wenzel,  J. Witte,  A. Yamada,  
 Kun Yao,  S. Yeganeh,  S. R. Yost,  A. Zech,  Igor Ying Zhang,  Xing Zhang,  
 Yu Zhang,  D. Zuev,  A. Aspuru-Guzik,  A. T. Bell,  N. A. Besley,  
 K. B. Bravaya,  B. R. Brooks,  D. Casanova,  Jeng-Da Chai,  S. Coriani,  
 C. J. Cramer,  A. E. DePrince, III,  R. A. DiStasio Jr.,  A. Dreuw,  
 B. D. Dunietz,  T. R. Furlani,  W. A. Goddard III,  S. Grimme,  
 S. Hammes-Schiffer,  T. Head-Gordon,  W. J. Hehre,  Chao-Ping Hsu,  
 T.-C. Jagau,  Yousung Jung,  A. Klamt,  Jing Kong,  D. S. Lambrecht,  
 WanZhen Liang,  N. J. Mayhall,  C. W. McCurdy,  J. B. Neaton,  
 C. Ochsenfeld,  J. A. Parkhill,  R. Peverati,  V. A. Rassolov,  Yihan Shao,  
 L. V. Slipchenko,  T. Stauch,  R. P. Steele,  J. E. Subotnik,  
 A. J. W. Thom,  A. Tkatchenko,  D. G. Truhlar,  T. Van Voorhis,  
 T. A. Wesolowski,  K. B. Whaley,  H. L. Woodcock III,  P. M. Zimmerman,  
 S. Faraji,  P. M. W. Gill,  M. Head-Gordon,  J. M. Herbert,  A. I. Krylov

 Additional authors for Version 5.4.1: 
 S. Kotaru,  Shaozhi Li,  Xiangyuan Li,  F. Matz,  A. Molle,  Haisheng Ren,  
 Yingli Su,  Hung-Yi Tsai,  C. Utku,  Fang Wang

 Contributors to earlier versions of Q-Chem not listed above: 
 R. D. Adamson,  B. Austin,  R. Baer,  J. Baker,  G. J. O. Beran,  
 K. Brandhorst,  S. T. Brown,  E. F. C. Byrd,  A. K. Chakraborty,  
 G. K. L. Chan,  Chun-Min Chang,  Yunqing Chen,  C.-L. Cheng,  
 Siu Hung Chien,  D. M. Chipman,  D. L. Crittenden,  H. Dachsel,  
 R. J. Doerksen,  A. D. Dutoi,  R. G. Edgar,  J. Fosso-Tande,  
 L. Fusti-Molnar,  D. Ghosh,  A. Ghysels,  A. Golubeva-Zadorozhnaya,  
 J. Gonthier,  M. S. Gordon,  S. R. Gwaltney,  G. Hawkins,  J. E. Herr,  
 A. Heyden,  S. Hirata,  E. G. Hohenstein,  G. Kedziora,  F. J. Keil,  
 C. Kelley,  Jihan Kim,  R. A. King,  R. Z. Khaliullin,  P. P. Korambath,  
 W. Kurlancheek,  A. Laurent,  A. M. Lee,  M. S. Lee,  S. V. Levchenko,  
 Ching Yeh Lin,  D. Liotard,  E. Livshits,  R. C. Lochan,  I. Lotan,  
 L. A. Martinez-Martinez,  P. E. Maslen,  N. Nair,  D. P. O'Neill,  
 D. Neuhauser,  E. Neuscamman,  C. M. Oana,  R. Olivares-Amaya,  R. Olson,  
 T. M. Perrine,  B. Peters,  P. A. Pieniazek,  A. Prociuk,  Y. M. Rhee,  
 J. Ritchie,  M. A. Rohrdanz,  E. Rosta,  N. J. Russ,  H. F. Schaefer III,  
 M. W. Schmidt,  N. E. Schultz,  S. Sharma,  N. Shenvi,  C. D. Sherrill,  
 A. C. Simmonett,  A. Sodt,  T. Stein,  D. Stuck,  K. S. Thanthiriwatte,  
 V. Vanovschi,  L. Vogt,  Tao Wang,  A. Warshel,  M. A. Watson,  
 C. F. Williams,  Q. Wu,  X. Xu,  Jun Yang,  W. Zhang,  Yan Zhao

 Please cite Q-Chem as follows:
 Y. Shao et al., Mol. Phys. 113, 184-215 (2015)
 DOI: 10.1080/00268976.2014.952696

 Q-Chem 5.4.1 for Intel X86 EM64T Linux

 Parts of Q-Chem use Armadillo 9.800.1 (Horizon Scraper).
 http://arma.sourceforge.net/

 Q-Chem begins on Tue Mar 21 11:48:13 2023  

 Host: cpu186.baobab
0

     Scratch files written to /scratch/fum/qchem65283//
 Processing $rem in /home/share/wesolowski/qc5.aug2021.FDE/config/preferences:
 Processing $rem in /home/fum/.qchemrc:

 Checking the input file for inconsistencies... 	...done.

--------------------------------------------------------------
User input:
--------------------------------------------------------------
$comment
generated from CCJob.Templates
$end

$rem
sym_ignore = true
method = adc(2)
ee_states = 10
basis = cc-pVDZ
mem_static = 1024
mem_total = 40000
adc_davidson_maxiter = 900
adc_davidson_conv = 6
adc_print = 3
adc_prop_es = true
adc_prop_es2es = true
adc_prop_tpa = true
molden_format = True
state_analysis = true
print_orbitals = 15
gen_scfman = false
fde_export_density = true
fde_details = 3
$end

$molecule
0 1
H -0.023381299504208603 -0.24743842587588666 0.06501110130604734
C -1.0772857388326673 -0.5237624233342771 -0.0022934924036307866
H -1.3015692486808377 -1.5948913841034176 -0.07782520249324977
C -2.0453860207672943 0.39318569043431867 0.0065403919036328756
H -1.8211405919191823 1.464329565203302 0.08205207199324328
H -3.099298015195903 0.11687420337585909 -0.06068560800604818                     
$end
--------------------------------------------------------------
 ----------------------------------------------------------------
             Standard Nuclear Orientation (Angstroms)
    I     Atom           X                Y                Z
 ----------------------------------------------------------------
    1      H      -0.0233812995    -0.2474384259     0.0650111013
    2      C      -1.0772857388    -0.5237624233    -0.0022934924
    3      H      -1.3015692487    -1.5948913841    -0.0778252025
    4      C      -2.0453860208     0.3931856904     0.0065403919
    5      H      -1.8211405919     1.4643295652     0.0820520720
    6      H      -3.0992980152     0.1168742034    -0.0606856080
 ----------------------------------------------------------------
 Nuclear Repulsion Energy =          33.21002515 hartrees
 There are        8 alpha and        8 beta electrons
 Requested basis set is cc-pVDZ
 There are 24 shells and 48 basis functions
 Total memory of 40000 MB is distributed as follows: 
   MEM_STATIC is set to 1024 MB
   QALLOC/CCMAN JOB total memory use is  38976 MB
 Warning: actual memory use might exceed 40000 MB

 Total QAlloc Memory Limit  40000 MB
 Mega-Array Size      1001 MB
 MEM_STATIC part      1024 MB

                       Distance Matrix (Angstroms)
             H (  1)   C (  2)   H (  3)   C (  4)   H (  5)
   C (  2)  1.091604
   H (  3)  1.862739  1.096962
   C (  4)  2.121867  1.333450  2.124343
   H (  5)  2.482414  2.124369  3.107145  1.096967
   H (  6)  3.099966  2.121876  2.482391  1.091603  1.862712

 A cutoff of  1.0D-11 yielded    300 shell pairs
 There are      1220 function pairs (      1329 Cartesian)
 Smallest overlap matrix eigenvalue = 4.81E-03

 Scale SEOQF with 1.000000e-01/1.000000e-01/1.000000e+00

 Standard Electronic Orientation quadrupole field applied
 Nucleus-field energy     =     0.0000000022 hartrees
 Guess from superposition of atomic densities
 Warning:  Energy on first SCF cycle will be non-variational
 SAD guess density has 16.000000 electrons
 A restricted Hartree-Fock SCF calculation will be
 performed using Pulay DIIS extrapolation
 SCF converges when DIIS error is below 1.0E-08
 using 10 threads for integral computing
 -------------------------------------------------------
 OpenMP Integral computing Module                
 Release: version 1.0, May 2013, Q-Chem Inc. Pittsburgh 
 -------------------------------------------------------
 ---------------------------------------
  Cycle       Energy         DIIS Error
 ---------------------------------------
    1     -78.3977854270      9.93E-02
    2     -78.0175708531      7.13E-03
    3     -78.0380374091      1.83E-03
    4     -78.0395135965      5.64E-04
    5     -78.0396312177      5.81E-05
    6     -78.0396330814      9.29E-06
    7     -78.0396331427      1.95E-06
    8     -78.0396331455      1.67E-07
    9     -78.0396331455      1.73E-08
   10     -78.0396331455      3.81E-09 Convergence criterion met
 ---------------------------------------
 SCF time:  CPU 1.95 s  wall 2.43 s
 SCF   energy in the final basis set = -78.03963315
 Total energy in the final basis set = -78.03963315
Exporting Density Matrix to file 'Densmat_SCF.txt'.
Export successful
================================================================================
|                                                                              |
|                                 A D C  M A N                                 |
|                                                                              |
 ------------------------------------------------------------------------------ 
|                                                                              |
| Components:                                                                  |
|                                                                              |
| - libvmm - 1.3-trunk                                                         |
|   Authors:                                                                   |
|   Evgeny Epifanovsky, Ilya Kaliman                                           |
|                                                                              |
| - libtensor - 2.5-trunk                                                      |
|   Authors:                                                                   |
|   Evgeny Epifanovsky, Michael Wormit, Dmitry Zuev, Sam Manzer,               |
|   Ilya Kaliman                                                               |
|                                                                              |
| - libwfa - 1.1-trunk                                                         |
|   Authors:                                                                   |
|   Felix Plasser, Stefanie Mewes (Baeppler), Benjamin Thomitzni,              |
|   Michael Wormit, Feng Chen, Anna I. Krylov, Pavel Pokhilko                  |
|                                                                              |
| - libadc - 1.1-trunk                                                         |
|   Authors:                                                                   |
|   Michael Wormit, Adrian L. Dempwolff, Philipp H. P. Harbach,                |
|   Caroline Krauter, Dirk Rehn, Matthias Schneider, Jan Wenzel                |
|                                                                              |
| - adcman - 2.6-trunk                                                         |
|   Authors:                                                                   |
|   Michael Wormit, Adrian L. Dempwolff, Philipp H. P. Harbach,                |
|   Caroline Krauter, Daniel Lefrancois, Jan-Michael Mewes, Dirk Rehn,         |
|   Matthias Schneider, Jan Wenzel, Andreas Dreuw                              |
|                                                                              |
| Authors of earlier versions of ADCMAN:                                       |
| Andreas Dreuw, Jan Hendrik Starcke, Dirk Rehn, Michael Wormit                |
|                                                                              |
================================================================================

 Created directory /scratch/fum/qchem65283/plots
  Import QC data ...  CPU 0.00 s  wall 0.00 s

 Alpha MOs, Restricted
 -- Occupied --                  
-11.239 -11.237  -1.030  -0.786  -0.635  -0.582  -0.500  -0.374
  1 A     2 A     3 A     4 A     5 A     6 A     7 A     8 A                  
 -- Virtual --                   
  0.168   0.203   0.231   0.236   0.303   0.463   0.580   0.609
  9 A    10 A    11 A    12 A    13 A    14 A    15 A    16 A                  
  0.689   0.705   0.776   0.807   0.858   0.928   0.971   1.006
 17 A    18 A    19 A    20 A    21 A    22 A    23 A    24 A                  
  1.130   1.237   1.241   1.263   1.291   1.593   1.728   1.744
 25 A    26 A    27 A    28 A    29 A    30 A    31 A    32 A                  
  1.811   1.852   1.854   1.901   1.963   1.972   2.224   2.248
 33 A    34 A    35 A    36 A    37 A    38 A    39 A    40 A                  
  2.356   2.423   2.493   2.623   2.679   2.795   3.099   3.369
 41 A    42 A    43 A    44 A    45 A    46 A    47 A    48 A                  

 Beta MOs, Restricted
 -- Occupied --                  
-11.239 -11.237  -1.030  -0.786  -0.635  -0.582  -0.500  -0.374
  1 A     2 A     3 A     4 A     5 A     6 A     7 A     8 A                  
 -- Virtual --                   
  0.168   0.203   0.231   0.236   0.303   0.463   0.580   0.609
  9 A    10 A    11 A    12 A    13 A    14 A    15 A    16 A                  
  0.689   0.705   0.776   0.807   0.858   0.928   0.971   1.006
 17 A    18 A    19 A    20 A    21 A    22 A    23 A    24 A                  
  1.130   1.237   1.241   1.263   1.291   1.593   1.728   1.744
 25 A    26 A    27 A    28 A    29 A    30 A    31 A    32 A                  
  1.811   1.852   1.854   1.901   1.963   1.972   2.224   2.248
 33 A    34 A    35 A    36 A    37 A    38 A    39 A    40 A                  
  2.356   2.423   2.493   2.623   2.679   2.795   3.099   3.369
 41 A    42 A    43 A    44 A    45 A    46 A    47 A    48 A                  
  Import AO data ...  CPU 0.00 s  wall 0.00 s
  Using point group: C1
  Irreducible representations in point group: A
  Molecular orbitals: 
  Occupied MOs:
  Block   0:   1 (  A) A   2 (  A) A   3 (  A) A   4 (  A) A   5 (  A) A
                  -11.24      -11.24       -1.03     -0.7859      -0.635
               6 (  A) A   7 (  A) A   8 (  A) A
                 -0.5824     -0.4995     -0.3744
  Block   1:   1 (  A) B   2 (  A) B   3 (  A) B   4 (  A) B   5 (  A) B
                  -11.24      -11.24       -1.03     -0.7859      -0.635
               6 (  A) B   7 (  A) B   8 (  A) B
                 -0.5824     -0.4995     -0.3744
  Virtual MOs:
  Block   0:   9 (  A) A  10 (  A) A  11 (  A) A  12 (  A) A  13 (  A) A
                  0.1679      0.2026       0.231      0.2365       0.303
              14 (  A) A  15 (  A) A  16 (  A) A  17 (  A) A  18 (  A) A
                  0.4628      0.5798      0.6089      0.6887      0.7048
              19 (  A) A  20 (  A) A  21 (  A) A  22 (  A) A
                  0.7757      0.8074      0.8584       0.928
  Block   1:  23 (  A) A  24 (  A) A  25 (  A) A  26 (  A) A  27 (  A) A
                  0.9706       1.006        1.13       1.237       1.241
              28 (  A) A  29 (  A) A  30 (  A) A  31 (  A) A  32 (  A) A
                   1.263       1.291       1.593       1.728       1.744
              33 (  A) A  34 (  A) A  35 (  A) A  36 (  A) A
                   1.811       1.852       1.854       1.901
  Block   2:  37 (  A) A  38 (  A) A  39 (  A) A  40 (  A) A  41 (  A) A
                   1.963       1.972       2.224       2.248       2.356
              42 (  A) A  43 (  A) A  44 (  A) A  45 (  A) A  46 (  A) A
                   2.423       2.493       2.623       2.679       2.795
              47 (  A) A  48 (  A) A
                   3.099       3.369
  Block   3:   9 (  A) B  10 (  A) B  11 (  A) B  12 (  A) B  13 (  A) B
                  0.1679      0.2026       0.231      0.2365       0.303
              14 (  A) B  15 (  A) B  16 (  A) B  17 (  A) B  18 (  A) B
                  0.4628      0.5798      0.6089      0.6887      0.7048
              19 (  A) B  20 (  A) B  21 (  A) B  22 (  A) B
                  0.7757      0.8074      0.8584       0.928
  Block   4:  23 (  A) B  24 (  A) B  25 (  A) B  26 (  A) B  27 (  A) B
                  0.9706       1.006        1.13       1.237       1.241
              28 (  A) B  29 (  A) B  30 (  A) B  31 (  A) B  32 (  A) B
                   1.263       1.291       1.593       1.728       1.744
              33 (  A) B  34 (  A) B  35 (  A) B  36 (  A) B
                   1.811       1.852       1.854       1.901
  Block   5:  37 (  A) B  38 (  A) B  39 (  A) B  40 (  A) B  41 (  A) B
                   1.963       1.972       2.224       2.248       2.356
              42 (  A) B  43 (  A) B  44 (  A) B  45 (  A) B  46 (  A) B
                   2.423       2.493       2.623       2.679       2.795
              47 (  A) B  48 (  A) B
                   3.099       3.369
  Import MO data ...  CPU 0.23 s  wall 0.05 s
  Import HF data ...  CPU 0.53 s  wall 0.16 s
  Import 2e integrals ...  CPU 1.58 s  wall 0.26 s

--------------------------------------------------------------------------------
                                   HF Summary                                   
--------------------------------------------------------------------------------
  Energy:                                                  -78.0396331455 a.u.
  Dip. moment [a.u.]:                  [  -0.000005,    0.000001,    0.000016]
  Total dipole [Debye]:                                               0.000043
  <r^2> [a.u.]:                        [ 175.801347,   35.319537,   11.680415]
  Total <r^2> [a.u.]:                                               222.801298
--------------------------------------------------------------------------------
  HF properties ...  CPU 0.07 s  wall 0.03 s
  MP(1) calculation ...  CPU 0.01 s  wall 0.01 s
  N^6 prerequesite intermediates ...  CPU 0.74 s  wall 0.14 s
  Difference density matrix of state mp2_gs printed to ASCII file 'State_mp2_gs_Difference.txt'
Exporting MP density matrix to file 'Densmat_MP.txt'.
Export successful
  Total density matrix of state mp2_gs printed to ASCII file 'State_mp2_gs_Total.txt'
Exporting MP density matrix to file 'Densmat_MP.txt'.
Export successful

--------------------------------------------------------------------------------
                                 MP(2) Summary                                  
--------------------------------------------------------------------------------
  MP energy contribution:                                   -0.2804884557 a.u.
  Total energy:                                            -78.3201216012 a.u.
  Dip. moment [a.u.]:                  [  -0.000005,    0.000001,    0.000016]
  Total dipole [Debye]:                                               0.000042
  <r^2> [a.u.]:                        [ 175.842713,   35.354203,   11.507989]
  Total <r^2> [a.u.]:                                               222.704904

  Density matrix analysis:
  ------------------------
  NOs
    Occupation of frontier NOs:
       0.0455   1.9380
    Number of electrons: 16.000000
    Number of unpaired electrons: n_u =  0.40725, n_u,nl =  0.04580
    NO participation ratio (PR_NO): 13.896493
  
  
  Mulliken Population Analysis
  Atom      Charge (e)              h+              e-           Del q
  --------------------------------------------------------------------
   1 H        0.054515        0.013927       -0.011307        0.002619
   2 C       -0.109925        0.094594       -0.099790       -0.005196
   3 H        0.055415        0.013888       -0.011310        0.002577
   4 C       -0.109934        0.094593       -0.099791       -0.005198
   5 H        0.055415        0.013888       -0.011310        0.002578
   6 H        0.054513        0.013927       -0.011307        0.002620
  --------------------------------------------------------------------
  Sum:        0.000000        0.244817       -0.244817        0.000000
  
  Multipole moment analysis of the density matrix
    Molecular charge:                      0.000000
    Number of electrons:                   16.000000
      Center of electronic charge [Ang]: [ -1.561339,  -0.065287,   0.002127]
    Total nuclear charge:                  16.000000
      Center of nuclear charge [Ang]:    [ -1.561339,  -0.065287,   0.002127]
    Dipole moment [D]:                     0.000042
      Cartesian components [D]:          [ -0.000013,   0.000003,   0.000040]
    RMS size of the density [Ang]:         1.206519
      Cartesian components [Ang]:        [  0.799864,   0.783900,   0.448783]
  
  Exciton analysis of the difference density matrix
    <r_h> [Ang]:                  [ -1.561338,  -0.065287,   0.002124]
    <r_e> [Ang]:                  [ -1.561339,  -0.065286,   0.002125]
    |<r_e - r_h>| [Ang]:            0.000001
    Hole size [Ang]:                1.401661
      Cartesian components [Ang]: [  0.852039,   0.841230,   0.728709]
    Electron size [Ang]:            1.361762
      Cartesian components [Ang]: [  0.879365,   0.864477,   0.577747]
--------------------------------------------------------------------------------
  MP(2) calculation ...  CPU 0.44 s  wall 0.25 s
  Start ADC(2)-s ...  CPU 0.02 s  wall 0.01 s
  ADC(2) intermediates ...  CPU 0.14 s  wall 0.04 s
  Starting Davidson for singlet states of irrep A ... 
--------------------------------------------------------------------------------
   It NVec Conv  Avg. Norm  Max. Norm  Conv. states           Remark
--------------------------------------------------------------------------------
        10    0  1.329e-01  4.687e-01  0.4117 n n n n n n n n Guess.
    1   20    0  2.315e-02  1.124e-01  0.3261 n n n n n n n n 
    2   30    0  5.879e-03  2.540e-02  0.3213 n n n n n n n n 
    3   40    0  1.970e-03  1.292e-02  0.3209 n n n n n n n n 
    4   50    0  6.351e-04  4.758e-03  0.3209 n n n n n n n n 
    5   20    0  2.827e-04  2.077e-03  0.3209 n n n n n n n n Subspace collapsed.
    6   30    0  1.668e-04  1.449e-03  0.3209 n n n n n n n n 
    7   40    0  8.357e-05  5.928e-04  0.3209 n n n n n n n n 
    8   50    0  4.683e-05  3.402e-04  0.3209 n n n n n n n n 
    9   20    1  3.189e-05  2.361e-04  0.3209 n y n n n n n n Subspace collapsed.
   10   30    5  3.333e-05  2.720e-04  0.3209 n y y y y y n n 
   11   40    5  2.979e-05  2.858e-04  0.3209 n y y y y y n n 
   12   50    6  2.253e-05  2.226e-04  0.3209 y y y y y y n n 
   13   20    6  9.113e-06  8.901e-05  0.3209 y y y y y y n n Subspace collapsed.
   14   30    6  6.289e-06  6.147e-05  0.3209 y y y y y y n n 
   15   40    8  3.047e-06  2.923e-05  0.3209 y y y y y y n y 
   16   50    8  2.955e-06  2.940e-05  0.3209 y y y y y y n y 
   17   20    9  1.684e-06  1.681e-05  0.3209 y y y y y y y y Subspace collapsed.
   18   30    9  2.834e-06  2.832e-05  0.3209 y y y y y y y y 
   19   40    9  3.328e-06  3.327e-05  0.3209 y y y y y y y y 
   20   50    9  3.017e-06  3.016e-05  0.3209 y y y y y y y y 
   21   20    9  1.193e-06  1.192e-05  0.3209 y y y y y y y y Subspace collapsed.
   22   30    9  9.183e-07  9.180e-06  0.3209 y y y y y y y y 
   23   32    9  8.638e-07  8.635e-06  0.3209 y y y y y y y y 
   24   34    9  8.278e-07  8.276e-06  0.3209 y y y y y y y y 
   25   41    9  4.003e-07  4.002e-06  0.3209 y y y y y y y y 
   26   47    9  5.210e-07  5.209e-06  0.3209 y y y y y y y y 
   27   47    9  5.210e-07  5.209e-06  0.3209 y y y y y y y y 
   28   50    9  5.080e-07  5.079e-06  0.3209 y y y y y y y y 
   29   16    9  2.560e-07  2.560e-06  0.3209 y y y y y y y y Subspace collapsed.
   30   21    9  5.101e-07  5.101e-06  0.3209 y y y y y y y y 
   31   26    9  5.677e-07  5.676e-06  0.3209 y y y y y y y y 
   32   31    9  4.717e-07  4.717e-06  0.3209 y y y y y y y y 
   33   35    9  2.680e-07  2.680e-06  0.3209 y y y y y y y y 
   34   39    9  1.549e-07  1.549e-06  0.3209 y y y y y y y y 
   35   43   10  7.370e-08  7.370e-07  0.3209 y y y y y y y y Converged.
--------------------------------------------------------------------------------
  Davidson Summary: 
 ------------------------------------------------------------
  State  0: excitation energy =   0.3209 a.u.   (converged)
  State  1: excitation energy =   0.3290 a.u.   (converged)
  State  2: excitation energy =   0.3359 a.u.   (converged)
  State  3: excitation energy =   0.3579 a.u.   (converged)
  State  4: excitation energy =   0.3733 a.u.   (converged)
  State  5: excitation energy =   0.3866 a.u.   (converged)
  State  6: excitation energy =   0.4202 a.u.   (converged)
  State  7: excitation energy =   0.4435 a.u.   (converged)
  State  8: excitation energy =   0.4537 a.u.   (converged)
  State  9: excitation energy =   0.4585 a.u.   (converged)
 ------------------------------------------------------------

  Singlet states of irrep A ...  CPU 201.90 s  wall 65.73 s
  TDMs ...  CPU 1.79 s  wall 0.71 s
  SDMs ...  CPU 4.21 s  wall 1.38 s
  Starting TPA DIIS iterations ... 
------------------------------------ 
   It     Res. Norm  Remark
------------------------------------
                       Guess.
    1     4.406e+00  
    2     5.844e+00  
    3     1.085e+00  
    4     2.611e-01  
    5     6.552e-02  
    6     2.749e-02  
    7     8.452e-03  
    8     1.524e-03  
    9     5.723e-04  
   10     9.677e-05  
   11     3.082e-05  
   12     4.809e-06  
   13     1.617e-06  
   14     4.746e-07  Converged.
   ... Converged in 14 steps (norm: 4.74552e-07)
------------------------------------
  Starting TPA DIIS iterations ... 
------------------------------------ 
   It     Res. Norm  Remark
------------------------------------
                       Guess.
    1     4.178e+00  
    2     5.535e+00  
    3     1.038e+00  
    4     2.636e-01  
    5     6.563e-02  
    6     2.807e-02  
    7     8.358e-03  
    8     1.599e-03  
    9     6.013e-04  
   10     9.827e-05  
   11     3.246e-05  
   12     4.917e-06  
   13     1.697e-06  
   14     4.796e-07  Converged.
   ... Converged in 14 steps (norm: 4.79612e-07)
------------------------------------
  Starting TPA DIIS iterations ... 
------------------------------------ 
   It     Res. Norm  Remark
------------------------------------
                       Guess.
    1     6.855e-01  
    2     4.793e-01  
    3     1.686e-01  
    4     6.249e-02  
    5     1.875e-02  
    6     6.710e-03  
    7     1.074e-03  
    8     4.586e-04  
    9     1.262e-04  
   10     3.092e-05  
   11     5.053e-06  
   12     1.804e-06  
   13     8.516e-07  Converged.
   ... Converged in 13 steps (norm: 8.51588e-07)
------------------------------------
  Starting TPA DIIS iterations ... 
------------------------------------ 
   It     Res. Norm  Remark
------------------------------------
                       Guess.
    1     4.603e+00  
    2     6.196e+00  
    3     1.140e+00  
    4     2.809e-01  
    5     7.118e-02  
    6     3.005e-02  
    7     9.230e-03  
    8     1.662e-03  
    9     6.276e-04  
   10     1.066e-04  
   11     3.416e-05  
   12     5.363e-06  
   13     1.812e-06  
   14     5.308e-07  Converged.
   ... Converged in 14 steps (norm: 5.30784e-07)
------------------------------------
  Starting TPA DIIS iterations ... 
------------------------------------ 
   It     Res. Norm  Remark
------------------------------------
                       Guess.
    1     4.363e+00  
    2     5.867e+00  
    3     1.091e+00  
    4     2.835e-01  
    5     7.129e-02  
    6     3.071e-02  
    7     9.130e-03  
    8     1.746e-03  
    9     6.600e-04  
   10     1.082e-04  
   11     3.597e-05  
   12     5.481e-06  
   13     1.903e-06  
   14     5.359e-07  Converged.
   ... Converged in 14 steps (norm: 5.35936e-07)
------------------------------------
  Starting TPA DIIS iterations ... 
------------------------------------ 
   It     Res. Norm  Remark
------------------------------------
                       Guess.
    1     6.938e-01  
    2     4.911e-01  
    3     1.752e-01  
    4     6.807e-02  
    5     1.973e-02  
    6     7.129e-03  
    7     1.166e-03  
    8     5.139e-04  
    9     1.438e-04  
   10     3.427e-05  
   11     5.502e-06  
   12     2.020e-06  
   13     9.895e-07  Converged.
   ... Converged in 13 steps (norm: 9.89546e-07)
------------------------------------
  Starting TPA DIIS iterations ... 
------------------------------------ 
   It     Res. Norm  Remark
------------------------------------
                       Guess.
    1     4.783e+00  
    2     6.523e+00  
    3     1.191e+00  
    4     2.996e-01  
    5     7.653e-02  
    6     3.250e-02  
    7     9.967e-03  
    8     1.793e-03  
    9     6.801e-04  
   10     1.159e-04  
   11     3.738e-05  
   12     5.898e-06  
   13     2.002e-06  
   14     5.850e-07  Converged.
   ... Converged in 14 steps (norm: 5.84981e-07)
------------------------------------
  Starting TPA DIIS iterations ... 
------------------------------------ 
   It     Res. Norm  Remark
------------------------------------
                       Guess.
    1     4.534e+00  
    2     6.177e+00  
    3     1.140e+00  
    4     3.022e-01  
    5     7.666e-02  
    6     3.323e-02  
    7     9.861e-03  
    8     1.886e-03  
    9     7.157e-04  
   10     1.177e-04  
   11     3.935e-05  
   12     6.024e-06  
   13     2.103e-06  
   14     5.902e-07  Converged.
   ... Converged in 14 steps (norm: 5.90209e-07)
------------------------------------
  Starting TPA DIIS iterations ... 
------------------------------------ 
   It     Res. Norm  Remark
------------------------------------
                       Guess.
    1     7.011e-01  
    2     5.016e-01  
    3     1.813e-01  
    4     7.343e-02  
    5     2.062e-02  
    6     7.524e-03  
    7     1.254e-03  
    8     5.681e-04  
    9     1.611e-04  
   10     3.704e-05  
   11     5.921e-06  
   12     2.231e-06  
   13     1.130e-06  
   14     4.177e-07  Converged.
   ... Converged in 14 steps (norm: 4.17683e-07)
------------------------------------
  Starting TPA DIIS iterations ... 
------------------------------------ 
   It     Res. Norm  Remark
------------------------------------
                       Guess.
    1     5.434e+00  
    2     7.734e+00  
    3     1.375e+00  
    4     3.710e-01  
    5     9.698e-02  
    6     4.193e-02  
    7     1.279e-02  
    8     2.293e-03  
    9     8.829e-04  
   10     1.520e-04  
   11     5.004e-05  
   12     8.008e-06  
   13     2.766e-06  
   14     8.002e-07  Converged.
   ... Converged in 14 steps (norm: 8.00228e-07)
------------------------------------
  Starting TPA DIIS iterations ... 
------------------------------------ 
   It     Res. Norm  Remark
------------------------------------
                       Guess.
    1     5.148e+00  
    2     7.323e+00  
    3     1.315e+00  
    4     3.737e-01  
    5     9.715e-02  
    6     4.295e-02  
    7     1.266e-02  
    8     2.421e-03  
    9     9.310e-04  
   10     1.545e-04  
   11     5.261e-05  
   12     8.161e-06  
   13     2.907e-06  
   14     8.059e-07  Converged.
   ... Converged in 14 steps (norm: 8.0586e-07)
------------------------------------
  Starting TPA DIIS iterations ... 
------------------------------------ 
   It     Res. Norm  Remark
------------------------------------
                       Guess.
    1     7.251e-01  
    2     5.378e-01  
    3     2.025e-01  
    4     9.446e-02  
    5     2.380e-02  
    6     9.034e-03  
    7     1.605e-03  
    8     7.856e-04  
    9     2.292e-04  
   10     4.402e-05  
   11     7.489e-06  
   12     3.083e-06  
   13     1.748e-06  
   14     5.970e-07  Converged.
   ... Converged in 14 steps (norm: 5.96992e-07)
------------------------------------
  Starting TPA DIIS iterations ... 
------------------------------------ 
   It     Res. Norm  Remark
------------------------------------
                       Guess.
    1     5.986e+00  
    2     8.796e+00  
    3     1.530e+00  
    4     4.361e-01  
    5     1.156e-01  
    6     5.064e-02  
    7     1.536e-02  
    8     2.748e-03  
    9     1.070e-03  
   10     1.854e-04  
   11     6.197e-05  
   12     9.999e-06  
   13     3.503e-06  
   14     1.007e-06  
   15     3.303e-07  Converged.
   ... Converged in 15 steps (norm: 3.30303e-07)
------------------------------------
  Starting TPA DIIS iterations ... 
------------------------------------ 
   It     Res. Norm  Remark
------------------------------------
                       Guess.
    1     5.670e+00  
    2     8.327e+00  
    3     1.462e+00  
    4     4.388e-01  
    5     1.158e-01  
    6     5.195e-02  
    7     1.522e-02  
    8     2.909e-03  
    9     1.130e-03  
   10     1.885e-04  
   11     6.506e-05  
   12     1.017e-05  
   13     3.679e-06  
   14     1.014e-06  
   15     3.290e-07  Converged.
   ... Converged in 15 steps (norm: 3.28971e-07)
------------------------------------
  Starting TPA DIIS iterations ... 
------------------------------------ 
   It     Res. Norm  Remark
------------------------------------
                       Guess.
    1     7.431e-01  
    2     5.665e-01  
    3     2.199e-01  
    4     1.142e-01  
    5     2.652e-02  
    6     1.042e-02  
    7     1.943e-03  
    8     9.851e-04  
    9     2.900e-04  
   10     4.686e-05  
   11     8.914e-06  
   12     3.902e-06  
   13     2.401e-06  
   14     7.669e-07  Converged.
   ... Converged in 14 steps (norm: 7.66926e-07)
------------------------------------
  Starting TPA DIIS iterations ... 
------------------------------------ 
   It     Res. Norm  Remark
------------------------------------
                       Guess.
    1     6.539e+00  
    2     9.888e+00  
    3     1.683e+00  
    4     5.051e-01  
    5     1.353e-01  
    6     5.996e-02  
    7     1.809e-02  
    8     3.227e-03  
    9     1.269e-03  
   10     2.211e-04  
   11     7.485e-05  
   12     1.215e-05  
   13     4.311e-06  
   14     1.237e-06  
   15     4.093e-07  Converged.
   ... Converged in 15 steps (norm: 4.09282e-07)
------------------------------------
  Starting TPA DIIS iterations ... 
------------------------------------ 
   It     Res. Norm  Remark
------------------------------------
                       Guess.
    1     6.192e+00  
    2     9.360e+00  
    3     1.608e+00  
    4     5.077e-01  
    5     1.356e-01  
    6     6.158e-02  
    7     1.793e-02  
    8     3.425e-03  
    9     1.342e-03  
   10     2.248e-04  
   11     7.842e-05  
   12     1.233e-05  
   13     4.518e-06  
   14     1.245e-06  
   15     4.061e-07  Converged.
   ... Converged in 15 steps (norm: 4.06066e-07)
------------------------------------
  Starting TPA DIIS iterations ... 
------------------------------------ 
   It     Res. Norm  Remark
------------------------------------
                       Guess.
    1     7.593e-01  
    2     5.935e-01  
    3     2.367e-01  
    4     1.355e-01  
    5     2.931e-02  
    6     1.188e-02  
    7     2.316e-03  
    8     1.185e-03  
    9     3.503e-04  
   10     4.833e-05  
   11     1.045e-05  
   12     4.789e-06  
   13     3.160e-06  
   14     9.496e-07  Converged.
   ... Converged in 14 steps (norm: 9.49611e-07)
------------------------------------
  Starting TPA DIIS iterations ... 
------------------------------------ 
   It     Res. Norm  Remark
------------------------------------
                       Guess.
    1     8.362e+00  
    2     1.369e+01  
    3     2.183e+00  
    4     7.559e-01  
    5     2.071e-01  
    6     9.456e-02  
    7     2.803e-02  
    8     4.965e-03  
    9     2.008e-03  
   10     3.530e-04  
   11     1.222e-04  
   12     2.017e-05  
   13     7.319e-06  
   14     2.175e-06  
   15     7.082e-07  Converged.
   ... Converged in 15 steps (norm: 7.08243e-07)
------------------------------------
  Starting TPA DIIS iterations ... 
------------------------------------ 
   It     Res. Norm  Remark
------------------------------------
                       Guess.
    1     7.916e+00  
    2     1.295e+01  
    3     2.084e+00  
    4     7.574e-01  
    5     2.076e-01  
    6     9.741e-02  
    7     2.782e-02  
    8     5.303e-03  
    9     2.127e-03  
   10     3.588e-04  
   11     1.272e-04  
   12     2.035e-05  
   13     7.569e-06  
   14     2.189e-06  
   15     6.967e-07  Converged.
   ... Converged in 15 steps (norm: 6.96674e-07)
------------------------------------
  Starting TPA DIIS iterations ... 
------------------------------------ 
   It     Res. Norm  Remark
------------------------------------
                       Guess.
    1     8.037e-01  
    2     6.745e-01  
    3     2.894e-01  
    4     2.131e-01  
    5     3.916e-02  
    6     1.722e-02  
    7     3.776e-03  
    8     1.729e-03  
    9     5.356e-04  
   10     5.562e-05  
   11     1.635e-05  
   12     7.999e-06  
   13     6.237e-06  
   14     1.615e-06  
   15     6.051e-07  Converged.
   ... Converged in 15 steps (norm: 6.05133e-07)
------------------------------------
  Starting TPA DIIS iterations ... 
------------------------------------ 
   It     Res. Norm  Remark
------------------------------------
                       Guess.
    1     1.016e+01  
    2     1.770e+01  
    3     2.665e+00  
    4     1.031e+00  
    5     2.865e-01  
    6     1.338e-01  
    7     3.903e-02  
    8     6.877e-03  
    9     2.839e-03  
   10     5.007e-04  
   11     1.731e-04  
   12     2.929e-05  
   13     1.056e-05  
   14     3.373e-06  
   15     1.086e-06  
   16     2.400e-07  Converged.
   ... Converged in 16 steps (norm: 2.40032e-07)
------------------------------------
  Starting TPA DIIS iterations ... 
------------------------------------ 
   It     Res. Norm  Remark
------------------------------------
                       Guess.
    1     9.619e+00  
    2     1.675e+01  
    3     2.542e+00  
    4     1.030e+00  
    5     2.872e-01  
    6     1.381e-01  
    7     3.877e-02  
    8     7.378e-03  
    9     3.011e-03  
   10     5.087e-04  
   11     1.791e-04  
   12     2.957e-05  
   13     1.079e-05  
   14     3.373e-06  
   15     1.091e-06  
   16     2.519e-07  Converged.
   ... Converged in 16 steps (norm: 2.51921e-07)
------------------------------------
  Starting TPA DIIS iterations ... 
------------------------------------ 
   It     Res. Norm  Remark
------------------------------------
                       Guess.
    1     8.382e-01  
    2     7.451e-01  
    3     3.378e-01  
    4     2.933e-01  
    5     4.968e-02  
    6     2.292e-02  
    7     5.481e-03  
    8     2.030e-03  
    9     6.988e-04  
   10     7.211e-05  
   11     2.326e-05  
   12     1.130e-05  
   13     9.773e-06  
   14     2.319e-06  
   15     8.022e-07  Converged.
   ... Converged in 15 steps (norm: 8.02185e-07)
------------------------------------
  Starting TPA DIIS iterations ... 
------------------------------------ 
   It     Res. Norm  Remark
------------------------------------
                       Guess.
    1     1.116e+01  
    2     2.001e+01  
    3     2.926e+00  
    4     1.192e+00  
    5     3.334e-01  
    6     1.572e-01  
    7     4.553e-02  
    8     8.000e-03  
    9     3.334e-03  
   10     5.882e-04  
   11     2.021e-04  
   12     3.486e-05  
   13     1.246e-05  
   14     4.137e-06  
   15     1.372e-06  
   16     3.028e-07  Converged.
   ... Converged in 16 steps (norm: 3.02835e-07)
------------------------------------
  Starting TPA DIIS iterations ... 
------------------------------------ 
   It     Res. Norm  Remark
------------------------------------
                       Guess.
    1     1.056e+01  
    2     1.894e+01  
    3     2.790e+00  
    4     1.189e+00  
    5     3.342e-01  
    6     1.624e-01  
    7     4.524e-02  
    8     8.602e-03  
    9     3.538e-03  
   10     5.974e-04  
   11     2.087e-04  
   12     3.526e-05  
   13     1.272e-05  
   14     4.115e-06  
   15     1.406e-06  
   16     3.160e-07  Converged.
   ... Converged in 16 steps (norm: 3.15987e-07)
------------------------------------
  Starting TPA DIIS iterations ... 
------------------------------------ 
   It     Res. Norm  Remark
------------------------------------
                       Guess.
    1     8.545e-01  
    2     7.812e-01  
    3     3.632e-01  
    4     3.360e-01  
    5     5.572e-02  
    6     2.607e-02  
    7     6.495e-03  
    8     2.120e-03  
    9     7.833e-04  
   10     8.359e-05  
   11     2.743e-05  
   12     1.313e-05  
   13     1.185e-05  
   14     2.707e-06  
   15     8.852e-07  Converged.
   ... Converged in 15 steps (norm: 8.85226e-07)
------------------------------------
  Starting TPA DIIS iterations ... 
------------------------------------ 
   It     Res. Norm  Remark
------------------------------------
                       Guess.
    1     1.167e+01  
    2     2.123e+01  
    3     3.059e+00  
    4     1.277e+00  
    5     3.583e-01  
    6     1.698e-01  
    7     4.899e-02  
    8     8.598e-03  
    9     3.599e-03  
   10     6.348e-04  
   11     2.173e-04  
   12     3.790e-05  
   13     1.350e-05  
   14     4.558e-06  
   15     1.549e-06  
   16     3.388e-07  Converged.
   ... Converged in 16 steps (norm: 3.38817e-07)
------------------------------------
  Starting TPA DIIS iterations ... 
------------------------------------ 
   It     Res. Norm  Remark
------------------------------------
                       Guess.
    1     1.104e+01  
    2     2.009e+01  
    3     2.917e+00  
    4     1.273e+00  
    5     3.593e-01  
    6     1.755e-01  
    7     4.868e-02  
    8     9.254e-03  
    9     3.820e-03  
   10     6.447e-04  
   11     2.242e-04  
   12     3.838e-05  
   13     1.378e-05  
   14     4.522e-06  
   15     1.601e-06  
   16     3.503e-07  Converged.
   ... Converged in 16 steps (norm: 3.50289e-07)
------------------------------------
  Starting TPA DIIS iterations ... 
------------------------------------ 
   It     Res. Norm  Remark
------------------------------------
                       Guess.
    1     8.624e-01  
    2     7.992e-01  
    3     3.760e-01  
    4     3.572e-01  
    5     5.890e-02  
    6     2.769e-02  
    7     7.032e-03  
    8     2.153e-03  
    9     8.258e-04  
   10     8.984e-05  
   11     2.966e-05  
   12     1.410e-05  
   13     1.296e-05  
   14     2.903e-06  
   15     9.227e-07  Converged.
   ... Converged in 15 steps (norm: 9.22733e-07)
------------------------------------
  Two-photon absorbption ...  CPU 147.54 s  wall 41.90 s
  Transition density matrix of state singlet_A_1 printed to ASCII file 'State_singlet_A_1_Transition.txt'
  Transition density matrix of state singlet_A_2 printed to ASCII file 'State_singlet_A_2_Transition.txt'
  Transition density matrix of state singlet_A_3 printed to ASCII file 'State_singlet_A_3_Transition.txt'
  Transition density matrix of state singlet_A_4 printed to ASCII file 'State_singlet_A_4_Transition.txt'
  Transition density matrix of state singlet_A_5 printed to ASCII file 'State_singlet_A_5_Transition.txt'
  Transition density matrix of state singlet_A_6 printed to ASCII file 'State_singlet_A_6_Transition.txt'
  Transition density matrix of state singlet_A_7 printed to ASCII file 'State_singlet_A_7_Transition.txt'
  Transition density matrix of state singlet_A_8 printed to ASCII file 'State_singlet_A_8_Transition.txt'
  Transition density matrix of state singlet_A_9 printed to ASCII file 'State_singlet_A_9_Transition.txt'
  Transition density matrix of state singlet_A_10 printed to ASCII file 'State_singlet_A_10_Transition.txt'
  Transition properties ...  CPU 0.34 s  wall 0.57 s
  Difference density matrix of state singlet_A_1 printed to ASCII file 'State_singlet_A_1_Difference.txt'
  Total density matrix of state singlet_A_1 printed to ASCII file 'State_singlet_A_1_Total.txt'
  Difference density matrix of state singlet_A_2 printed to ASCII file 'State_singlet_A_2_Difference.txt'
  Total density matrix of state singlet_A_2 printed to ASCII file 'State_singlet_A_2_Total.txt'
  Difference density matrix of state singlet_A_3 printed to ASCII file 'State_singlet_A_3_Difference.txt'
  Total density matrix of state singlet_A_3 printed to ASCII file 'State_singlet_A_3_Total.txt'
  Difference density matrix of state singlet_A_4 printed to ASCII file 'State_singlet_A_4_Difference.txt'
  Total density matrix of state singlet_A_4 printed to ASCII file 'State_singlet_A_4_Total.txt'
  Difference density matrix of state singlet_A_5 printed to ASCII file 'State_singlet_A_5_Difference.txt'
  Total density matrix of state singlet_A_5 printed to ASCII file 'State_singlet_A_5_Total.txt'
  Difference density matrix of state singlet_A_6 printed to ASCII file 'State_singlet_A_6_Difference.txt'
  Total density matrix of state singlet_A_6 printed to ASCII file 'State_singlet_A_6_Total.txt'
  Difference density matrix of state singlet_A_7 printed to ASCII file 'State_singlet_A_7_Difference.txt'
  Total density matrix of state singlet_A_7 printed to ASCII file 'State_singlet_A_7_Total.txt'
  Difference density matrix of state singlet_A_8 printed to ASCII file 'State_singlet_A_8_Difference.txt'
  Total density matrix of state singlet_A_8 printed to ASCII file 'State_singlet_A_8_Total.txt'
  Difference density matrix of state singlet_A_9 printed to ASCII file 'State_singlet_A_9_Difference.txt'
  Total density matrix of state singlet_A_9 printed to ASCII file 'State_singlet_A_9_Total.txt'
  Difference density matrix of state singlet_A_10 printed to ASCII file 'State_singlet_A_10_Difference.txt'
  Total density matrix of state singlet_A_10 printed to ASCII file 'State_singlet_A_10_Total.txt'
  Properties ...  CPU 0.62 s  wall 0.97 s
  ISR TDMS ...  CPU 27.49 s  wall 9.27 s
  ISR transition properties ...  CPU 0.74 s  wall 0.34 s
  Sum-over-states TPA ...  CPU 0.00 s  wall 0.00 s

--------------------------------------------------------------------------------
                   State-averaged natural transition orbitals
--------------------------------------------------------------------------------
--------------------------------------------------------------------------------
  SA-NTO decomposition ...  CPU 0.02 s  wall 0.04 s

--------------------------------------------------------------------------------
                             Excited State Summary
--------------------------------------------------------------------------------
--------------------------------------------------------------------------------

  Excited state 1 (singlet, A)                                     [converged]
  ----------------------------------------------------------------------------
  Term symbol:  2 (1) A                                     R^2 =  1.83036e-13

  Total energy:                                            -77.9992343616 a.u.
  Excitation energy:                                               8.731786 eV

  Osc. strength:                                                      0.446208
  Trans. dip. moment [a.u.]:           [  -1.046715,    0.995042,    0.009761]
  <i|r^2|0> [a.u.]:                    [  -6.176629,    0.245570,   -0.000156]
  Two-photon absorption cross-section (SoS) [a.u.]:                   0.000000
  Two-photon absorption matrix (SoS) [a.u.]:
                                       |   -0.000028    0.000005   -0.000027 |
                                       |    0.000005   -0.000010   -0.000073 |
                                       |   -0.000027   -0.000073   -0.000028 |
  Two-photon absorption cross-section [a.u.]:                         0.000001
  Two-photon absorption matrix [a.u.]:
                                       |   -0.000017   -0.000016    0.000240 |
                                       |   -0.000016    0.000006    0.000218 |
                                       |    0.000240    0.000218    0.000041 |

  Dip. moment [a.u.]:                  [  -0.000005,   -0.000000,    0.000021]
  Total dipole [Debye]:                                               0.000053
  <r^2> [a.u.]:                        [ 176.592162,   36.037705,   11.918954]
  Total <r^2> [a.u.]:                                               224.548821

  V1^2 = 0.9713, V2^2 = 0.0287

  Important amplitudes:
      occ i     occ j     vir a      vir b          v   
    -----------------------------------------------------
     8 (A) A              9 (A) A                -0.6809
     6 (A) A             14 (A) A                -0.0617
     4 (A) A             10 (A) A                -0.0614
     7 (A) A             16 (A) A                -0.0575
     5 (A) A             13 (A) A                 0.0527
     6 (A) A             23 (A) A                -0.0485
     8 (A) A             20 (A) A                -0.0348
     6 (A) A             19 (A) A                -0.0302
     3 (A) A             12 (A) A                 0.0285
     5 (A) A             22 (A) A                 0.0218
     4 (A) A             24 (A) A                -0.0188
     3 (A) A             26 (A) A                -0.0187
     7 (A) A             11 (A) A                 0.0185
     8 (A) A   8 (A) B   17 (A) A   20 (A) B      0.0184
     8 (A) A   8 (A) B    9 (A) A   28 (A) B      0.0168
     6 (A) A             26 (A) A                 0.0163
     7 (A) A             21 (A) A                -0.0152
     3 (A) A             14 (A) A                 0.0143
     6 (A) A             12 (A) A                 0.0136
     3 (A) A   4 (A) B    9 (A) A    9 (A) B      0.0129
     3 (A) A             19 (A) A                 0.0121
     8 (A) A   8 (A) B   18 (A) A   19 (A) B     -0.0111
     7 (A) A             32 (A) A                -0.0097
     7 (A) A             36 (A) A                -0.0086
     3 (A) A             23 (A) A                 0.0082
     8 (A) A   8 (A) B   25 (A) A   29 (A) B     -0.0076
     6 (A) A             35 (A) A                 0.0071
     6 (A) A             40 (A) A                -0.0067
     3 (A) A   6 (A) B    9 (A) A   28 (A) B     -0.0065
     5 (A) A   8 (A) B   11 (A) A    9 (A) B      0.0062
     7 (A) A   8 (A) B   13 (A) A   20 (A) B     -0.0060
     5 (A) A   8 (A) B   11 (A) A   20 (A) B     -0.0060
     5 (A) A   7 (A) B    9 (A) A    9 (A) B      0.0060
     6 (A) A   8 (A) A   19 (A) A   28 (A) A     -0.0060
     5 (A) A             27 (A) A                 0.0060
     5 (A) A   8 (A) B   16 (A) A    9 (A) B      0.0059
     3 (A) A   5 (A) B    9 (A) A   25 (A) B      0.0058
     7 (A) A   8 (A) B   22 (A) A   20 (A) B     -0.0057
     3 (A) A             40 (A) A                 0.0056
     8 (A) A   8 (A) B   19 (A) A   30 (A) B     -0.0056
    -----------------------------------------------------

  Density matrix analysis:
  ------------------------
  NOs
    Occupation of frontier NOs:
       0.9491   1.0219
    Number of electrons: 16.000000
    Number of unpaired electrons: n_u =  2.31678, n_u,nl =  2.03329
    NO participation ratio (PR_NO):  2.874072
  
  
  Mulliken Population Analysis
  Atom      Charge (e)              h+              e-           Del q
  --------------------------------------------------------------------
   1 H        0.062518        0.020411       -0.012408        0.008003
   2 C       -0.125962        0.490665       -0.506702       -0.016038
   3 H        0.063451        0.020465       -0.012429        0.008035
   4 C       -0.125974        0.490664       -0.506704       -0.016040
   5 H        0.063451        0.020465       -0.012429        0.008036
   6 H        0.062516        0.020411       -0.012408        0.008003
  --------------------------------------------------------------------
  Sum:        0.000000        1.063081       -1.063081        0.000000
  
  Multipole moment analysis of the density matrix
    Molecular charge:                      0.000000
    Number of electrons:                   16.000000
      Center of electronic charge [Ang]: [ -1.561339,  -0.065287,   0.002126]
    Total nuclear charge:                  16.000000
      Center of nuclear charge [Ang]:    [ -1.561339,  -0.065287,   0.002127]
    Dipole moment [D]:                     0.000053
      Cartesian components [D]:          [ -0.000012,  -0.000001,   0.000052]
    RMS size of the density [Ang]:         1.219819
      Cartesian components [Ang]:        [  0.808022,   0.791493,   0.456726]
  
  Exciton analysis of the difference density matrix
    <r_h> [Ang]:                  [ -1.561336,  -0.065288,   0.002120]
    <r_e> [Ang]:                  [ -1.561337,  -0.065287,   0.002117]
    |<r_e - r_h>| [Ang]:            0.000002
    Hole size [Ang]:                1.287297
      Cartesian components [Ang]: [  0.730223,   0.714751,   0.782968]
    Electron size [Ang]:            1.463845
      Cartesian components [Ang]: [  0.854775,   0.831211,   0.849289]

  Transition density matrix analysis:
  -----------------------------------
  
  CT numbers (Mulliken)
    omega =     0.9532
    <Phe> =    -0.1603
  
  Exciton analysis of the transition density matrix
    Trans. dipole moment [D]:             1.835441
      Cartesian components [D]:         [ -1.330242,   1.264573,   0.012406]
    <r_h> [Ang]:                        [ -1.561335,  -0.065289,   0.002121]
    <r_e> [Ang]:                        [ -1.561337,  -0.065287,   0.002116]
    |<r_e - r_h>| [Ang]:                  0.000006
    Hole size [Ang]:                      1.214403
      Cartesian components [Ang]:       [  0.650138,   0.636840,   0.804071]
    Electron size [Ang]:                  1.486739
      Cartesian components [Ang]:       [  0.865270,   0.840050,   0.869491]
    RMS electron-hole separation [Ang]:   1.937163
      Cartesian components [Ang]:       [  1.107572,   1.075455,   1.170163]
    Covariance(r_h, r_e) [Ang^2]:        -0.033717
    Correlation coefficient:             -0.018675
    Center-of-mass size [Ang]:            0.951017
      Cartesian components [Ang]:       [  0.528211,   0.516212,   0.599126]

  Decomposition into state-averaged NTOs
    H- 0 -> L+ 0:  0.6697 ( 89.7%)
    H- 2 -> L+ 5: -0.0830 (  1.4%)
                   omega =  95.3%
  ----------------------------------------------------------------------------


  Excited state 2 (singlet, A)                                     [converged]
  ----------------------------------------------------------------------------
  Term symbol:  3 (1) A                                     R^2 =  1.27184e-13

  Total energy:                                            -77.9911337004 a.u.
  Excitation energy:                                               8.952216 eV

  Osc. strength:                                                      0.000000
  Trans. dip. moment [a.u.]:           [   0.000545,   -0.000502,   -0.000004]
  <i|r^2|0> [a.u.]:                    [   0.067684,    0.088450,   -0.153044]
  Two-photon absorption cross-section (SoS) [a.u.]:                   4.616536
  Two-photon absorption matrix (SoS) [a.u.]:
                                       |    0.047935    0.057342   -0.494222 |
                                       |    0.057342    0.068391   -0.565028 |
                                       |   -0.494222   -0.565028   -0.116436 |
  Two-photon absorption cross-section [a.u.]:                         0.178467
  Two-photon absorption matrix [a.u.]:
                                       |   -0.007083   -0.010843    0.080775 |
                                       |   -0.010843   -0.015757    0.123518 |
                                       |    0.080775    0.123518    0.022818 |

  Dip. moment [a.u.]:                  [  -0.000053,    0.000048,    0.000036]
  Total dipole [Debye]:                                               0.000204
  <r^2> [a.u.]:                        [ 174.974780,   34.337611,   13.214757]
  Total <r^2> [a.u.]:                                               222.527148

  V1^2 = 0.9541, V2^2 = 0.0459

  Important amplitudes:
      occ i     occ j     vir a      vir b          v   
    -----------------------------------------------------
     7 (A) A              9 (A) A                -0.6685
     8 (A) A             11 (A) A                 0.1513
     7 (A) A             20 (A) A                -0.0756
     5 (A) A   8 (A) B    9 (A) A    9 (A) B      0.0315
     8 (A) A             16 (A) A                 0.0281
     8 (A) A             21 (A) A                -0.0178
     5 (A) A             28 (A) A                 0.0150
     4 (A) A   7 (A) B    9 (A) A   19 (A) B     -0.0136
     5 (A) A   7 (A) B    9 (A) A   16 (A) B     -0.0134
     7 (A) A   8 (A) B   20 (A) A   17 (A) B      0.0106
     7 (A) A   8 (A) A    9 (A) A   28 (A) A     -0.0098
     5 (A) A   8 (A) B    9 (A) A   20 (A) B      0.0094
     4 (A) A   6 (A) B    9 (A) A   16 (A) B     -0.0091
     5 (A) A   6 (A) A    9 (A) A   23 (A) A     -0.0090
     5 (A) A   6 (A) A    9 (A) A   14 (A) A     -0.0089
     5 (A) A   6 (A) B    9 (A) A   19 (A) B     -0.0086
     8 (A) A   7 (A) B    9 (A) A   28 (A) B      0.0085
     6 (A) A   7 (A) B    9 (A) A   18 (A) B     -0.0085
     4 (A) A   5 (A) A    9 (A) A   10 (A) A      0.0085
     5 (A) A   6 (A) B    9 (A) A   23 (A) B     -0.0080
     3 (A) A   7 (A) B    9 (A) A   18 (A) B     -0.0080
     5 (A) A   7 (A) A    9 (A) A   16 (A) A     -0.0078
     4 (A) A   8 (A) B    9 (A) A   25 (A) B      0.0076
     4 (A) A   7 (A) B   19 (A) A    9 (A) B     -0.0075
     7 (A) A   8 (A) B   17 (A) A   20 (A) B      0.0074
     5 (A) A   5 (A) B    9 (A) A   13 (A) B      0.0073
     7 (A) A   8 (A) B   19 (A) A   18 (A) B     -0.0071
     4 (A) A   5 (A) B    9 (A) A   18 (A) B     -0.0069
     5 (A) A   8 (A) A    9 (A) A   20 (A) A      0.0068
     7 (A) A   7 (A) B   20 (A) A   22 (A) B     -0.0066
     7 (A) A   8 (A) B   17 (A) A    9 (A) B      0.0065
     5 (A) A   6 (A) B    9 (A) A   14 (A) B     -0.0063
     5 (A) A   7 (A) B   11 (A) A   20 (A) B     -0.0062
     4 (A) A   5 (A) B   10 (A) A    9 (A) B     -0.0061
     4 (A) A   7 (A) A    9 (A) A   19 (A) A     -0.0061
     5 (A) A             38 (A) A                 0.0060
     4 (A) A   6 (A) B   16 (A) A    9 (A) B     -0.0058
     4 (A) A   8 (A) A    9 (A) A   25 (A) A      0.0057
     6 (A) A   7 (A) A   19 (A) A   28 (A) A     -0.0056
     8 (A) A             12 (A) A                -0.0055
    -----------------------------------------------------

  Density matrix analysis:
  ------------------------
  NOs
    Occupation of frontier NOs:
       0.9560   1.0553
    Number of electrons: 16.000000
    Number of unpaired electrons: n_u =  2.35841, n_u,nl =  2.06491
    NO participation ratio (PR_NO):  3.045479
  
  
  Mulliken Population Analysis
  Atom      Charge (e)              h+              e-           Del q
  --------------------------------------------------------------------
   1 H        0.152651        0.122387       -0.024252        0.098135
   2 C       -0.310103        0.272592       -0.472770       -0.200179
   3 H        0.157446        0.127383       -0.025352        0.102031
   4 C       -0.310111        0.272610       -0.472787       -0.200177
   5 H        0.157458        0.127394       -0.025351        0.102043
   6 H        0.152659        0.122398       -0.024252        0.098146
  --------------------------------------------------------------------
  Sum:        0.000000        1.044763       -1.044763       -0.000000
  
  Multipole moment analysis of the density matrix
    Molecular charge:                      0.000000
    Number of electrons:                   16.000000
      Center of electronic charge [Ang]: [ -1.561337,  -0.065288,   0.002126]
    Total nuclear charge:                  16.000000
      Center of nuclear charge [Ang]:    [ -1.561339,  -0.065287,   0.002127]
    Dipole moment [D]:                     0.000204
      Cartesian components [D]:          [ -0.000136,   0.000123,   0.000090]
    RMS size of the density [Ang]:         1.205231
      Cartesian components [Ang]:        [  0.790315,   0.772468,   0.480913]
  
  Exciton analysis of the difference density matrix
    <r_h> [Ang]:                  [ -1.561368,  -0.065259,   0.002128]
    <r_e> [Ang]:                  [ -1.561343,  -0.065283,   0.002118]
    |<r_e - r_h>| [Ang]:            0.000036
    Hole size [Ang]:                1.496162
      Cartesian components [Ang]: [  1.005697,   1.009498,   0.456056]
    Electron size [Ang]:            1.480179
      Cartesian components [Ang]: [  0.882536,   0.864064,   0.815753]

  Transition density matrix analysis:
  -----------------------------------
  
  CT numbers (Mulliken)
    omega =     0.9214
    <Phe> =    -0.0114
  
  Exciton analysis of the transition density matrix
    Trans. dipole moment [D]:             0.000942
      Cartesian components [D]:         [  0.000693,  -0.000638,  -0.000005]
    <r_h> [Ang]:                        [ -1.561373,  -0.065254,   0.002130]
    <r_e> [Ang]:                        [ -1.561339,  -0.065286,   0.002116]
    |<r_e - r_h>| [Ang]:                  0.000049
    Hole size [Ang]:                      1.527091
      Cartesian components [Ang]:       [  1.029635,   1.035117,   0.447654]
    Electron size [Ang]:                  1.475590
      Cartesian components [Ang]:       [  0.871623,   0.852094,   0.831610]
    RMS electron-hole separation [Ang]:   2.103557
      Cartesian components [Ang]:       [  1.333049,   1.325678,   0.943668]
    Covariance(r_h, r_e) [Ang^2]:         0.042211
    Correlation coefficient:              0.018732
    Center-of-mass size [Ang]:            1.071657
      Cartesian components [Ang]:       [  0.682409,   0.677798,   0.472607]

  Decomposition into state-averaged NTOs
    H- 1 -> L+ 0: -0.6608 ( 87.3%)
    H- 0 -> L+ 2:  0.1512 (  4.6%)
                   omega =  92.1%
  ----------------------------------------------------------------------------


  Excited state 3 (singlet, A)                                     [converged]
  ----------------------------------------------------------------------------
  Term symbol:  4 (1) A                                     R^2 =  1.55056e-13

  Total energy:                                            -77.9841726736 a.u.
  Excitation energy:                                               9.141635 eV

  Osc. strength:                                                      0.023580
  Trans. dip. moment [a.u.]:           [   0.015404,    0.019670,   -0.323514]
  <i|r^2|0> [a.u.]:                    [   0.090678,    0.005053,    0.002607]
  Two-photon absorption cross-section (SoS) [a.u.]:                   0.000016
  Two-photon absorption matrix (SoS) [a.u.]:
                                       |   -0.001350   -0.000065   -0.000136 |
                                       |   -0.000065    0.001441    0.000049 |
                                       |   -0.000136    0.000049    0.000138 |
  Two-photon absorption cross-section [a.u.]:                         0.000009
  Two-photon absorption matrix [a.u.]:
                                       |   -0.000917   -0.000075   -0.000119 |
                                       |   -0.000075    0.001099    0.000053 |
                                       |   -0.000119    0.000053    0.000083 |

  Dip. moment [a.u.]:                  [   0.000009,    0.000024,   -0.000019]
  Total dipole [Debye]:                                               0.000082
  <r^2> [a.u.]:                        [ 181.344874,   41.052175,   11.057323]
  Total <r^2> [a.u.]:                                               233.454372

  V1^2 = 0.9580, V2^2 = 0.0420

  Important amplitudes:
      occ i     occ j     vir a      vir b          v   
    -----------------------------------------------------
     8 (A) A             10 (A) A                 0.6887
     8 (A) A             24 (A) A                 0.0508
     8 (A) A             18 (A) A                -0.0332
     4 (A) A              9 (A) A                 0.0247
     8 (A) A   8 (A) B    9 (A) A   12 (A) B     -0.0223
     8 (A) A   8 (A) B   10 (A) A   17 (A) B      0.0172
     5 (A) A   8 (A) B   11 (A) A   10 (A) B     -0.0169
     8 (A) A             15 (A) A                 0.0149
     7 (A) A   8 (A) B   13 (A) A   10 (A) B     -0.0143
     4 (A) A   8 (A) B   12 (A) A   10 (A) B     -0.0112
     6 (A) A   8 (A) A   10 (A) A   15 (A) A      0.0112
     7 (A) A   8 (A) B   22 (A) A   10 (A) B     -0.0109
     6 (A) A   8 (A) B   15 (A) A   10 (A) B     -0.0109
     4 (A) A   8 (A) A   10 (A) A   12 (A) A      0.0108
     7 (A) A   8 (A) A   10 (A) A   22 (A) A      0.0099
     7 (A) A   8 (A) A   10 (A) A   13 (A) A      0.0098
     5 (A) A   8 (A) A   10 (A) A   11 (A) A      0.0097
     5 (A) A   8 (A) B   21 (A) A   10 (A) B      0.0094
     6 (A) A   8 (A) B   10 (A) A   10 (A) B      0.0089
     6 (A) A   8 (A) A   10 (A) A   18 (A) A      0.0086
     7 (A) A   8 (A) A   12 (A) A   16 (A) A     -0.0083
     3 (A) A   4 (A) B   10 (A) A    9 (A) B     -0.0080
     5 (A) A   8 (A) A   10 (A) A   21 (A) A     -0.0079
     4 (A) A   8 (A) B   19 (A) A   10 (A) B     -0.0075
     8 (A) A   8 (A) B    9 (A) A   23 (A) B      0.0075
     8 (A) A   8 (A) B   10 (A) A   28 (A) B     -0.0074
     5 (A) A   8 (A) B   10 (A) A   11 (A) B     -0.0072
     7 (A) A   8 (A) B   16 (A) A   12 (A) B      0.0072
     3 (A) A   8 (A) A   10 (A) A   24 (A) A     -0.0072
     3 (A) A   8 (A) B   10 (A) A   10 (A) B      0.0071
     8 (A) A   8 (A) B    9 (A) A   19 (A) B     -0.0070
     3 (A) A   8 (A) B   10 (A) A   18 (A) B     -0.0068
     6 (A) A   8 (A) B   18 (A) A   10 (A) B     -0.0065
     3 (A) A   6 (A) B   10 (A) A   28 (A) B      0.0062
     7 (A) A   8 (A) B   12 (A) A   11 (A) B      0.0059
     6 (A) A             28 (A) A                -0.0058
     5 (A) A   8 (A) A   10 (A) A   16 (A) A      0.0057
     3 (A) A   5 (A) B   10 (A) A   25 (A) B     -0.0056
     4 (A) A   8 (A) A   10 (A) A   23 (A) A     -0.0055
     6 (A) A   8 (A) A   11 (A) A   16 (A) A     -0.0055
    -----------------------------------------------------

  Density matrix analysis:
  ------------------------
  NOs
    Occupation of frontier NOs:
       0.9812   0.9847
    Number of electrons: 16.000000
    Number of unpaired electrons: n_u =  2.28863, n_u,nl =  2.02504
    NO participation ratio (PR_NO):  2.701203
  
  
  Mulliken Population Analysis
  Atom      Charge (e)              h+              e-           Del q
  --------------------------------------------------------------------
   1 H       -0.155244        0.054222       -0.263981       -0.209759
   2 C        0.310183        0.538089       -0.117981        0.420108
   3 H       -0.154938        0.054482       -0.264835       -0.210353
   4 C        0.310175        0.538085       -0.117976        0.420109
   5 H       -0.154929        0.054482       -0.264826       -0.210343
   6 H       -0.155247        0.054222       -0.263983       -0.209760
  --------------------------------------------------------------------
  Sum:        0.000000        1.293582       -1.293582        0.000000
  
  Multipole moment analysis of the density matrix
    Molecular charge:                      0.000000
    Number of electrons:                   16.000000
      Center of electronic charge [Ang]: [ -1.561339,  -0.065287,   0.002128]
    Total nuclear charge:                  16.000000
      Center of nuclear charge [Ang]:    [ -1.561339,  -0.065287,   0.002127]
    Dipole moment [D]:                     0.000082
      Cartesian components [D]:          [  0.000023,   0.000061,  -0.000049]
    RMS size of the density [Ang]:         1.282116
      Cartesian components [Ang]:        [  0.857950,   0.845118,   0.439907]
  
  Exciton analysis of the difference density matrix
    <r_h> [Ang]:                  [ -1.561337,  -0.065288,   0.002122]
    <r_e> [Ang]:                  [ -1.561343,  -0.065298,   0.002137]
    |<r_e - r_h>| [Ang]:            0.000018
    Hole size [Ang]:                1.412898
      Cartesian components [Ang]: [  0.836209,   0.823027,   0.787185]
    Electron size [Ang]:            2.079244
      Cartesian components [Ang]: [  1.374885,   1.382332,   0.722566]

  Transition density matrix analysis:
  -----------------------------------
  
  CT numbers (Mulliken)
    omega =     0.9250
    <Phe> =    -0.0109
  
  Exciton analysis of the transition density matrix
    Trans. dipole moment [D]:             0.412369
      Cartesian components [D]:         [  0.019576,   0.024998,  -0.411145]
    <r_h> [Ang]:                        [ -1.561335,  -0.065289,   0.002118]
    <r_e> [Ang]:                        [ -1.561344,  -0.065302,   0.002140]
    |<r_e - r_h>| [Ang]:                  0.000027
    Hole size [Ang]:                      1.212751
      Cartesian components [Ang]:       [  0.636653,   0.623371,   0.822706]
    Electron size [Ang]:                  2.301773
      Cartesian components [Ang]:       [  1.520809,   1.531989,   0.798943]
    RMS electron-hole separation [Ang]:   2.591617
      Cartesian components [Ang]:       [  1.641038,   1.646823,   1.145183]
    Covariance(r_h, r_e) [Ang^2]:         0.026224
    Correlation coefficient:              0.009394
    Center-of-mass size [Ang]:            1.305888
      Cartesian components [Ang]:       [  0.828156,   0.830533,   0.574210]

  Decomposition into state-averaged NTOs
    H- 0 -> L+ 1:  0.6794 ( 92.3%)
                   omega =  92.5%
  ----------------------------------------------------------------------------


  Excited state 4 (singlet, A)                                     [converged]
  ----------------------------------------------------------------------------
  Term symbol:  5 (1) A                                     R^2 =  4.48082e-13

  Total energy:                                            -77.9622629076 a.u.
  Excitation energy:                                               9.737830 eV

  Osc. strength:                                                      0.000000
  Trans. dip. moment [a.u.]:           [   0.000162,   -0.000155,   -0.000000]
  <i|r^2|0> [a.u.]:                    [  -0.011863,   -0.019314,    0.032100]
  Two-photon absorption cross-section (SoS) [a.u.]:                 134.384942
  Two-photon absorption matrix (SoS) [a.u.]:
                                       |   -0.263549   -0.310352    2.720456 |
                                       |   -0.310352   -0.363938    3.000507 |
                                       |    2.720456    3.000507    0.627566 |
  Two-photon absorption cross-section [a.u.]:                        79.999691
  Two-photon absorption matrix [a.u.]:
                                       |   -0.202122   -0.239133    2.080049 |
                                       |   -0.239133   -0.282238    2.332076 |
                                       |    2.080049    2.332076    0.484438 |

  Dip. moment [a.u.]:                  [  -0.000014,   -0.000009,   -0.000021]
  Total dipole [Debye]:                                               0.000068
  <r^2> [a.u.]:                        [ 181.116609,   41.389636,   10.787340]
  Total <r^2> [a.u.]:                                               233.293585

  V1^2 = 0.9633, V2^2 = 0.0367

  Important amplitudes:
      occ i     occ j     vir a      vir b          v   
    -----------------------------------------------------
     8 (A) A             11 (A) A                -0.6684
     7 (A) A              9 (A) A                -0.1535
     8 (A) A             21 (A) A                 0.0778
     8 (A) A             16 (A) A                -0.0674
     8 (A) A             12 (A) A                 0.0197
     8 (A) A   8 (A) B    9 (A) A   13 (A) B     -0.0167
     5 (A) A   8 (A) B   11 (A) A   11 (A) B      0.0157
     7 (A) A             20 (A) A                -0.0140
     8 (A) A   8 (A) B   11 (A) A   17 (A) B     -0.0137
     7 (A) A   8 (A) B   13 (A) A   11 (A) B      0.0127
     4 (A) A   8 (A) B   12 (A) A   11 (A) B      0.0110
     8 (A) A   8 (A) B    9 (A) A   22 (A) B     -0.0110
     5 (A) A   8 (A) A   11 (A) A   21 (A) A      0.0109
     7 (A) A   8 (A) A   11 (A) A   22 (A) A     -0.0095
     6 (A) A   8 (A) B   10 (A) A   11 (A) B     -0.0091
     6 (A) A   8 (A) B   15 (A) A   11 (A) B      0.0089
     7 (A) A   8 (A) B   22 (A) A   11 (A) B      0.0089
     3 (A) A   4 (A) B   11 (A) A    9 (A) B      0.0083
     3 (A) A   8 (A) B   11 (A) A   18 (A) B      0.0080
     6 (A) A   8 (A) A   11 (A) A   15 (A) A     -0.0079
     7 (A) A   8 (A) A   13 (A) A   16 (A) A     -0.0079
     7 (A) A   8 (A) A   11 (A) A   13 (A) A     -0.0075
     4 (A) A   8 (A) B   19 (A) A   11 (A) B      0.0070
     5 (A) A   8 (A) B   21 (A) A   11 (A) B     -0.0069
     5 (A) A   8 (A) B    9 (A) A    9 (A) B      0.0069
     4 (A) A   8 (A) A   11 (A) A   12 (A) A     -0.0062
     3 (A) A   6 (A) B   11 (A) A   28 (A) B     -0.0060
     6 (A) A   8 (A) A   11 (A) A   18 (A) A     -0.0059
     6 (A) A   8 (A) B   18 (A) A   11 (A) B      0.0058
     7 (A) A   8 (A) B   16 (A) A   13 (A) B      0.0057
     3 (A) A   8 (A) B   11 (A) A   30 (A) B      0.0056
     5 (A) A   8 (A) B   10 (A) A   10 (A) B      0.0055
     8 (A) A   8 (A) B   20 (A) A   22 (A) B     -0.0055
     7 (A) A   8 (A) B   12 (A) A   10 (A) B     -0.0055
     6 (A) A   8 (A) B   11 (A) A   10 (A) B     -0.0054
     3 (A) A   5 (A) B   11 (A) A   25 (A) B      0.0054
     3 (A) A   8 (A) A   11 (A) A   18 (A) A      0.0054
     3 (A) A   8 (A) A   11 (A) A   24 (A) A      0.0053
     5 (A) A   8 (A) A   11 (A) A   16 (A) A     -0.0049
     6 (A) A   8 (A) A   10 (A) A   16 (A) A      0.0047
    -----------------------------------------------------

  Density matrix analysis:
  ------------------------
  NOs
    Occupation of frontier NOs:
       0.9386   1.0295
    Number of electrons: 16.000000
    Number of unpaired electrons: n_u =  2.32236, n_u,nl =  2.05110
    NO participation ratio (PR_NO):  2.933034
  
  
  Mulliken Population Analysis
  Atom      Charge (e)              h+              e-           Del q
  --------------------------------------------------------------------
   1 H       -0.113064        0.046166       -0.213745       -0.167579
   2 C        0.251005        0.495240       -0.134310        0.360930
   3 H       -0.137938        0.045876       -0.239229       -0.193354
   4 C        0.250991        0.495240       -0.134316        0.360925
   5 H       -0.137937        0.045876       -0.239228       -0.193352
   6 H       -0.113057        0.046167       -0.213737       -0.167570
  --------------------------------------------------------------------
  Sum:        0.000000        1.174565       -1.174565        0.000000
  
  Multipole moment analysis of the density matrix
    Molecular charge:                      -0.000000
    Number of electrons:                   16.000000
      Center of electronic charge [Ang]: [ -1.561338,  -0.065286,   0.002128]
    Total nuclear charge:                  16.000000
      Center of nuclear charge [Ang]:    [ -1.561339,  -0.065287,   0.002127]
    Dipole moment [D]:                     0.000068
      Cartesian components [D]:          [ -0.000036,  -0.000022,  -0.000054]
    RMS size of the density [Ang]:         1.281019
      Cartesian components [Ang]:        [  0.855620,   0.848605,   0.434503]
  
  Exciton analysis of the difference density matrix
    <r_h> [Ang]:                  [ -1.561338,  -0.065286,   0.002121]
    <r_e> [Ang]:                  [ -1.561334,  -0.065281,   0.002138]
    |<r_e - r_h>| [Ang]:            0.000018
    Hole size [Ang]:                1.394965
      Cartesian components [Ang]: [  0.818545,   0.807442,   0.789904]
    Electron size [Ang]:            2.114330
      Cartesian components [Ang]: [  1.388301,   1.445986,   0.672412]

  Transition density matrix analysis:
  -----------------------------------
  
  CT numbers (Mulliken)
    omega =     0.9293
    <Phe> =    -0.0146
  
  Exciton analysis of the transition density matrix
    Trans. dipole moment [D]:             0.000285
      Cartesian components [D]:         [  0.000206,  -0.000197,  -0.000000]
    <r_h> [Ang]:                        [ -1.561338,  -0.065286,   0.002119]
    <r_e> [Ang]:                        [ -1.561334,  -0.065279,   0.002140]
    |<r_e - r_h>| [Ang]:                  0.000023
    Hole size [Ang]:                      1.229203
      Cartesian components [Ang]:       [  0.662678,   0.648917,   0.806662]
    Electron size [Ang]:                  2.247893
      Cartesian components [Ang]:       [  1.474164,   1.540035,   0.712852]
    RMS electron-hole separation [Ang]:   2.550883
      Cartesian components [Ang]:       [  1.607596,   1.662777,   1.076018]
    Covariance(r_h, r_e) [Ang^2]:         0.028479
    Correlation coefficient:              0.010307
    Center-of-mass size [Ang]:            1.286557
      Cartesian components [Ang]:       [  0.812441,   0.839758,   0.538495]

  Decomposition into state-averaged NTOs
    H- 0 -> L+ 2: -0.6636 ( 88.1%)
    H- 1 -> L+ 0: -0.1514 (  4.6%)
                   omega =  92.9%
  ----------------------------------------------------------------------------


  Excited state 5 (singlet, A)                                     [converged]
  ----------------------------------------------------------------------------
  Term symbol:  6 (1) A                                     R^2 =  1.03059e-13

  Total energy:                                            -77.9467909012 a.u.
  Excitation energy:                                              10.158845 eV

  Osc. strength:                                                      0.000000
  Trans. dip. moment [a.u.]:           [   0.000035,    0.000020,   -0.000001]
  <i|r^2|0> [a.u.]:                    [  -0.082325,    0.095350,   -0.012878]
  Two-photon absorption cross-section (SoS) [a.u.]:                 223.682012
  Two-photon absorption matrix (SoS) [a.u.]:
                                       |   -0.378581   -0.068335    3.933783 |
                                       |   -0.068335    0.423450   -3.509777 |
                                       |    3.933783   -3.509777   -0.046357 |
  Two-photon absorption cross-section [a.u.]:                       115.529054
  Two-photon absorption matrix [a.u.]:
                                       |   -0.272500   -0.049283    2.825384 |
                                       |   -0.049283    0.303997   -2.524284 |
                                       |    2.825384   -2.524284   -0.033586 |

  Dip. moment [a.u.]:                  [   0.000030,   -0.000057,   -0.000003]
  Total dipole [Debye]:                                               0.000165
  <r^2> [a.u.]:                        [ 180.639084,   39.482838,   11.600147]
  Total <r^2> [a.u.]:                                               231.722070

  V1^2 = 0.9554, V2^2 = 0.0446

  Important amplitudes:
      occ i     occ j     vir a      vir b          v   
    -----------------------------------------------------
     8 (A) A             12 (A) A                 0.5695
[...]
    16   -1.433756792891e-03
    17   -1.732678366677e-03
    18    4.733171731969e-05
    19   -2.909954763667e-03
    20    1.131689314801e-02
    21    9.255688506542e-01
    22   -4.924375848343e-04
    23    1.365433245117e-02
    24    8.028070933978e-04
    25    7.035086584922e-02
    26   -5.224061245155e-02
    27   -1.383707394688e+00
    28    9.921489071835e-02
    29   -9.548825910976e-02
    30   -1.034381050395e-03
    31    3.846603635377e-01
    32   -3.659871278251e-01
    33   -3.754982592375e-03
    34    1.506769606947e-02
    35   -1.431453411552e-03
    36   -1.731461918052e-03
    37    4.716031225186e-05
    38   -2.909295197662e-03
    39    1.131359024606e-02
    40    9.255770999600e-01
    41    4.920542972303e-04
    42   -1.365416849090e-02
    43   -8.023577736452e-04
    44    1.169871546480e-02
    45    9.300426966375e-01
    46    1.381746868774e-02
    47    1.823840668294e-04
    48    6.726690785341e-04
Sym=X
Ene= 0.231028
Spin=Alpha
Occup=0
     1   -2.819206399592e-02
     2   -1.107792901015e+00
     3    1.212661430514e-02
     4    3.076096169944e-03
     5    7.685260018673e-04
     6    5.060429106123e-03
     7   -4.857587574565e-03
     8   -8.417165131207e-02
     9    1.505717826878e-01
    10    1.659269502711e-01
    11    1.726936409623e-02
    12    5.164281245794e-01
    13    5.690096285531e-01
    14    5.923205197341e-02
    15    1.117396037403e-03
    16   -2.024756268511e-04
    17   -7.103417335266e-05
    18   -1.368425133135e-03
    19   -6.880012005520e-04
    20    3.152464937636e-02
    21    1.224698961438e+00
    22    3.239386120141e-03
    23    1.390023423693e-02
    24    9.965909765204e-04
    25   -5.060854887194e-03
    26    4.857955880254e-03
    27    8.418052144089e-02
    28    1.505705646663e-01
    29    1.659320178152e-01
    30    1.724263951731e-02
    31    5.163952462379e-01
    32    5.689967796228e-01
    33    5.912257793851e-02
    34   -1.116997203786e-03
    35    2.039378140567e-04
    36    7.020728258113e-05
    37    1.366972213384e-03
    38    6.876420036862e-04
    39   -3.152530381487e-02
    40   -1.224666178034e+00
    41    3.239178528005e-03
    42    1.390008565490e-02
    43    9.951173096934e-04
    44    2.819147171091e-02
    45    1.107748228269e+00
    46    1.212665665096e-02
    47    3.075898973361e-03
    48    7.669952526549e-04
Sym=X
Ene= 0.236457
Spin=Alpha
Occup=0
     1    2.045873913945e-02
     2    1.141921804054e+00
     3   -1.676243325303e-02
     4   -9.367930003040e-03
     5   -1.370749843069e-03
     6    8.697517614173e-02
     7   -8.218508310686e-02
     8   -1.542758908115e+00
     9   -6.735231387781e-02
    10    4.677667193630e-02
    11   -4.051209496879e-04
    12   -2.728728057398e-01
    13    1.967446599222e-01
    14   -1.216490598646e-03
    15    2.125377483278e-02
    16   -2.513044771237e-03
    17   -2.861876689905e-03
    18    4.093243737915e-04
    19   -1.240730247183e-02
    20    1.801103553247e-02
    21    9.992655442311e-01
    22    8.271926426053e-03
    23    1.540225328404e-02
    24    1.328336197478e-03
    25   -8.697383849157e-02
    26    8.218157540284e-02
    27    1.542749361215e+00
    28   -6.735235529722e-02
    29    4.677958862873e-02
    30   -3.893339959082e-04
    31   -2.728680089119e-01
    32    1.967688009650e-01
    33   -1.151263010722e-03
    34   -2.125385846891e-02
    35    2.510627454849e-03
    36    2.862196604183e-03
    37   -4.102109150535e-04
    38    1.240689673712e-02
    39   -1.801029945234e-02
    40   -9.992810246766e-01
    41    8.272446820806e-03
    42    1.540246227573e-02
    43    1.328905420099e-03
    44   -2.045780064333e-02
    45   -1.141891545894e+00
    46   -1.676180811307e-02
    47   -9.368857699071e-03
    48   -1.369303862830e-03
Sym=X
Ene= 0.302960
Spin=Alpha
Occup=0
     1   -2.169572282436e-02
     2    1.663361853559e+00
     3   -2.354377910558e-02
     4    3.343068423002e-04
     5   -1.111846216259e-03
     6    6.607130840541e-05
     7   -6.182885182613e-05
     8   -1.040820448750e-02
     9   -1.355616073351e-01
    10   -1.427078541368e-01
    11   -1.513913945444e-02
    12   -1.125643957007e+00
    13   -1.182597034228e+00
    14   -1.255267544264e-01
    15    2.645190743376e-04
    16   -1.776171543276e-03
    17    1.937848677480e-03
    18   -3.406568890900e-02
    19   -1.981845999530e-03
    20    2.044131038792e-02
    21   -1.652312812083e+00
    22    1.671247577286e-03
    23   -2.340387603969e-02
    24   -1.333355009566e-03
    25    6.779738107089e-05
    26   -6.104642051830e-05
    27   -1.048606247268e-02
    28    1.355665558441e-01
    29    1.427124211159e-01
    30    1.512486481575e-02
    31    1.125617717880e+00
    32    1.182613431868e+00
    33    1.254776459685e-01
    34    2.663084813977e-04
    35   -1.773324588143e-03
    36    1.939145577045e-03
    37   -3.406419093640e-02
    38   -1.982929929343e-03
    39    2.043676614088e-02
    40   -1.652300283068e+00
    41   -1.672303446723e-03
    42    2.340322017574e-02
    43    1.332881620272e-03
    44   -2.169133599583e-02
    45    1.663396785555e+00
    46    2.354451075071e-02
    47   -3.345786822376e-04
    48    1.110116465979e-03
Sym=X
Ene= 0.462774
Spin=Alpha
Occup=0
     1   -1.126358827559e-01
     2   -7.064591368603e-01
     3   -1.489823430259e-02
     4   -1.045974212752e-02
     5   -1.348460833579e-03
     6    6.251503276212e-02
     7    1.658825925714e-02
     8   -3.641033514976e+00
     9    1.043631010426e-01
    10   -9.906806848393e-02
    11   -9.906272101692e-04
    12    2.438270213628e+00
    13   -2.305722168943e+00
    14   -2.202921340241e-02
    15    5.296924155861e-02
    16   -3.252552777137e-03
    17   -4.554223698227e-03
    18   -8.239967321284e-04
    19    2.013121568520e-02
    20   -1.162048616955e-01
    21   -6.911083266123e-01
    22    9.382346085422e-03
    23    1.552618254926e-02
    24    1.389111528892e-03
    25   -6.251612338774e-02
    26   -1.658103207818e-02
    27    3.641039072001e+00
    28    1.043768553981e-01
    29   -9.907704349812e-02
    30   -9.984346929665e-04
    31    2.438255009366e+00
    32   -2.305682306917e+00
    33   -2.206286539862e-02
    34   -5.296440767204e-02
    35    3.248029596054e-03
    36    4.548063674625e-03
    37    8.231028124505e-04
    38   -2.013741193217e-02
    39    1.161696948832e-01
    40    6.911332905924e-01
    41    9.381475165108e-03
    42    1.552538638837e-02
    43    1.387067557790e-03
    44    1.126056494574e-01
    45    7.064910789105e-01
    46   -1.489695280121e-02
    47   -1.045754320520e-02
    48   -1.346979586625e-03
Sym=X
Ene= 0.579809
Spin=Alpha
Occup=0
     1    2.370209615533e-01
     2    5.334575080080e-02
     3   -2.199347397429e-02
     4    2.673610392285e-02
     5    5.591043753757e-04
     6   -6.251367386991e-03
     7   -1.690053029523e-01
     8   -4.174054783890e-01
     9    3.053888408802e-01
    10   -2.903940389429e-01
    11   -2.859322299453e-03
    12   -7.509571861056e-01
    13    7.076902015956e-01
    14    6.694624724363e-03
    15   -1.982507217609e-03
    16    3.606459777147e-03
    17    3.333758049343e-03
    18   -3.869767322602e-03
    19    5.975010303928e-02
    20    2.385386576231e-01
    21    4.233737514647e-02
    22   -2.832871152648e-02
    23    2.072007793994e-02
    24   -1.087656082123e-04
    25   -6.259251989437e-03
    26   -1.690094431223e-01
    27   -4.170427421198e-01
    28   -3.053801432611e-01
    29    2.903760444438e-01
    30    2.857251461094e-03
    31    7.512324948180e-01
    32   -7.079083673249e-01
    33   -6.702346958037e-03
    34   -1.982103668985e-03
    35    3.606550844403e-03
    36    3.333144109728e-03
    37   -3.862473092967e-03
    38    5.975037589353e-02
    39    2.384939613738e-01
    40    4.246599964329e-02
    41    2.833566038999e-02
    42   -2.072589608718e-02
    43    1.078020627914e-04
    44    2.370449948683e-01
    45    5.343544714468e-02
    46    2.199210171194e-02
    47   -2.673645385605e-02
    48   -5.597943592439e-04
Sym=X
Ene= 0.608872
Spin=Alpha
Occup=0
     1   -5.186455132817e-01
     2    2.359635820683e-01
     3   -5.953913175842e-02
     4    3.689475736996e-02
     5   -6.297026467419e-04
     6   -2.919397972441e-05
     7   -1.778909943241e-03
     8   -6.481771245585e-03
     9   -3.632204428590e-02
    10   -3.686501363118e-02
    11   -3.967631602996e-03
    12    2.747520053360e-01
    13    2.619669978319e-01
    14    2.905190308065e-02
    15   -2.561158765499e-06
    16   -7.565596735516e-03
    17    8.641635729085e-03
    18   -1.486020247323e-01
    19   -7.251170837550e-03
    20    5.200627996757e-01
    21   -2.542612521306e-01
    22    4.022554775300e-02
    23   -5.749518742156e-02
    24   -1.540586353151e-03
    25    2.842305542710e-05
    26    1.782099225775e-03
    27    6.525190024988e-03
    28   -3.630903435688e-02
    29   -3.687991968868e-02
    30   -3.976124049646e-03
    31    2.747149376757e-01
    32    2.620336391963e-01
    33    2.899347458270e-02
    34    5.352691128007e-06
    35    7.558424420703e-03
    36   -8.647397988152e-03
    37    1.486105946742e-01
    38    7.248463191934e-03
    39   -5.201172745219e-01
    40    2.543033538351e-01
    41    4.021992336088e-02
    42   -5.749555266860e-02
    43   -1.544607658924e-03
    44    5.186350100255e-01
    45   -2.359990902521e-01
    46   -5.954076176765e-02
    47    3.689579226856e-02
    48   -6.295625421730e-04
Sym=X
Ene= 0.688652
Spin=Alpha
Occup=0
     1    4.520529005390e-05
     2    3.245294791135e-05
     3    9.274536658366e-04
     4    1.172527431959e-03
     5   -1.928765683735e-02
     6    2.454134908801e-06
     7   -2.478515701465e-06
     8    5.529329867432e-05
     9    3.221921974974e-02
    10    4.052890511144e-02
    11   -6.706317008090e-01
    12   -2.954854937052e-02
    13   -3.692744469210e-02
    14    6.126560868268e-01
    15   -1.297328701810e-03
    16    8.278448920267e-02
    17   -7.817099861303e-02
    18   -8.695412793252e-03
    19   -1.227455324548e-03
    20    3.950558458509e-05
    21    5.660678488170e-05
    22    8.761235791974e-04
    23    1.107315577160e-03
    24   -1.830876111428e-02
    25   -5.380275405664e-07
    26    3.258633545541e-05
    27   -7.759461759562e-05
    28    3.220135921668e-02
    29    4.049409606583e-02
    30   -6.706337066823e-01
    31   -2.951992111734e-02
    32   -3.688700343991e-02
    33    6.126575045485e-01
    34    1.285994489818e-03
    35   -8.278329468184e-02
    36    7.817223812497e-02
    37    8.704380000078e-03
    38    1.232150584861e-03
    39   -1.849536167904e-05
    40   -4.962555293917e-05
    41    8.740045657170e-04
    42    1.112273657517e-03
    43   -1.830784142267e-02
    44   -1.350597104224e-05
    45   -7.643628076829e-05
    46    9.171814217078e-04
    47    1.165782647003e-03
    48   -1.928891100315e-02
Sym=X
Ene= 0.704763
Spin=Alpha
Occup=0
     1   -4.851844701807e-01
     2    1.551977541011e-01
     3   -7.795878723717e-02
     4   -4.442858818072e-02
     5   -6.435258127247e-03
     6   -4.595707063209e-02
     7   -3.012982280589e-01
     8    4.637225430390e-01
     9    1.942846127415e-01
    10   -1.877816981724e-01
    11   -2.031150611521e-03
    12   -5.250445345133e-02
    13    6.041133168410e-02
    14    1.076762021281e-03
    15    1.911402708330e-01
    16   -2.045641378898e-02
    17   -2.407546862101e-02
    18    4.103864217059e-03
    19   -7.660276083281e-02
    20   -4.906868954644e-01
    21    1.724735321287e-01
    22    4.026423718309e-02
    23    8.039436671803e-02
    24    6.787052250653e-03
    25   -4.595144009195e-02
    26   -3.012989051681e-01
    27    4.634307961792e-01
    28   -1.942825036037e-01
    29    1.877844720127e-01
    30    1.990365964038e-03
    31    5.229645469713e-02
    32   -6.024940125611e-02
    33   -1.030865526382e-03
    34    1.911430730489e-01
    35   -2.044698917837e-02
    36   -2.406379138560e-02
    37    4.099324440120e-03
    38   -7.659293872961e-02
    39   -4.906600731870e-01
    40    1.724107232061e-01
    41   -4.026372123703e-02
    42   -8.039149738357e-02
    43   -6.784450326234e-03
    44   -4.851899119707e-01
    45    1.551283070445e-01
    46    7.795963494895e-02
    47    4.442712684425e-02
    48    6.429896342734e-03
Sym=X
Ene= 0.775731
Spin=Alpha
Occup=0
     1    5.379852374461e-01
     2   -4.669961358184e-01
     3    1.067911106154e-01
     4    2.577584521529e-02
     5    6.690137110470e-03
     6    8.893070808456e-02
     7   -2.266650999014e-01
     8   -5.668383512831e-01
     9    1.086878469357e-01
    10   -9.283684121410e-02
    11   -3.513782340791e-04
    12    2.828354399176e-01
    13   -2.913939703211e-01
    14   -4.047214840146e-03
    15   -2.032036240576e-01
    16    1.738987956428e-02
    17    2.187147988650e-02
    18   -1.728942832464e-03
    19    7.583961828227e-03
    20    5.394207748987e-01
    21   -4.942835437787e-01
    22   -2.154926039200e-02
    23   -1.098436797590e-01
    24   -7.672282231114e-03
    25   -8.893186410819e-02
    26    2.266671951963e-01
    27    5.668934588295e-01
    28    1.087071549657e-01
    29   -9.282824696088e-02
    30   -3.836172805978e-04
    31    2.827644154138e-01
    32   -2.913897314673e-01
    33   -3.974164375173e-03
    34    2.032103638189e-01
    35   -1.736625618230e-02
    36   -2.185937823342e-02
    37    1.734246173473e-03
    38   -7.582756842127e-03
    39   -5.394547099590e-01
    40    4.943031186263e-01
    41   -2.155040080247e-02
    42   -1.098472763463e-01
    43   -7.667217579253e-03
    44   -5.380037961604e-01
    45    4.669556590023e-01
    46    1.067864069493e-01
    47    2.578049310336e-02
    48    6.684187519849e-03
Sym=X
Ene= 0.807404
Spin=Alpha
Occup=0
     1    1.081983992369e-05
     2    3.041613840376e-05
     3    1.523526403390e-03
     4    1.922012519361e-03
     5   -3.184444163406e-02
     6    3.464533343112e-06
     7   -3.296767712601e-05
     8    1.701350337287e-05
     9    3.674916389799e-02
    10    4.617325086395e-02
    11   -7.642385462917e-01
    12   -5.406425421166e-02
    13   -6.794276317991e-02
    14    1.124362755258e+00
    15    1.018537759790e-03
    16   -6.551584122996e-02
    17    6.188169827454e-02
    18    6.876371312477e-03
    19    9.737044822058e-04
    20    1.230273868712e-05
    21   -4.347962078452e-05
    22    1.486085243906e-03
    23    1.871873701282e-03
    24   -3.101396556491e-02
    25   -4.478952001717e-07
    26   -2.471923865946e-05
    27    1.210728286947e-05
    28   -3.668399017033e-02
    29   -4.613901990701e-02
    30    7.642453686825e-01
    31    5.398643058040e-02
    32    6.785631010778e-02
    33   -1.124371892561e+00
    34    1.031945187374e-03
    35   -6.551545520680e-02
    36    6.187931738213e-02
    37    6.895511793723e-03
    38    9.791130749802e-04
    39   -9.796691397584e-06
    40    5.967907085412e-05
    41   -1.488125100944e-03
    42   -1.888083341940e-03
    43    3.100981606302e-02
    44   -7.613862469028e-06
    45   -1.454097589838e-05
    46   -1.522106869610e-03
    47   -1.929402404492e-03
    48    3.184364169136e-02
Sym=X
Ene= 0.858434
Spin=Alpha
Occup=0
     1    1.889099591880e-02
     2   -1.078379246146e+00
     3    1.476208010994e-01
     4    5.578390721049e-02
     5    1.045689315561e-02
     6    1.282633562020e-03
     7   -1.234512507625e-03
     8    5.985553270389e-03
     9   -4.070354865357e-01
    10   -4.373965083661e-01
    11   -4.601251474717e-02
    12    9.318131575293e-01
    13    9.908350080562e-01
    14    1.046970960779e-01
    15   -3.990647551104e-03
    16    1.200677690362e-02
    17   -1.302702025483e-02
    18    2.304462273922e-01
    19    1.029459595494e-02
    20   -9.682009757702e-03
    21    1.072827109982e+00
    22    4.890933609558e-02
    23    1.476115770968e-01
    24    1.127470808610e-02
    25   -1.282646330974e-03
    26    1.230409896513e-03
    27   -5.977866345274e-03
    28   -4.070461441187e-01
    29   -4.374171927960e-01
    30   -4.593314373793e-02
    31    9.318289614093e-01
    32    9.908861387601e-01
    33    1.045242844693e-01
    34    3.991413760253e-03
    35   -1.200616419352e-02
    36    1.302862349499e-02
    37   -2.304534449871e-01
    38   -1.029925424559e-02
    39    9.676173396231e-03
    40   -1.072834532196e+00
    41    4.890086193158e-02
    42    1.476158285795e-01
    43    1.127122449831e-02
    44   -1.888597235846e-02
    45    1.078382525011e+00
    46    1.476257936621e-01
    47    5.577920861556e-02
    48    1.044895626122e-02
Sym=X
Ene= 0.927997
Spin=Alpha
Occup=0
     1    1.419811152909e-01
     2   -1.222264149215e+00
     3    1.812991480622e-01
     4   -6.548040839813e-03
     5    8.321992750635e-03
     6    4.670614685327e-04
     7    1.865401471791e-02
     8   -2.770799071331e-02
     9   -4.713765755423e-01
    10   -5.009307925358e-01
    11   -5.291213773318e-02
    12    1.376491928731e+00
    13    1.460139404610e+00
    14    1.543503785522e-01
    15   -2.016976449765e-03
    16    6.527153903436e-03
    17   -7.133555757775e-03
    18    1.256537621085e-01
    19    5.277093017556e-03
    20   -1.414705286603e-01
    21    1.239750910651e+00
    22   -1.436018759758e-02
    23    1.834595496862e-01
    24    1.039109806527e-02
    25    4.691488600417e-04
    26    1.864872820617e-02
    27   -2.769722514413e-02
    28    4.713650532092e-01
    29    5.009308037742e-01
    30    5.288778812551e-02
    31   -1.376460198881e+00
    32   -1.460114580116e+00
    33   -1.542802670582e-01
    34   -2.026462890469e-03
    35    6.508819369272e-03
    36   -7.128607044187e-03
    37    1.256499441389e-01
    38    5.283242047357e-03
    39   -1.414614640344e-01
    40    1.239711677693e+00
    41    1.436824368200e-02
    42   -1.834511895016e-01
    43   -1.038629470853e-02
    44    1.419944090494e-01
    45   -1.222260147549e+00
    46   -1.812997938829e-01
    47    6.551333248837e-03
    48   -8.309978096584e-03
Sym=X
Ene= 0.970593
Spin=Alpha
Occup=0
     1   -6.061780291672e-02
     2    9.072787571401e-01
     3   -8.900040386278e-02
     4   -9.678785630700e-02
     5   -1.011495508810e-02
     6    2.706058815718e-02
     7    2.529090178299e-01
     8    5.138859512828e-01
     9    4.851537123172e-01
    10   -4.566038290480e-01
    11   -4.270588116971e-03
    12   -1.482336602244e+00
    13    1.392669026039e+00
    14    1.288802566416e-02
    15   -5.789705585476e-02
    16   -1.250714531506e-02
    17   -9.050934248284e-03
    18    1.294710314829e-02
    19   -2.964822107775e-01
    20   -5.892163363535e-02
    21    8.862360622095e-01
    22    9.196890160117e-02
    23    9.092937316366e-02
    24    9.918371018219e-03
    25   -2.705986899034e-02
    26   -2.528403587098e-01
    27   -5.139965510751e-01
    28    4.851507769777e-01
    29   -4.565983650700e-01
    30   -4.290260426652e-03
    31   -1.482330154638e+00
    32    1.392679644324e+00
    33    1.294386994025e-02
    34    5.789208811565e-02
    35    1.250653206179e-02
    36    9.053129408948e-03
    37   -1.294689889253e-02
    38    2.964694024902e-01
    39    5.892045701322e-02
    40   -8.862078695211e-01
    41    9.196323599127e-02
    42    9.092612158417e-02
    43    9.920046988376e-03
    44    6.062650336704e-02
    45   -9.072434461788e-01
    46   -8.899635787613e-02
    47   -9.678531016344e-02
    48   -1.010852266751e-02
[5D]

======= END OF MOLDEN-FORMATTED INPUT FILE =======


        *************************************************************
        *                                                           *
        *  Thank you very much for using Q-Chem.  Have a nice day.  *
        *                                                           *
        *************************************************************


