                  Welcome to Q-Chem
     A Quantum Leap Into The Future Of Chemistry


 Q-Chem 5.4 (devel), Q-Chem, Inc., Pleasanton, CA (2021)

 E. Epifanovsky,  A. T. B. Gilbert,  Xintian Feng,  Joonho Lee,  Yuezhi Mao,  
 N. Mardirossian,  P. Pokhilko,  A. White,  M. Wormit,  M. P. Coons,  
 A. L. Dempwolff,  Zhengting Gan,  D. Hait,  P. R. Horn,  L. D. Jacobson,  
 I. Kaliman,  J. Kussmann,  A. W. Lange,  Ka Un Lao,  D. S. Levine,  Jie Liu,  
 S. C. McKenzie,  A. F. Morrison,  K. Nanda,  F. Plasser,  D. R. Rehn,  
 M. L. Vidal,  Zhi-Qiang You,  Ying Zhu,  B. Alam,  B. Albrecht,  
 A. Aldossary,  E. Alguire,  J. H. Andersen,  D. Barton,  K. Begam,  A. Behn,  
 Y. A. Bernard,  E. J. Berquist,  H. Burton,  A. Carreras,  K. Carter-Fenk,  
 R. Chakraborty,  A. D. Chien,  K. D. Closser,  V. Cofer-Shabica,  
 S. Dasgupta,  Jia Deng,  M. de Wergifosse,  M. Diedenhofen,  Hainam Do,  
 S. Ehlert,  Po-Tung Fang,  S. Fatehi,  Qingguo Feng,  T. Friedhoff,  
 J. Gayvert,  Qinghui Ge,  G. Gidofalvi,  M. Goldey,  J. Gomes,  
 C. Gonzalez-Espinoza,  S. Gulania,  A. Gunina,  M. W. D. Hanson-Heine,  
 P. H. P. Harbach,  A. W. Hauser,  M. F. Herbst,  M. Hernandez Vera,  
 M. Hodecker,  Z. C. Holden,  S. Houck,  Xunkun Huang,  Kerwin Hui,  
 B. C. Huynh,  M. Ivanov,  Hyunjun Ji,  Hanjie Jiang,  B. Kaduk,  S. Kaehler,  
 K. Khistyaev,  Jaehoon Kim,  P. Klunzinger,  Z. Koczor-Benda,  
 Joong Hoon Koh,  D. Kosenkov,  L. Koulias,  T. Kowalczyk,  C. M. Krauter,  
 K. Kue,  A. Kunitsa,  T. Kus,  A. Landau,  K. V. Lawler,  D. Lefrancois,  
 S. Lehtola,  Rain Li,  Yi-Pei Li,  Jiashu Liang,  M. Liebenthal,  
 Hung-Hsuan Lin,  You-Sheng Lin,  Fenglai Liu,  Kuan-Yu Liu,  
 M. Loipersberger,  A. Luenser,  A. Manjanath,  P. Manohar,  E. Mansoor,  
 S. F. Manzer,  Shan-Ping Mao,  A. V. Marenich,  T. Markovich,  S. Mason,  
 S. A. Maurer,  P. F. McLaughlin,  M. F. S. J. Menger,  J.-M. Mewes,  
 S. A. Mewes,  P. Morgante,  J. W. Mullinax,  K. J. Oosterbaan,  G. Paran,  
 Alexander C. Paul,  Suranjan K. Paul,  F. Pavosevic,  Zheng Pei,  S. Prager,  
 E. I. Proynov,  E. Ramos,  B. Rana,  A. E. Rask,  A. Rettig,  R. M. Richard,  
 F. Rob,  E. Rossomme,  T. Scheele,  M. Scheurer,  M. Schneider,  
 N. Sergueev,  S. M. Sharada,  W. Skomorowski,  D. W. Small,  C. J. Stein,  
 Yu-Chuan Su,  E. J. Sundstrom,  Zhen Tao,  J. Thirman,  T. Tsuchimochi,  
 N. M. Tubman,  S. P. Veccham,  O. Vydrov,  J. Wenzel,  J. Witte,  A. Yamada,  
 Kun Yao,  S. Yeganeh,  S. R. Yost,  A. Zech,  Igor Ying Zhang,  Xing Zhang,  
 Yu Zhang,  D. Zuev,  A. Aspuru-Guzik,  A. T. Bell,  N. A. Besley,  
 K. B. Bravaya,  B. R. Brooks,  D. Casanova,  Jeng-Da Chai,  S. Coriani,  
 C. J. Cramer,  A. E. DePrince, III,  R. A. DiStasio Jr.,  A. Dreuw,  
 B. D. Dunietz,  T. R. Furlani,  W. A. Goddard III,  S. Grimme,  
 S. Hammes-Schiffer,  T. Head-Gordon,  W. J. Hehre,  Chao-Ping Hsu,  
 T.-C. Jagau,  Yousung Jung,  A. Klamt,  Jing Kong,  D. S. Lambrecht,  
 WanZhen Liang,  N. J. Mayhall,  C. W. McCurdy,  J. B. Neaton,  
 C. Ochsenfeld,  J. A. Parkhill,  R. Peverati,  V. A. Rassolov,  Yihan Shao,  
 L. V. Slipchenko,  T. Stauch,  R. P. Steele,  J. E. Subotnik,  
 A. J. W. Thom,  A. Tkatchenko,  D. G. Truhlar,  T. Van Voorhis,  
 T. A. Wesolowski,  K. B. Whaley,  H. L. Woodcock III,  P. M. Zimmerman,  
 S. Faraji,  P. M. W. Gill,  M. Head-Gordon,  J. M. Herbert,  A. I. Krylov

 Additional authors for Version 5.4.1: 
 S. Kotaru,  Shaozhi Li,  Xiangyuan Li,  F. Matz,  A. Molle,  Haisheng Ren,  
 Yingli Su,  Hung-Yi Tsai,  C. Utku,  Fang Wang

 Contributors to earlier versions of Q-Chem not listed above: 
 R. D. Adamson,  B. Austin,  R. Baer,  J. Baker,  G. J. O. Beran,  
 K. Brandhorst,  S. T. Brown,  E. F. C. Byrd,  A. K. Chakraborty,  
 G. K. L. Chan,  Chun-Min Chang,  Yunqing Chen,  C.-L. Cheng,  
 Siu Hung Chien,  D. M. Chipman,  D. L. Crittenden,  H. Dachsel,  
 R. J. Doerksen,  A. D. Dutoi,  R. G. Edgar,  J. Fosso-Tande,  
 L. Fusti-Molnar,  D. Ghosh,  A. Ghysels,  A. Golubeva-Zadorozhnaya,  
 J. Gonthier,  M. S. Gordon,  S. R. Gwaltney,  G. Hawkins,  J. E. Herr,  
 A. Heyden,  S. Hirata,  E. G. Hohenstein,  G. Kedziora,  F. J. Keil,  
 C. Kelley,  Jihan Kim,  R. A. King,  R. Z. Khaliullin,  P. P. Korambath,  
 W. Kurlancheek,  A. Laurent,  A. M. Lee,  M. S. Lee,  S. V. Levchenko,  
 Ching Yeh Lin,  D. Liotard,  E. Livshits,  R. C. Lochan,  I. Lotan,  
 L. A. Martinez-Martinez,  P. E. Maslen,  N. Nair,  D. P. O'Neill,  
 D. Neuhauser,  E. Neuscamman,  C. M. Oana,  R. Olivares-Amaya,  R. Olson,  
 T. M. Perrine,  B. Peters,  P. A. Pieniazek,  A. Prociuk,  Y. M. Rhee,  
 J. Ritchie,  M. A. Rohrdanz,  E. Rosta,  N. J. Russ,  H. F. Schaefer III,  
 M. W. Schmidt,  N. E. Schultz,  S. Sharma,  N. Shenvi,  C. D. Sherrill,  
 A. C. Simmonett,  A. Sodt,  T. Stein,  D. Stuck,  K. S. Thanthiriwatte,  
 V. Vanovschi,  L. Vogt,  Tao Wang,  A. Warshel,  M. A. Watson,  
 C. F. Williams,  Q. Wu,  X. Xu,  Jun Yang,  W. Zhang,  Yan Zhao

 Please cite Q-Chem as follows:
 Y. Shao et al., Mol. Phys. 113, 184-215 (2015)
 DOI: 10.1080/00268976.2014.952696

 Q-Chem 5.4.1 for Intel X86 EM64T Linux

 Parts of Q-Chem use Armadillo 9.800.1 (Horizon Scraper).
 http://arma.sourceforge.net/

 Q-Chem begins on Mon Mar 20 18:27:22 2023  

 Host: cpu186.baobab
0

     Scratch files written to /scratch/fum/qchem76911//
 Processing $rem in /home/share/wesolowski/qc5.aug2021.FDE/config/preferences:
 Processing $rem in /home/fum/.qchemrc:

 Checking the input file for inconsistencies... 	...done.

--------------------------------------------------------------
User input:
--------------------------------------------------------------
$comment
generated from CCJob.Templates
$end

$rem
sym_ignore = true
method = adc(2)
ee_states = 10
basis = cc-pVDZ
mem_static = 1024
mem_total = 40000
adc_davidson_maxiter = 900
adc_davidson_conv = 6
adc_print = 3
adc_prop_es = true
adc_prop_es2es = true
adc_prop_tpa = true
molden_format = True
state_analysis = true
print_orbitals = 15
gen_scfman = false
fde_export_density = true
fde_details = 3
$end

$molecule
0 1
H -0.031988859541691284 -0.2731701957877189 0.06725946610501413
C -1.124980844568142 -0.5708851528404417 -0.0027697405535315996
H -1.3274637506133578 -1.6036991562229868 -0.08024945946392116
C -2.0540962043244018 0.3870988758542262 0.006945000026473316
H -1.811592884157199 1.457715119502134 0.08445532495603922
H -3.107039157328926 0.12718487946665466 -0.06295478881286587                     
$end
--------------------------------------------------------------
 ----------------------------------------------------------------
             Standard Nuclear Orientation (Angstroms)
    I     Atom           X                Y                Z
 ----------------------------------------------------------------
    1      H      -0.0319888595    -0.2731701958     0.0672594661
    2      C      -1.1249808446    -0.5708851528    -0.0027697406
    3      H      -1.3274637506    -1.6036991562    -0.0802494595
    4      C      -2.0540962043     0.3870988759     0.0069450000
    5      H      -1.8115928842     1.4577151195     0.0844553250
    6      H      -3.1070391573     0.1271848795    -0.0629547888
 ----------------------------------------------------------------
 Nuclear Repulsion Energy =          33.20327881 hartrees
 There are        8 alpha and        8 beta electrons
 Requested basis set is cc-pVDZ
 There are 24 shells and 48 basis functions
 Total memory of 40000 MB is distributed as follows: 
   MEM_STATIC is set to 1024 MB
   QALLOC/CCMAN JOB total memory use is  38976 MB
 Warning: actual memory use might exceed 40000 MB

 Total QAlloc Memory Limit  40000 MB
 Mega-Array Size      1001 MB
 MEM_STATIC part      1024 MB

                       Distance Matrix (Angstroms)
             H (  1)   C (  2)   H (  3)   C (  4)   H (  5)
   C (  2)  1.134976
   H (  3)  1.862880  1.055323
   C (  4)  2.128030  1.334572  2.121055
   H (  5)  2.482589  2.143423  3.103831  1.100470
   H (  6)  3.103736  2.102256  2.482569  1.086798  1.862853

 A cutoff of  1.0D-11 yielded    300 shell pairs
 There are      1220 function pairs (      1329 Cartesian)
 Smallest overlap matrix eigenvalue = 4.82E-03

 Scale SEOQF with 1.000000e-01/1.000000e-01/1.000000e+00

 Standard Electronic Orientation quadrupole field applied
 Nucleus-field energy     =     0.0000000022 hartrees
 Guess from superposition of atomic densities
 Warning:  Energy on first SCF cycle will be non-variational
 SAD guess density has 16.000000 electrons
 A restricted Hartree-Fock SCF calculation will be
 performed using Pulay DIIS extrapolation
 SCF converges when DIIS error is below 1.0E-08
 using 10 threads for integral computing
 -------------------------------------------------------
 OpenMP Integral computing Module                
 Release: version 1.0, May 2013, Q-Chem Inc. Pittsburgh 
 -------------------------------------------------------
 ---------------------------------------
  Cycle       Energy         DIIS Error
 ---------------------------------------
    1     -78.3955490210      9.93E-02
    2     -78.0149699149      7.13E-03
    3     -78.0354682990      1.83E-03
    4     -78.0369480244      5.62E-04
    5     -78.0370650828      5.86E-05
    6     -78.0370669713      9.50E-06
    7     -78.0370670338      2.26E-06
    8     -78.0370670367      9.76E-07
    9     -78.0370670370      8.84E-08
   10     -78.0370670370      2.02E-08
   11     -78.0370670370      6.58E-09 Convergence criterion met
 ---------------------------------------
 SCF time:  CPU 2.40 s  wall 46.14 s
 SCF   energy in the final basis set = -78.03706704
 Total energy in the final basis set = -78.03706704
Exporting Density Matrix to file 'Densmat_SCF.txt'.
Export successful
================================================================================
|                                                                              |
|                                 A D C  M A N                                 |
|                                                                              |
 ------------------------------------------------------------------------------ 
|                                                                              |
| Components:                                                                  |
|                                                                              |
| - libvmm - 1.3-trunk                                                         |
|   Authors:                                                                   |
|   Evgeny Epifanovsky, Ilya Kaliman                                           |
|                                                                              |
| - libtensor - 2.5-trunk                                                      |
|   Authors:                                                                   |
|   Evgeny Epifanovsky, Michael Wormit, Dmitry Zuev, Sam Manzer,               |
|   Ilya Kaliman                                                               |
|                                                                              |
| - libwfa - 1.1-trunk                                                         |
|   Authors:                                                                   |
|   Felix Plasser, Stefanie Mewes (Baeppler), Benjamin Thomitzni,              |
|   Michael Wormit, Feng Chen, Anna I. Krylov, Pavel Pokhilko                  |
|                                                                              |
| - libadc - 1.1-trunk                                                         |
|   Authors:                                                                   |
|   Michael Wormit, Adrian L. Dempwolff, Philipp H. P. Harbach,                |
|   Caroline Krauter, Dirk Rehn, Matthias Schneider, Jan Wenzel                |
|                                                                              |
| - adcman - 2.6-trunk                                                         |
|   Authors:                                                                   |
|   Michael Wormit, Adrian L. Dempwolff, Philipp H. P. Harbach,                |
|   Caroline Krauter, Daniel Lefrancois, Jan-Michael Mewes, Dirk Rehn,         |
|   Matthias Schneider, Jan Wenzel, Andreas Dreuw                              |
|                                                                              |
| Authors of earlier versions of ADCMAN:                                       |
| Andreas Dreuw, Jan Hendrik Starcke, Dirk Rehn, Michael Wormit                |
|                                                                              |
================================================================================

 Created directory /scratch/fum/qchem76911/plots
  Import QC data ...  CPU 0.00 s  wall 0.00 s

 Alpha MOs, Restricted
 -- Occupied --                  
-11.239 -11.238  -1.030  -0.787  -0.635  -0.583  -0.498  -0.374
  1 A     2 A     3 A     4 A     5 A     6 A     7 A     8 A                  
 -- Virtual --                   
  0.168   0.202   0.231   0.236   0.302   0.462   0.580   0.609
  9 A    10 A    11 A    12 A    13 A    14 A    15 A    16 A                  
  0.689   0.705   0.774   0.807   0.859   0.926   0.972   1.007
 17 A    18 A    19 A    20 A    21 A    22 A    23 A    24 A                  
  1.130   1.232   1.244   1.261   1.293   1.591   1.727   1.745
 25 A    26 A    27 A    28 A    29 A    30 A    31 A    32 A                  
  1.810   1.849   1.852   1.904   1.951   1.983   2.223   2.246
 33 A    34 A    35 A    36 A    37 A    38 A    39 A    40 A                  
  2.358   2.422   2.495   2.615   2.665   2.822   3.098   3.380
 41 A    42 A    43 A    44 A    45 A    46 A    47 A    48 A                  

 Beta MOs, Restricted
 -- Occupied --                  
-11.239 -11.238  -1.030  -0.787  -0.635  -0.583  -0.498  -0.374
  1 A     2 A     3 A     4 A     5 A     6 A     7 A     8 A                  
 -- Virtual --                   
  0.168   0.202   0.231   0.236   0.302   0.462   0.580   0.609
  9 A    10 A    11 A    12 A    13 A    14 A    15 A    16 A                  
  0.689   0.705   0.774   0.807   0.859   0.926   0.972   1.007
 17 A    18 A    19 A    20 A    21 A    22 A    23 A    24 A                  
  1.130   1.232   1.244   1.261   1.293   1.591   1.727   1.745
 25 A    26 A    27 A    28 A    29 A    30 A    31 A    32 A                  
  1.810   1.849   1.852   1.904   1.951   1.983   2.223   2.246
 33 A    34 A    35 A    36 A    37 A    38 A    39 A    40 A                  
  2.358   2.422   2.495   2.615   2.665   2.822   3.098   3.380
 41 A    42 A    43 A    44 A    45 A    46 A    47 A    48 A                  
  Import AO data ...  CPU 0.00 s  wall 0.00 s
  Using point group: C1
  Irreducible representations in point group: A
  Molecular orbitals: 
  Occupied MOs:
  Block   0:   1 (  A) A   2 (  A) A   3 (  A) A   4 (  A) A   5 (  A) A
                  -11.24      -11.24       -1.03     -0.7872     -0.6354
               6 (  A) A   7 (  A) A   8 (  A) A
                 -0.5833     -0.4976     -0.3743
  Block   1:   1 (  A) B   2 (  A) B   3 (  A) B   4 (  A) B   5 (  A) B
                  -11.24      -11.24       -1.03     -0.7872     -0.6354
               6 (  A) B   7 (  A) B   8 (  A) B
                 -0.5833     -0.4976     -0.3743
  Virtual MOs:
  Block   0:   9 (  A) A  10 (  A) A  11 (  A) A  12 (  A) A  13 (  A) A
                  0.1675       0.202      0.2311      0.2364      0.3025
              14 (  A) A  15 (  A) A  16 (  A) A  17 (  A) A  18 (  A) A
                  0.4623      0.5802      0.6089      0.6886       0.705
              19 (  A) A  20 (  A) A  21 (  A) A  22 (  A) A
                  0.7745      0.8071      0.8588      0.9259
  Block   1:  23 (  A) A  24 (  A) A  25 (  A) A  26 (  A) A  27 (  A) A
                  0.9722       1.007        1.13       1.232       1.244
              28 (  A) A  29 (  A) A  30 (  A) A  31 (  A) A  32 (  A) A
                   1.261       1.293       1.591       1.727       1.745
              33 (  A) A  34 (  A) A  35 (  A) A  36 (  A) A
                    1.81       1.849       1.852       1.904
  Block   2:  37 (  A) A  38 (  A) A  39 (  A) A  40 (  A) A  41 (  A) A
                   1.951       1.983       2.223       2.246       2.358
              42 (  A) A  43 (  A) A  44 (  A) A  45 (  A) A  46 (  A) A
                   2.422       2.495       2.615       2.665       2.822
              47 (  A) A  48 (  A) A
                   3.098        3.38
  Block   3:   9 (  A) B  10 (  A) B  11 (  A) B  12 (  A) B  13 (  A) B
                  0.1675       0.202      0.2311      0.2364      0.3025
              14 (  A) B  15 (  A) B  16 (  A) B  17 (  A) B  18 (  A) B
                  0.4623      0.5802      0.6089      0.6886       0.705
              19 (  A) B  20 (  A) B  21 (  A) B  22 (  A) B
                  0.7745      0.8071      0.8588      0.9259
  Block   4:  23 (  A) B  24 (  A) B  25 (  A) B  26 (  A) B  27 (  A) B
                  0.9722       1.007        1.13       1.232       1.244
              28 (  A) B  29 (  A) B  30 (  A) B  31 (  A) B  32 (  A) B
                   1.261       1.293       1.591       1.727       1.745
              33 (  A) B  34 (  A) B  35 (  A) B  36 (  A) B
                    1.81       1.849       1.852       1.904
  Block   5:  37 (  A) B  38 (  A) B  39 (  A) B  40 (  A) B  41 (  A) B
                   1.951       1.983       2.223       2.246       2.358
              42 (  A) B  43 (  A) B  44 (  A) B  45 (  A) B  46 (  A) B
                   2.422       2.495       2.615       2.665       2.822
              47 (  A) B  48 (  A) B
                   3.098        3.38
  Import MO data ...  CPU 0.07 s  wall 0.02 s
  Import HF data ...  CPU 0.33 s  wall 0.13 s
  Import 2e integrals ...  CPU 0.97 s  wall 0.19 s

--------------------------------------------------------------------------------
                                   HF Summary                                   
--------------------------------------------------------------------------------
  Energy:                                                  -78.0370670370 a.u.
  Dip. moment [a.u.]:                  [  -0.011755,   -0.007544,   -0.003397]
  Total dipole [Debye]:                                               0.036536
  <r^2> [a.u.]:                        [ 179.185100,   36.272979,   11.687532]
  Total <r^2> [a.u.]:                                               227.145611
--------------------------------------------------------------------------------
  HF properties ...  CPU 0.03 s  wall 0.02 s
  MP(1) calculation ...  CPU 0.01 s  wall 0.01 s
  N^6 prerequesite intermediates ...  CPU 0.64 s  wall 0.10 s
  Difference density matrix of state mp2_gs printed to ASCII file 'State_mp2_gs_Difference.txt'
Exporting MP density matrix to file 'Densmat_MP.txt'.
Export successful
  Total density matrix of state mp2_gs printed to ASCII file 'State_mp2_gs_Total.txt'
Exporting MP density matrix to file 'Densmat_MP.txt'.
Export successful

--------------------------------------------------------------------------------
                                 MP(2) Summary                                  
--------------------------------------------------------------------------------
  MP energy contribution:                                   -0.2805968905 a.u.
  Total energy:                                            -78.3176639275 a.u.
  Dip. moment [a.u.]:                  [  -0.009236,   -0.005659,   -0.003123]
  Total dipole [Debye]:                                               0.028654
  <r^2> [a.u.]:                        [ 179.224645,   36.322551,   11.514009]
  Total <r^2> [a.u.]:                                               227.061206

  Density matrix analysis:
  ------------------------
  NOs
    Occupation of frontier NOs:
       0.0456   1.9379
    Number of electrons: 16.000000
    Number of unpaired electrons: n_u =  0.40781, n_u,nl =  0.04598
    NO participation ratio (PR_NO): 13.880131
  
  
  Mulliken Population Analysis
  Atom      Charge (e)              h+              e-           Del q
  --------------------------------------------------------------------
   1 H        0.058762        0.013887       -0.011327        0.002560
   2 C       -0.108251        0.094972       -0.100161       -0.005189
   3 H        0.047714        0.014235       -0.011311        0.002925
   4 C       -0.108663        0.094410       -0.099915       -0.005505
   5 H        0.058341        0.013669       -0.011364        0.002305
   6 H        0.052096        0.014155       -0.011250        0.002905
  --------------------------------------------------------------------
  Sum:        0.000000        0.245328       -0.245328        0.000000
  
  Multipole moment analysis of the density matrix
    Molecular charge:                      -0.000000
    Number of electrons:                   16.000000
      Center of electronic charge [Ang]: [ -1.584229,  -0.086981,   0.002201]
    Total nuclear charge:                  16.000000
      Center of nuclear charge [Ang]:    [ -1.584534,  -0.087168,   0.002098]
    Dipole moment [D]:                     0.028654
      Cartesian components [D]:          [ -0.023476,  -0.014384,  -0.007938]
    RMS size of the density [Ang]:         1.206907
      Cartesian components [Ang]:        [  0.791814,   0.792555,   0.448900]
  
  Exciton analysis of the difference density matrix
    <r_h> [Ang]:                  [ -1.577015,  -0.082571,   0.003212]
    <r_e> [Ang]:                  [ -1.582449,  -0.086636,   0.002621]
    |<r_e - r_h>| [Ang]:            0.006811
    Hole size [Ang]:                1.403052
      Cartesian components [Ang]: [  0.853506,   0.841526,   0.729325]
    Electron size [Ang]:            1.361749
      Cartesian components [Ang]: [  0.869739,   0.874107,   0.577799]
--------------------------------------------------------------------------------
  MP(2) calculation ...  CPU 0.32 s  wall 1.45 s
  Start ADC(2)-s ...  CPU 0.08 s  wall 0.04 s
  ADC(2) intermediates ...  CPU 0.04 s  wall 0.01 s
  Starting Davidson for singlet states of irrep A ... 
--------------------------------------------------------------------------------
   It NVec Conv  Avg. Norm  Max. Norm  Conv. states           Remark
--------------------------------------------------------------------------------
        10    0  1.329e-01  4.692e-01  0.4103 n n n n n n n n Guess.
    1   20    0  2.496e-02  1.335e-01  0.3258 n n n n n n n n 
    2   30    0  6.705e-03  4.011e-02  0.3210 n n n n n n n n 
    3   40    0  2.412e-03  1.827e-02  0.3206 n n n n n n n n 
    4   50    0  8.107e-04  6.723e-03  0.3205 n n n n n n n n 
    5   20    0  5.565e-04  5.061e-03  0.3205 n n n n n n n n Subspace collapsed.
    6   30    0  9.443e-04  9.314e-03  0.3205 n n n n n n n n 
    7   40    0  7.883e-04  7.807e-03  0.3205 n n n n n n n n 
    8   50    0  5.903e-04  5.869e-03  0.3205 n n n n n n n n 
    9   20    0  3.783e-04  3.762e-03  0.3205 n n n n n n n n Subspace collapsed.
   10   30    2  2.004e-04  1.990e-03  0.3205 n y n y n n n n 
   11   40    4  1.103e-04  1.097e-03  0.3205 n y y y y n n n 
   12   50    6  9.579e-05  9.551e-04  0.3205 y y y y y y n n 
   13   20    6  6.713e-05  6.697e-04  0.3205 y y y y y y n n Subspace collapsed.
   14   30    6  1.192e-04  1.190e-03  0.3205 y y y y y y n n 
   15   40    6  9.946e-05  9.938e-04  0.3205 y y y y y y n n 
   16   50    6  8.700e-05  8.695e-04  0.3205 y y y y y y n n 
   17   20    6  3.787e-05  3.785e-04  0.3205 y y y y y y n n Subspace collapsed.
   18   30    6  2.983e-05  2.981e-04  0.3205 y y y y y y n n 
   19   40    6  1.362e-05  1.361e-04  0.3205 y y y y y y n n 
   20   50    8  9.563e-06  9.558e-05  0.3205 y y y y y y y y 
   21   20    8  7.504e-06  7.501e-05  0.3205 y y y y y y y y Subspace collapsed.
   22   30    8  1.461e-05  1.461e-04  0.3205 y y y y y y y y 
   23   40    8  1.302e-05  1.302e-04  0.3205 y y y y y y y y 
   24   49    8  8.317e-06  8.316e-05  0.3205 y y y y y y y y 
   25   50    8  7.948e-06  7.946e-05  0.3205 y y y y y y y y 
   26   17    9  4.326e-06  4.325e-05  0.3205 y y y y y y y y Subspace collapsed.
   27   24    9  3.142e-06  3.141e-05  0.3205 y y y y y y y y 
   28   31    9  1.547e-06  1.547e-05  0.3205 y y y y y y y y 
   29   36    9  1.162e-06  1.162e-05  0.3205 y y y y y y y y 
   30   41    9  1.125e-06  1.125e-05  0.3205 y y y y y y y y 
   31   45    9  1.205e-06  1.205e-05  0.3205 y y y y y y y y 
   32   49    9  9.071e-07  9.070e-06  0.3205 y y y y y y y y 
   33   50    9  8.743e-07  8.743e-06  0.3205 y y y y y y y y 
   34   14    9  4.294e-07  4.294e-06  0.3205 y y y y y y y y Subspace collapsed.
   35   18    9  3.987e-07  3.987e-06  0.3205 y y y y y y y y 
   36   22    9  2.626e-07  2.626e-06  0.3205 y y y y y y y y 
   37   26    9  1.762e-07  1.762e-06  0.3205 y y y y y y y y 
   38   30    9  1.671e-07  1.671e-06  0.3205 y y y y y y y y 
   39   34    9  1.941e-07  1.941e-06  0.3205 y y y y y y y y 
   40   38    9  1.681e-07  1.681e-06  0.3205 y y y y y y y y 
   41   42    9  1.030e-07  1.030e-06  0.3205 y y y y y y y y 
   42   46   10  4.649e-08  4.649e-07  0.3205 y y y y y y y y Converged.
--------------------------------------------------------------------------------
  Davidson Summary: 
 ------------------------------------------------------------
  State  0: excitation energy =   0.3205 a.u.   (converged)
  State  1: excitation energy =   0.3266 a.u.   (converged)
  State  2: excitation energy =   0.3347 a.u.   (converged)
  State  3: excitation energy =   0.3586 a.u.   (converged)
  State  4: excitation energy =   0.3736 a.u.   (converged)
  State  5: excitation energy =   0.3873 a.u.   (converged)
  State  6: excitation energy =   0.4181 a.u.   (converged)
  State  7: excitation energy =   0.4430 a.u.   (converged)
  State  8: excitation energy =   0.4531 a.u.   (converged)
  State  9: excitation energy =   0.4574 a.u.   (converged)
 ------------------------------------------------------------

  Singlet states of irrep A ...  CPU 254.54 s  wall 79.67 s
  TDMs ...  CPU 2.16 s  wall 0.81 s
  SDMs ...  CPU 4.86 s  wall 1.47 s
  Starting TPA DIIS iterations ... 
------------------------------------ 
   It     Res. Norm  Remark
------------------------------------
                       Guess.
    1     4.206e+00  
    2     5.601e+00  
    3     1.078e+00  
    4     2.773e-01  
    5     6.606e-02  
    6     2.927e-02  
    7     8.598e-03  
    8     1.706e-03  
    9     6.355e-04  
   10     1.055e-04  
   11     3.582e-05  
   12     5.605e-06  
   13     2.044e-06  
   14     5.869e-07  Converged.
   ... Converged in 14 steps (norm: 5.86891e-07)
------------------------------------
  Starting TPA DIIS iterations ... 
------------------------------------ 
   It     Res. Norm  Remark
------------------------------------
                       Guess.
    1     4.406e+00  
    2     5.823e+00  
    3     1.052e+00  
    4     2.500e-01  
    5     6.523e-02  
    6     2.622e-02  
    7     8.236e-03  
    8     1.425e-03  
    9     5.562e-04  
   10     9.247e-05  
   11     2.943e-05  
   12     4.913e-06  
   13     1.933e-06  
   14     6.005e-07  Converged.
   ... Converged in 14 steps (norm: 6.00509e-07)
------------------------------------
  Starting TPA DIIS iterations ... 
------------------------------------ 
   It     Res. Norm  Remark
------------------------------------
                       Guess.
    1     6.878e-01  
    2     4.832e-01  
    3     1.694e-01  
    4     6.006e-02  
    5     1.897e-02  
    6     7.326e-03  
    7     1.561e-03  
    8     4.654e-04  
    9     3.036e-04  
   10     8.891e-05  
   11     4.527e-05  
   12     1.178e-05  
   13     6.991e-06  
   14     2.961e-06  
   15     9.036e-07  Converged.
   ... Converged in 15 steps (norm: 9.03616e-07)
------------------------------------
  Starting TPA DIIS iterations ... 
------------------------------------ 
   It     Res. Norm  Remark
------------------------------------
                       Guess.
    1     4.346e+00  
    2     5.853e+00  
    3     1.119e+00  
    4     2.929e-01  
    5     7.030e-02  
    6     3.134e-02  
    7     9.195e-03  
    8     1.825e-03  
    9     6.820e-04  
   10     1.136e-04  
   11     3.877e-05  
   12     6.095e-06  
   13     2.243e-06  
   14     6.412e-07  Converged.
   ... Converged in 14 steps (norm: 6.41249e-07)
------------------------------------
  Starting TPA DIIS iterations ... 
------------------------------------ 
   It     Res. Norm  Remark
------------------------------------
                       Guess.
    1     4.553e+00  
    2     6.085e+00  
    3     1.092e+00  
    4     2.640e-01  
    5     6.942e-02  
    6     2.803e-02  
    7     8.797e-03  
    8     1.521e-03  
    9     5.967e-04  
   10     9.947e-05  
   11     3.186e-05  
   12     5.350e-06  
   13     2.136e-06  
   14     6.616e-07  Converged.
   ... Converged in 14 steps (norm: 6.6158e-07)
------------------------------------
  Starting TPA DIIS iterations ... 
------------------------------------ 
   It     Res. Norm  Remark
------------------------------------
                       Guess.
    1     6.941e-01  
    2     4.922e-01  
    3     1.744e-01  
    4     6.389e-02  
    5     1.979e-02  
    6     7.662e-03  
    7     1.667e-03  
    8     4.951e-04  
    9     3.268e-04  
   10     9.823e-05  
   11     4.960e-05  
   12     1.306e-05  
   13     7.913e-06  
   14     3.425e-06  
   15     1.029e-06  
   16     2.626e-07  Converged.
   ... Converged in 16 steps (norm: 2.62586e-07)
------------------------------------
  Starting TPA DIIS iterations ... 
------------------------------------ 
   It     Res. Norm  Remark
------------------------------------
                       Guess.
    1     4.541e+00  
    2     6.209e+00  
    3     1.176e+00  
    4     3.154e-01  
    5     7.641e-02  
    6     3.433e-02  
    7     1.005e-02  
    8     1.996e-03  
    9     7.493e-04  
   10     1.253e-04  
   11     4.307e-05  
   12     6.813e-06  
   13     2.540e-06  
   14     7.217e-07  Converged.
   ... Converged in 14 steps (norm: 7.21717e-07)
------------------------------------
  Starting TPA DIIS iterations ... 
------------------------------------ 
   It     Res. Norm  Remark
------------------------------------
                       Guess.
    1     4.758e+00  
    2     6.455e+00  
    3     1.149e+00  
    4     2.841e-01  
    5     7.545e-02  
    6     3.064e-02  
    7     9.603e-03  
    8     1.660e-03  
    9     6.553e-04  
   10     1.096e-04  
   11     3.542e-05  
   12     5.992e-06  
   13     2.442e-06  
   14     7.537e-07  Converged.
   ... Converged in 14 steps (norm: 7.53721e-07)
------------------------------------
  Starting TPA DIIS iterations ... 
------------------------------------ 
   It     Res. Norm  Remark
------------------------------------
                       Guess.
    1     7.025e-01  
    2     5.044e-01  
    3     1.813e-01  
    4     6.947e-02  
    5     2.094e-02  
    6     8.139e-03  
    7     1.819e-03  
    8     5.381e-04  
    9     3.602e-04  
   10     1.121e-04  
   11     5.604e-05  
   12     1.500e-05  
   13     9.350e-06  
   14     4.158e-06  
   15     1.218e-06  
   16     3.033e-07  Converged.
   ... Converged in 16 steps (norm: 3.03267e-07)
------------------------------------
  Starting TPA DIIS iterations ... 
------------------------------------ 
   It     Res. Norm  Remark
------------------------------------
                       Guess.
    1     5.222e+00  
    2     7.483e+00  
    3     1.375e+00  
    4     3.989e-01  
    5     9.908e-02  
    6     4.559e-02  
    7     1.326e-02  
    8     2.634e-03  
    9     1.002e-03  
   10     1.694e-04  
   11     5.959e-05  
   12     9.590e-06  
   13     3.753e-06  
   14     1.046e-06  
   15     5.188e-07  Converged.
   ... Converged in 15 steps (norm: 5.18787e-07)
------------------------------------
  Starting TPA DIIS iterations ... 
------------------------------------ 
   It     Res. Norm  Remark
------------------------------------
                       Guess.
    1     5.472e+00  
    2     7.781e+00  
    3     1.345e+00  
    4     3.585e-01  
    5     9.781e-02  
    6     4.041e-02  
    7     1.260e-02  
    8     2.174e-03  
    9     8.761e-04  
   10     1.479e-04  
   11     4.927e-05  
   12     8.495e-06  
   13     3.721e-06  
   14     1.146e-06  
   15     6.934e-07  Converged.
   ... Converged in 15 steps (norm: 6.93396e-07)
------------------------------------
  Starting TPA DIIS iterations ... 
------------------------------------ 
   It     Res. Norm  Remark
------------------------------------
                       Guess.
    1     7.291e-01  
    2     5.446e-01  
    3     2.047e-01  
    4     9.082e-02  
    5     2.486e-02  
    6     9.866e-03  
    7     2.391e-03  
    8     7.029e-04  
    9     4.865e-04  
   10     1.684e-04  
   11     8.223e-05  
   12     2.341e-05  
   13     1.595e-05  
   14     7.495e-06  
   15     1.989e-06  
   16     4.897e-07  Converged.
   ... Converged in 16 steps (norm: 4.89669e-07)
------------------------------------
  Starting TPA DIIS iterations ... 
------------------------------------ 
   It     Res. Norm  Remark
------------------------------------
                       Guess.
    1     5.737e+00  
    2     8.480e+00  
    3     1.524e+00  
    4     4.671e-01  
    5     1.175e-01  
    6     5.491e-02  
    7     1.587e-02  
    8     3.154e-03  
    9     1.211e-03  
   10     2.059e-04  
   11     7.349e-05  
   12     1.195e-05  
   13     4.854e-06  
   14     1.344e-06  
   15     7.238e-07  Converged.
   ... Converged in 15 steps (norm: 7.23766e-07)
------------------------------------
  Starting TPA DIIS iterations ... 
------------------------------------ 
   It     Res. Norm  Remark
------------------------------------
                       Guess.
    1     6.010e+00  
    2     8.816e+00  
    3     1.491e+00  
    4     4.189e-01  
    5     1.160e-01  
    6     4.845e-02  
    7     1.504e-02  
    8     2.593e-03  
    9     1.059e-03  
   10     1.795e-04  
   11     6.114e-05  
   12     1.064e-05  
   13     4.921e-06  
   14     1.534e-06  
   15     9.729e-07  Converged.
   ... Converged in 15 steps (norm: 9.72926e-07)
------------------------------------
  Starting TPA DIIS iterations ... 
------------------------------------ 
   It     Res. Norm  Remark
------------------------------------
                       Guess.
    1     7.466e-01  
    2     5.728e-01  
    3     2.217e-01  
    4     1.088e-01  
    5     2.784e-02  
    6     1.123e-02  
    7     2.859e-03  
    8     8.446e-04  
    9     5.912e-04  
   10     2.189e-04  
   11     1.061e-04  
   12     3.170e-05  
   13     2.298e-05  
   14     1.079e-05  
   15     2.700e-06  
   16     6.810e-07  Converged.
   ... Converged in 16 steps (norm: 6.81015e-07)
------------------------------------
  Starting TPA DIIS iterations ... 
------------------------------------ 
   It     Res. Norm  Remark
------------------------------------
                       Guess.
    1     6.284e+00  
    2     9.570e+00  
    3     1.681e+00  
    4     5.438e-01  
    5     1.383e-01  
    6     6.552e-02  
    7     1.882e-02  
    8     3.740e-03  
    9     1.449e-03  
   10     2.474e-04  
   11     8.940e-05  
   12     1.467e-05  
   13     6.199e-06  
   14     1.723e-06  
   15     9.912e-07  Converged.
   ... Converged in 15 steps (norm: 9.91217e-07)
------------------------------------
  Starting TPA DIIS iterations ... 
------------------------------------ 
   It     Res. Norm  Remark
------------------------------------
                       Guess.
    1     6.584e+00  
    2     9.949e+00  
    3     1.647e+00  
    4     4.868e-01  
    5     1.364e-01  
    6     5.760e-02  
    7     1.779e-02  
    8     3.063e-03  
    9     1.268e-03  
   10     2.156e-04  
   11     7.504e-05  
   12     1.314e-05  
   13     6.431e-06  
   14     2.057e-06  
   15     1.338e-06  
   16     5.599e-07  Converged.
   ... Converged in 16 steps (norm: 5.59934e-07)
------------------------------------
  Starting TPA DIIS iterations ... 
------------------------------------ 
   It     Res. Norm  Remark
------------------------------------
                       Guess.
    1     7.635e-01  
    2     6.011e-01  
    3     2.393e-01  
    4     1.294e-01  
    5     3.106e-02  
    6     1.273e-02  
    7     3.386e-03  
    8     1.013e-03  
    9     7.108e-04  
   10     2.802e-04  
   11     1.354e-04  
   12     4.270e-05  
   13     3.282e-05  
   14     1.498e-05  
   15     3.611e-06  
   16     9.503e-07  Converged.
   ... Converged in 16 steps (norm: 9.50316e-07)
------------------------------------
  Starting TPA DIIS iterations ... 
------------------------------------ 
   It     Res. Norm  Remark
------------------------------------
                       Guess.
    1     7.875e+00  
    2     1.289e+01  
    3     2.131e+00  
    4     7.882e-01  
    5     2.046e-01  
    6     1.001e-01  
    7     2.826e-02  
    8     5.611e-03  
    9     2.222e-03  
   10     3.818e-04  
   11     1.404e-04  
   12     2.372e-05  
   13     1.111e-05  
   14     3.297e-06  
   15     2.091e-06  
   16     8.938e-07  Converged.
   ... Converged in 16 steps (norm: 8.93776e-07)
------------------------------------
  Starting TPA DIIS iterations ... 
------------------------------------ 
   It     Res. Norm  Remark
------------------------------------
                       Guess.
    1     8.247e+00  
    2     1.340e+01  
    3     2.091e+00  
    4     7.019e-01  
    5     2.014e-01  
    6     8.719e-02  
    7     2.654e-02  
    8     4.563e-03  
    9     1.949e-03  
   10     3.325e-04  
   11     1.219e-04  
   12     2.141e-05  
   13     1.225e-05  
   14     4.423e-06  
   15     2.819e-06  
   16     1.299e-06  
   17     6.410e-07  Converged.
   ... Converged in 17 steps (norm: 6.40995e-07)
------------------------------------
  Starting TPA DIIS iterations ... 
------------------------------------ 
   It     Res. Norm  Remark
------------------------------------
                       Guess.
    1     8.045e-01  
    2     6.758e-01  
    3     2.877e-01  
    4     1.964e-01  
    5     4.089e-02  
    6     1.723e-02  
    7     5.048e-03  
    8     1.607e-03  
    9     1.102e-03  
   10     5.000e-04  
   11     2.429e-04  
   12     8.926e-05  
   13     7.598e-05  
   14     3.082e-05  
   15     7.342e-06  
   16     2.262e-06  
   17     6.629e-07  Converged.
   ... Converged in 17 steps (norm: 6.62945e-07)
------------------------------------
  Starting TPA DIIS iterations ... 
------------------------------------ 
   It     Res. Norm  Remark
------------------------------------
                       Guess.
    1     9.698e+00  
    2     1.696e+01  
    3     2.632e+00  
    4     1.098e+00  
    5     2.895e-01  
    6     1.455e-01  
    7     4.039e-02  
    8     8.015e-03  
    9     3.236e-03  
   10     5.562e-04  
   11     2.043e-04  
   12     3.638e-05  
   13     1.856e-05  
   14     6.191e-06  
   15     4.127e-06  
   16     1.882e-06  
   17     1.041e-06  
   18     4.798e-07  Converged.
   ... Converged in 18 steps (norm: 4.79825e-07)
------------------------------------
  Starting TPA DIIS iterations ... 
------------------------------------ 
   It     Res. Norm  Remark
------------------------------------
                       Guess.
    1     1.015e+01  
    2     1.762e+01  
    3     2.588e+00  
    4     9.740e-01  
    5     2.845e-01  
    6     1.259e-01  
    7     3.773e-02  
    8     6.487e-03  
    9     2.849e-03  
   10     4.847e-04  
   11     1.850e-04  
   12     3.230e-05  
   13     2.156e-05  
   14     9.011e-06  
   15     5.376e-06  
   16     2.581e-06  
   17     1.119e-06  
   18     5.881e-07  Converged.
   ... Converged in 18 steps (norm: 5.88074e-07)
------------------------------------
  Starting TPA DIIS iterations ... 
------------------------------------ 
   It     Res. Norm  Remark
------------------------------------
                       Guess.
    1     8.415e-01  
    2     7.510e-01  
    3     3.391e-01  
    4     2.795e-01  
    5     5.295e-02  
    6     2.230e-02  
    7     7.104e-03  
    8     2.452e-03  
    9     1.620e-03  
   10     8.174e-04  
   11     4.040e-04  
   12     1.667e-04  
   13     1.461e-04  
   14     5.490e-05  
   15     1.385e-05  
   16     4.750e-06  
   17     1.229e-06  
   18     4.336e-07  Converged.
   ... Converged in 18 steps (norm: 4.3356e-07)
------------------------------------
  Starting TPA DIIS iterations ... 
------------------------------------ 
   It     Res. Norm  Remark
------------------------------------
                       Guess.
    1     1.064e+01  
    2     1.915e+01  
    3     2.885e+00  
    4     1.267e+00  
    5     3.364e-01  
    6     1.710e-01  
    7     4.710e-02  
    8     9.347e-03  
    9     3.805e-03  
   10     6.531e-04  
   11     2.395e-04  
   12     4.403e-05  
   13     2.311e-05  
   14     8.177e-06  
   15     5.589e-06  
   16     2.584e-06  
   17     1.350e-06  
   18     6.357e-07  Converged.
   ... Converged in 18 steps (norm: 6.35737e-07)
------------------------------------
  Starting TPA DIIS iterations ... 
------------------------------------ 
   It     Res. Norm  Remark
------------------------------------
                       Guess.
    1     1.113e+01  
    2     1.990e+01  
    3     2.839e+00  
    4     1.122e+00  
    5     3.304e-01  
    6     1.476e-01  
    7     4.391e-02  
    8     7.552e-03  
    9     3.356e-03  
   10     5.693e-04  
   11     2.209e-04  
   12     3.839e-05  
   13     2.739e-05  
   14     1.219e-05  
   15     7.118e-06  
   16     3.463e-06  
   17     1.415e-06  
   18     7.218e-07  Converged.
   ... Converged in 18 steps (norm: 7.21833e-07)
------------------------------------
  Starting TPA DIIS iterations ... 
------------------------------------ 
   It     Res. Norm  Remark
------------------------------------
                       Guess.
    1     8.576e-01  
    2     7.866e-01  
    3     3.641e-01  
    4     3.221e-01  
    5     5.941e-02  
    6     2.477e-02  
    7     8.199e-03  
    8     2.942e-03  
    9     1.912e-03  
   10     1.003e-03  
   11     5.013e-04  
   12     2.136e-04  
   13     1.874e-04  
   14     6.940e-05  
   15     1.819e-05  
   16     6.342e-06  
   17     1.606e-06  
   18     5.745e-07  Converged.
   ... Converged in 18 steps (norm: 5.74548e-07)
------------------------------------
  Starting TPA DIIS iterations ... 
------------------------------------ 
   It     Res. Norm  Remark
------------------------------------
                       Guess.
    1     1.108e+01  
    2     2.020e+01  
    3     3.003e+00  
    4     1.348e+00  
    5     3.592e-01  
    6     1.834e-01  
    7     5.035e-02  
    8     9.993e-03  
    9     4.082e-03  
   10     7.001e-04  
   11     2.566e-04  
   12     4.791e-05  
   13     2.541e-05  
   14     9.227e-06  
   15     6.377e-06  
   16     2.966e-06  
   17     1.512e-06  
   18     7.145e-07  Converged.
   ... Converged in 18 steps (norm: 7.14478e-07)
------------------------------------
  Starting TPA DIIS iterations ... 
------------------------------------ 
   It     Res. Norm  Remark
------------------------------------
                       Guess.
    1     1.159e+01  
    2     2.099e+01  
    3     2.956e+00  
    4     1.194e+00  
    5     3.525e-01  
    6     1.581e-01  
    7     4.691e-02  
    8     8.070e-03  
    9     3.604e-03  
   10     6.103e-04  
   11     2.384e-04  
   12     4.136e-05  
   13     3.037e-05  
   14     1.386e-05  
   15     8.051e-06  
   16     3.945e-06  
   17     1.570e-06  
   18     7.802e-07  Converged.
   ... Converged in 18 steps (norm: 7.8018e-07)
------------------------------------
  Starting TPA DIIS iterations ... 
------------------------------------ 
   It     Res. Norm  Remark
------------------------------------
                       Guess.
    1     8.647e-01  
    2     8.028e-01  
    3     3.756e-01  
    4     3.418e-01  
    5     6.250e-02  
    6     2.589e-02  
    7     8.720e-03  
    8     3.183e-03  
    9     2.056e-03  
   10     1.094e-03  
   11     5.502e-04  
   12     2.370e-04  
   13     2.075e-04  
   14     7.668e-05  
   15     2.046e-05  
   16     7.142e-06  
   17     1.802e-06  
   18     6.461e-07  Converged.
   ... Converged in 18 steps (norm: 6.46142e-07)
------------------------------------
  Two-photon absorbption ...  CPU 176.52 s  wall 47.56 s
  Transition density matrix of state singlet_A_1 printed to ASCII file 'State_singlet_A_1_Transition.txt'
  Transition density matrix of state singlet_A_2 printed to ASCII file 'State_singlet_A_2_Transition.txt'
  Transition density matrix of state singlet_A_3 printed to ASCII file 'State_singlet_A_3_Transition.txt'
  Transition density matrix of state singlet_A_4 printed to ASCII file 'State_singlet_A_4_Transition.txt'
  Transition density matrix of state singlet_A_5 printed to ASCII file 'State_singlet_A_5_Transition.txt'
  Transition density matrix of state singlet_A_6 printed to ASCII file 'State_singlet_A_6_Transition.txt'
  Transition density matrix of state singlet_A_7 printed to ASCII file 'State_singlet_A_7_Transition.txt'
  Transition density matrix of state singlet_A_8 printed to ASCII file 'State_singlet_A_8_Transition.txt'
  Transition density matrix of state singlet_A_9 printed to ASCII file 'State_singlet_A_9_Transition.txt'
  Transition density matrix of state singlet_A_10 printed to ASCII file 'State_singlet_A_10_Transition.txt'
  Transition properties ...  CPU 0.36 s  wall 0.56 s
  Difference density matrix of state singlet_A_1 printed to ASCII file 'State_singlet_A_1_Difference.txt'
  Total density matrix of state singlet_A_1 printed to ASCII file 'State_singlet_A_1_Total.txt'
  Difference density matrix of state singlet_A_2 printed to ASCII file 'State_singlet_A_2_Difference.txt'
  Total density matrix of state singlet_A_2 printed to ASCII file 'State_singlet_A_2_Total.txt'
  Difference density matrix of state singlet_A_3 printed to ASCII file 'State_singlet_A_3_Difference.txt'
  Total density matrix of state singlet_A_3 printed to ASCII file 'State_singlet_A_3_Total.txt'
  Difference density matrix of state singlet_A_4 printed to ASCII file 'State_singlet_A_4_Difference.txt'
  Total density matrix of state singlet_A_4 printed to ASCII file 'State_singlet_A_4_Total.txt'
  Difference density matrix of state singlet_A_5 printed to ASCII file 'State_singlet_A_5_Difference.txt'
  Total density matrix of state singlet_A_5 printed to ASCII file 'State_singlet_A_5_Total.txt'
  Difference density matrix of state singlet_A_6 printed to ASCII file 'State_singlet_A_6_Difference.txt'
  Total density matrix of state singlet_A_6 printed to ASCII file 'State_singlet_A_6_Total.txt'
  Difference density matrix of state singlet_A_7 printed to ASCII file 'State_singlet_A_7_Difference.txt'
  Total density matrix of state singlet_A_7 printed to ASCII file 'State_singlet_A_7_Total.txt'
  Difference density matrix of state singlet_A_8 printed to ASCII file 'State_singlet_A_8_Difference.txt'
  Total density matrix of state singlet_A_8 printed to ASCII file 'State_singlet_A_8_Total.txt'
  Difference density matrix of state singlet_A_9 printed to ASCII file 'State_singlet_A_9_Difference.txt'
  Total density matrix of state singlet_A_9 printed to ASCII file 'State_singlet_A_9_Total.txt'
  Difference density matrix of state singlet_A_10 printed to ASCII file 'State_singlet_A_10_Difference.txt'
  Total density matrix of state singlet_A_10 printed to ASCII file 'State_singlet_A_10_Total.txt'
  Properties ...  CPU 0.70 s  wall 1.00 s
  ISR TDMS ...  CPU 32.47 s  wall 10.07 s
  ISR transition properties ...  CPU 1.35 s  wall 0.47 s
  Sum-over-states TPA ...  CPU 0.00 s  wall 0.00 s

--------------------------------------------------------------------------------
                   State-averaged natural transition orbitals
--------------------------------------------------------------------------------
--------------------------------------------------------------------------------
  SA-NTO decomposition ...  CPU 0.01 s  wall 0.06 s

--------------------------------------------------------------------------------
                             Excited State Summary
--------------------------------------------------------------------------------
--------------------------------------------------------------------------------

  Excited state 1 (singlet, A)                                     [converged]
  ----------------------------------------------------------------------------
  Term symbol:  2 (1) A                                     R^2 =  4.54149e-13

  Total energy:                                            -77.9971288017 a.u.
  Excitation energy:                                               8.722204 eV

  Osc. strength:                                                      0.446400
  Trans. dip. moment [a.u.]:           [  -1.026816,    1.017149,    0.008003]
  <i|r^2|0> [a.u.]:                    [  -6.099854,    0.295909,   -0.000742]
  Two-photon absorption cross-section (SoS) [a.u.]:                   0.056008
  Two-photon absorption matrix (SoS) [a.u.]:
                                       |    0.098188    0.019356    0.002033 |
                                       |    0.019356   -0.044098   -0.001720 |
                                       |    0.002033   -0.001720    0.003226 |
  Two-photon absorption cross-section [a.u.]:                         0.055779
  Two-photon absorption matrix [a.u.]:
                                       |    0.089093    0.012736    0.000109 |
                                       |    0.012736   -0.074511   -0.000886 |
                                       |    0.000109   -0.000886    0.001380 |

  Dip. moment [a.u.]:                  [  -0.007373,   -0.004065,   -0.003453]
  Total dipole [Debye]:                                               0.023130
  <r^2> [a.u.]:                        [ 179.923777,   37.068480,   11.922691]
  Total <r^2> [a.u.]:                                               228.914949

  V1^2 = 0.9713, V2^2 = 0.0287

  Important amplitudes:
      occ i     occ j     vir a      vir b          v   
    -----------------------------------------------------
     8 (A) A              9 (A) A                -0.6808
     6 (A) A             14 (A) A                -0.0612
     4 (A) A             10 (A) A                -0.0607
     7 (A) A             16 (A) A                -0.0566
     5 (A) A             13 (A) A                -0.0521
     6 (A) A             23 (A) A                -0.0456
     8 (A) A             20 (A) A                -0.0349
     6 (A) A             19 (A) A                -0.0291
     3 (A) A             12 (A) A                 0.0284
     5 (A) A             22 (A) A                -0.0197
     7 (A) A             11 (A) A                -0.0191
     4 (A) A             24 (A) A                -0.0186
     8 (A) A   8 (A) B   17 (A) A   20 (A) B      0.0184
     8 (A) A   8 (A) B    9 (A) A   28 (A) B     -0.0166
     7 (A) A             21 (A) A                 0.0159
     3 (A) A             26 (A) A                 0.0153
     3 (A) A             14 (A) A                 0.0143
     6 (A) A             26 (A) A                -0.0142
     6 (A) A             22 (A) A                -0.0139
     6 (A) A             12 (A) A                 0.0135
     3 (A) A   4 (A) B    9 (A) A    9 (A) B      0.0129
     3 (A) A             19 (A) A                 0.0119
     8 (A) A   8 (A) B   18 (A) A   19 (A) B     -0.0109
     3 (A) A             27 (A) A                -0.0106
     5 (A) A             23 (A) A                 0.0100
     7 (A) A             32 (A) A                 0.0095
     6 (A) A             13 (A) A                -0.0094
     7 (A) A             10 (A) A                 0.0087
     7 (A) A             36 (A) A                -0.0084
     6 (A) A             16 (A) A                 0.0083
     5 (A) A             10 (A) A                 0.0080
     3 (A) A             23 (A) A                 0.0078
     6 (A) A             27 (A) A                 0.0078
     5 (A) A             14 (A) A                 0.0077
     8 (A) A   8 (A) B   25 (A) A   29 (A) B      0.0074
     7 (A) A             23 (A) A                -0.0070
     6 (A) A             40 (A) A                 0.0065
     3 (A) A   6 (A) B    9 (A) A   28 (A) B      0.0063
     7 (A) A             14 (A) A                -0.0061
     5 (A) A             27 (A) A                -0.0061
    -----------------------------------------------------

  Density matrix analysis:
  ------------------------
  NOs
    Occupation of frontier NOs:
       0.9488   1.0222
    Number of electrons: 16.000000
    Number of unpaired electrons: n_u =  2.31703, n_u,nl =  2.03347
    NO participation ratio (PR_NO):  2.876382
  
  
  Mulliken Population Analysis
  Atom      Charge (e)              h+              e-           Del q
  --------------------------------------------------------------------
   1 H        0.066533        0.020464       -0.012693        0.007771
   2 C       -0.123904        0.490564       -0.506217       -0.015654
   3 H        0.055735        0.020381       -0.012360        0.008021
   4 C       -0.124629        0.490375       -0.506341       -0.015966
   5 H        0.066949        0.020799       -0.012190        0.008608
   6 H        0.059316        0.019942       -0.012722        0.007220
  --------------------------------------------------------------------
  Sum:        0.000000        1.062524       -1.062524       -0.000000
  
  Multipole moment analysis of the density matrix
    Molecular charge:                      -0.000000
    Number of electrons:                   16.000000
      Center of electronic charge [Ang]: [ -1.584290,  -0.087033,   0.002212]
    Total nuclear charge:                  16.000000
      Center of nuclear charge [Ang]:    [ -1.584534,  -0.087168,   0.002098]
    Dipole moment [D]:                     0.023130
      Cartesian components [D]:          [ -0.018741,  -0.010332,  -0.008776]
    RMS size of the density [Ang]:         1.220190
      Cartesian components [Ang]:        [  0.799382,   0.800743,   0.456797]
  
  Exciton analysis of the difference density matrix
    <r_h> [Ang]:                  [ -1.587378,  -0.090124,   0.002990]
    <r_e> [Ang]:                  [ -1.588305,  -0.090918,   0.003154]
    |<r_e - r_h>| [Ang]:            0.001232
    Hole size [Ang]:                1.287443
      Cartesian components [Ang]: [  0.720262,   0.725158,   0.782865]
    Electron size [Ang]:            1.463889
      Cartesian components [Ang]: [  0.836712,   0.849883,   0.848872]

  Transition density matrix analysis:
  -----------------------------------
  
  CT numbers (Mulliken)
    omega =     0.9531
    <Phe> =    -0.1604
  
  Exciton analysis of the transition density matrix
    Trans. dipole moment [D]:             1.836844
      Cartesian components [D]:         [ -1.304953,   1.292668,   0.010171]
    <r_h> [Ang]:                        [ -1.588359,  -0.091284,   0.002645]
    <r_e> [Ang]:                        [ -1.587869,  -0.090614,   0.003391]
    |<r_e - r_h>| [Ang]:                  0.001117
    Hole size [Ang]:                      1.214839
      Cartesian components [Ang]:       [  0.641062,   0.646991,   0.803913]
    Electron size [Ang]:                  1.486588
      Cartesian components [Ang]:       [  0.846173,   0.859629,   0.868892]
    RMS electron-hole separation [Ang]:   1.937138
      Cartesian components [Ang]:       [  1.081932,   1.101718,   1.169678]
    Covariance(r_h, r_e) [Ang^2]:        -0.033364
    Correlation coefficient:             -0.018474
    Center-of-mass size [Ang]:            0.951190
      Cartesian components [Ang]:       [  0.520423,   0.524723,   0.598822]

  Decomposition into state-averaged NTOs
    H- 0 -> L+ 0:  0.6695 ( 89.7%)
    H- 2 -> L+ 5:  0.0827 (  1.4%)
                   omega =  95.3%
  ----------------------------------------------------------------------------


  Excited state 2 (singlet, A)                                     [converged]
  ----------------------------------------------------------------------------
  Term symbol:  3 (1) A                                     R^2 =  3.27185e-13

  Total energy:                                            -77.9910217792 a.u.
  Excitation energy:                                               8.888385 eV

  Osc. strength:                                                      0.001523
  Trans. dip. moment [a.u.]:           [  -0.004394,   -0.007323,    0.083205]
  <i|r^2|0> [a.u.]:                    [   0.062126,    0.058075,   -0.149463]
  Two-photon absorption cross-section (SoS) [a.u.]:                   5.107748
  Two-photon absorption matrix (SoS) [a.u.]:
                                       |    0.080741    0.061600   -0.602942 |
                                       |    0.061600    0.061097   -0.508490 |
                                       |   -0.602942   -0.508490   -0.121153 |
  Two-photon absorption cross-section [a.u.]:                         0.523370
  Two-photon absorption matrix [a.u.]:
                                       |    0.006092   -0.013602    0.250173 |
                                       |   -0.013602   -0.015044   -0.047625 |
                                       |    0.250173   -0.047625    0.020743 |

  Dip. moment [a.u.]:                  [  -0.062700,   -0.082187,   -0.013007]
  Total dipole [Debye]:                                               0.264819
  <r^2> [a.u.]:                        [ 177.771196,   36.234018,   13.082892]
  Total <r^2> [a.u.]:                                               227.088106

  V1^2 = 0.9545, V2^2 = 0.0455

  Important amplitudes:
      occ i     occ j     vir a      vir b          v   
    -----------------------------------------------------
     7 (A) A              9 (A) A                 0.6502
     8 (A) A             10 (A) A                -0.1583
     8 (A) A             11 (A) A                 0.1474
     7 (A) A             20 (A) A                 0.0738
     5 (A) A   8 (A) B    9 (A) A    9 (A) B      0.0299
     8 (A) A             16 (A) A                -0.0292
     8 (A) A             21 (A) A                -0.0192
     6 (A) A              9 (A) A                 0.0177
     5 (A) A             28 (A) A                -0.0139
     4 (A) A   7 (A) B    9 (A) A   19 (A) B      0.0130
     5 (A) A   7 (A) B    9 (A) A   16 (A) B     -0.0126
     7 (A) A   8 (A) B   20 (A) A   17 (A) B     -0.0102
     7 (A) A   8 (A) A    9 (A) A   28 (A) A     -0.0092
     5 (A) A   8 (A) B    9 (A) A   20 (A) B      0.0090
     8 (A) A             24 (A) A                -0.0089
     5 (A) A   6 (A) A    9 (A) A   14 (A) A     -0.0085
     8 (A) A             18 (A) A                 0.0084
     5 (A) A   6 (A) A    9 (A) A   23 (A) A     -0.0084
     4 (A) A   6 (A) B    9 (A) A   16 (A) B      0.0084
     8 (A) A   7 (A) B    9 (A) A   28 (A) B      0.0083
     3 (A) A              9 (A) A                -0.0081
     4 (A) A   5 (A) A    9 (A) A   10 (A) A      0.0080
     3 (A) A   7 (A) B    9 (A) A   18 (A) B      0.0077
     5 (A) A   6 (A) B    9 (A) A   19 (A) B     -0.0077
     6 (A) A   7 (A) B    9 (A) A   18 (A) B      0.0076
     5 (A) A   7 (A) A    9 (A) A   16 (A) A     -0.0074
     4 (A) A   8 (A) B    9 (A) A   25 (A) B      0.0073
     7 (A) A   8 (A) B   17 (A) A   20 (A) B     -0.0072
     5 (A) A   6 (A) B    9 (A) A   23 (A) B     -0.0072
     4 (A) A   7 (A) B   19 (A) A    9 (A) B      0.0071
     7 (A) A   8 (A) B   19 (A) A   18 (A) B      0.0069
     5 (A) A   5 (A) B    9 (A) A   13 (A) B     -0.0068
     5 (A) A   8 (A) A    9 (A) A   20 (A) A      0.0065
     4 (A) A   5 (A) B    9 (A) A   18 (A) B     -0.0065
     7 (A) A   8 (A) B   17 (A) A    9 (A) B     -0.0063
     7 (A) A   7 (A) B   20 (A) A   22 (A) B      0.0062
     5 (A) A   6 (A) B    9 (A) A   14 (A) B     -0.0060
     8 (A) A             19 (A) A                -0.0060
     4 (A) A   7 (A) A    9 (A) A   19 (A) A      0.0059
     5 (A) A   7 (A) B   11 (A) A   20 (A) B      0.0059
    -----------------------------------------------------

  Density matrix analysis:
  ------------------------
  NOs
    Occupation of frontier NOs:
       0.9060   1.1031
    Number of electrons: 16.000000
    Number of unpaired electrons: n_u =  2.35725, n_u,nl =  2.10408
    NO participation ratio (PR_NO):  3.336197
  
  
  Mulliken Population Analysis
  Atom      Charge (e)              h+              e-           Del q
  --------------------------------------------------------------------
   1 H        0.149069        0.158389       -0.068083        0.090307
   2 C       -0.270572        0.284719       -0.447040       -0.162321
   3 H        0.123996        0.084064       -0.007782        0.076282
   4 C       -0.278914        0.270522       -0.440773       -0.170251
   5 H        0.104477        0.099995       -0.053859        0.046135
   6 H        0.171944        0.129477       -0.009629        0.119848
  --------------------------------------------------------------------
  Sum:        0.000000        1.027165       -1.027165        0.000000
  
  Multipole moment analysis of the density matrix
    Molecular charge:                      0.000000
    Number of electrons:                   16.000000
      Center of electronic charge [Ang]: [ -1.582460,  -0.084450,   0.002528]
    Total nuclear charge:                  16.000000
      Center of nuclear charge [Ang]:    [ -1.584534,  -0.087168,   0.002098]
    Dipole moment [D]:                     0.264819
      Cartesian components [D]:          [ -0.159367,  -0.208898,  -0.033062]
    RMS size of the density [Ang]:         1.209598
      Cartesian components [Ang]:        [  0.779187,   0.791851,   0.478506]
  
  Exciton analysis of the difference density matrix
    <r_h> [Ang]:                  [ -1.524305,  -0.066671,   0.006239]
    <r_e> [Ang]:                  [ -1.496762,  -0.027246,   0.011331]
    |<r_e - r_h>| [Ang]:            0.048363
    Hole size [Ang]:                1.492192
      Cartesian components [Ang]: [  1.077133,   0.910673,   0.486928]
    Electron size [Ang]:            1.523416
      Cartesian components [Ang]: [  0.920425,   0.899384,   0.815305]

  Transition density matrix analysis:
  -----------------------------------
  
  CT numbers (Mulliken)
    omega =     0.9215
    <Phe> =    -0.0108
  
  Exciton analysis of the transition density matrix
    Trans. dipole moment [D]:             0.106298
      Cartesian components [D]:         [ -0.005584,  -0.009306,   0.105743]
    <r_h> [Ang]:                        [ -1.521393,  -0.067042,   0.006068]
    <r_e> [Ang]:                        [ -1.497081,  -0.025317,   0.011726]
    |<r_e - r_h>| [Ang]:                  0.048621
    Hole size [Ang]:                      1.507595
      Cartesian components [Ang]:       [  1.099179,   0.915486,   0.475957]
    Electron size [Ang]:                  1.522563
      Cartesian components [Ang]:       [  0.912694,   0.895472,   0.826630]
    RMS electron-hole separation [Ang]:   2.127968
      Cartesian components [Ang]:       [  1.418263,   1.268277,   0.953022]
    Covariance(r_h, r_e) [Ang^2]:         0.032579
    Correlation coefficient:              0.014193
    Center-of-mass size [Ang]:            1.078911
      Cartesian components [Ang]:       [  0.719641,   0.646758,   0.477359]

  Decomposition into state-averaged NTOs
    H- 1 -> L+ 0: -0.6426 ( 82.6%)
    H- 0 -> L+ 2: -0.1673 (  5.6%)
    H- 0 -> L+ 1: -0.1341 (  3.6%)
                   omega =  92.1%
  ----------------------------------------------------------------------------


  Excited state 3 (singlet, A)                                     [converged]
  ----------------------------------------------------------------------------
  Term symbol:  4 (1) A                                     R^2 =  2.70905e-13

  Total energy:                                            -77.9830060521 a.u.
  Excitation energy:                                               9.106504 eV

  Osc. strength:                                                      0.019870
  Trans. dip. moment [a.u.]:           [   0.009963,    0.022944,   -0.297380]
  <i|r^2|0> [a.u.]:                    [   0.079848,    0.019716,   -0.027455]
  Two-photon absorption cross-section (SoS) [a.u.]:                   1.562325
  Two-photon absorption matrix (SoS) [a.u.]:
                                       |   -0.040746   -0.033227    0.280400 |
                                       |   -0.033227   -0.036629    0.335563 |
                                       |    0.280400    0.335563    0.050592 |
  Two-photon absorption cross-section [a.u.]:                         1.333179
  Two-photon absorption matrix [a.u.]:
                                       |   -0.050687   -0.028146    0.327077 |
                                       |   -0.028146   -0.034065    0.235460 |
                                       |    0.327077    0.235460    0.050548 |

  Dip. moment [a.u.]:                  [  -0.490279,   -0.439836,   -0.049379]
  Total dipole [Debye]:                                               1.678838
  <r^2> [a.u.]:                        [ 181.555014,   41.235659,   11.179596]
  Total <r^2> [a.u.]:                                               233.970269

  V1^2 = 0.9580, V2^2 = 0.0420

  Important amplitudes:
      occ i     occ j     vir a      vir b          v   
    -----------------------------------------------------
     8 (A) A             10 (A) A                 0.6650
     7 (A) A              9 (A) A                 0.1714
     8 (A) A             24 (A) A                 0.0469
     8 (A) A             11 (A) A                -0.0461
     8 (A) A             18 (A) A                -0.0316
     4 (A) A              9 (A) A                 0.0249
     8 (A) A   8 (A) B    9 (A) A   12 (A) B     -0.0211
     7 (A) A             20 (A) A                 0.0186
     8 (A) A   8 (A) B   10 (A) A   17 (A) B      0.0164
     8 (A) A             21 (A) A                 0.0161
     5 (A) A   8 (A) B   11 (A) A   10 (A) B     -0.0157
     8 (A) A             13 (A) A                -0.0145
     8 (A) A             15 (A) A                 0.0140
     7 (A) A   8 (A) B   13 (A) A   10 (A) B     -0.0136
     8 (A) A             16 (A) A                 0.0134
     4 (A) A   8 (A) B   12 (A) A   10 (A) B     -0.0107
     6 (A) A   8 (A) A   10 (A) A   15 (A) A      0.0103
     4 (A) A   8 (A) A   10 (A) A   12 (A) A      0.0102
     7 (A) A   8 (A) B   22 (A) A   10 (A) B     -0.0101
     6 (A) A   8 (A) B   15 (A) A   10 (A) B     -0.0101
     7 (A) A   8 (A) A   10 (A) A   22 (A) A      0.0094
     7 (A) A   8 (A) A   10 (A) A   13 (A) A      0.0093
     5 (A) A   8 (A) A   10 (A) A   11 (A) A      0.0092
     6 (A) A   8 (A) B   10 (A) A   10 (A) B      0.0091
     5 (A) A   8 (A) B   21 (A) A   10 (A) B      0.0087
     6 (A) A   8 (A) A   10 (A) A   18 (A) A      0.0082
     5 (A) A   8 (A) B    9 (A) A    9 (A) B      0.0081
     7 (A) A   8 (A) A   12 (A) A   16 (A) A     -0.0079
     8 (A) A             22 (A) A                -0.0078
     3 (A) A   4 (A) B   10 (A) A    9 (A) B     -0.0078
     6 (A) A              9 (A) A                 0.0077
     5 (A) A   8 (A) A   10 (A) A   21 (A) A     -0.0075
     4 (A) A   8 (A) B   19 (A) A   10 (A) B     -0.0071
     8 (A) A   8 (A) B   10 (A) A   28 (A) B      0.0069
     8 (A) A   8 (A) B    9 (A) A   19 (A) B     -0.0068
     3 (A) A   8 (A) B   10 (A) A   10 (A) B      0.0068
     8 (A) A   8 (A) B    9 (A) A   23 (A) B      0.0068
     7 (A) A   8 (A) B   16 (A) A   12 (A) B      0.0067
     3 (A) A   8 (A) A   10 (A) A   24 (A) A     -0.0067
     5 (A) A   8 (A) B   10 (A) A   11 (A) B     -0.0065
    -----------------------------------------------------

  Density matrix analysis:
  ------------------------
  NOs
    Occupation of frontier NOs:
       0.9239   1.0417
    Number of electrons: 16.000000
    Number of unpaired electrons: n_u =  2.32971, n_u,nl =  2.06349
    NO participation ratio (PR_NO):  3.026932
  
  
  Mulliken Population Analysis
  Atom      Charge (e)              h+              e-           Del q
  --------------------------------------------------------------------
   1 H       -0.206771        0.059871       -0.325404       -0.265533
   2 C        0.261238        0.498544       -0.129056        0.369488
   3 H       -0.065199        0.056225       -0.169137       -0.112913
   4 C        0.265786        0.495141       -0.120692        0.374449
   5 H       -0.195869        0.054600       -0.308810       -0.254210
   6 H       -0.059185        0.061893       -0.173175       -0.111282
  --------------------------------------------------------------------
  Sum:        0.000000        1.226274       -1.226274       -0.000000
  
  Multipole moment analysis of the density matrix
    Molecular charge:                      -0.000000
    Number of electrons:                   16.000000
      Center of electronic charge [Ang]: [ -1.568319,  -0.072621,   0.003731]
    Total nuclear charge:                  16.000000
      Center of nuclear charge [Ang]:    [ -1.584534,  -0.087168,   0.002098]
    Dipole moment [D]:                     1.678837
      Cartesian components [D]:          [ -1.246164,  -1.117952,  -0.125510]
    RMS size of the density [Ang]:         1.276709
      Cartesian components [Ang]:        [  0.847297,   0.846418,   0.442322]
  
  Exciton analysis of the difference density matrix
    <r_h> [Ang]:                  [ -1.577946,  -0.081554,   0.003443]
    <r_e> [Ang]:                  [ -1.370361,   0.105807,   0.023404]
    |<r_e - r_h>| [Ang]:            0.280347
    Hole size [Ang]:                1.429719
      Cartesian components [Ang]: [  0.851850,   0.839468,   0.783416]
    Electron size [Ang]:            2.056399
      Cartesian components [Ang]: [  1.367417,   1.349854,   0.732693]

  Transition density matrix analysis:
  -----------------------------------
  
  CT numbers (Mulliken)
    omega =     0.9248
    <Phe> =    -0.0128
  
  Exciton analysis of the transition density matrix
    Trans. dipole moment [D]:             0.379267
      Cartesian components [D]:         [  0.012662,   0.029159,  -0.377932]
    <r_h> [Ang]:                        [ -1.596247,  -0.096231,   0.002153]
    <r_e> [Ang]:                        [ -1.311639,   0.157751,   0.029150]
    |<r_e - r_h>| [Ang]:                  0.382410
    Hole size [Ang]:                      1.235519
      Cartesian components [Ang]:       [  0.670516,   0.657004,   0.803281]
    Electron size [Ang]:                  2.217377
      Cartesian components [Ang]:       [  1.474812,   1.452737,   0.794509]
    RMS electron-hole separation [Ang]:   2.555052
      Cartesian components [Ang]:       [  1.635810,   1.605790,   1.128650]
    Covariance(r_h, r_e) [Ang^2]:         0.030608
    Correlation coefficient:              0.011172
    Center-of-mass size [Ang]:            1.275194
      Cartesian components [Ang]:       [  0.814624,   0.801583,   0.565661]

  Decomposition into state-averaged NTOs
    H- 0 -> L+ 1:  0.6431 ( 82.7%)
    H- 1 -> L+ 0: -0.1695 (  5.7%)
    H- 0 -> L+ 2:  0.1379 (  3.8%)
                   omega =  92.5%
  ----------------------------------------------------------------------------


  Excited state 4 (singlet, A)                                     [converged]
  ----------------------------------------------------------------------------
  Term symbol:  5 (1) A                                     R^2 =  3.83945e-13

  Total energy:                                            -77.9590145042 a.u.
  Excitation energy:                                               9.759347 eV

  Osc. strength:                                                      0.002575
  Trans. dip. moment [a.u.]:           [   0.005543,    0.006404,   -0.103437]
  <i|r^2|0> [a.u.]:                    [   0.048880,    0.025388,   -0.037441]
  Two-photon absorption cross-section (SoS) [a.u.]:                 129.432138
  Two-photon absorption matrix (SoS) [a.u.]:
                                       |    0.329962    0.314031   -2.882973 |
                                       |    0.314031    0.313865   -2.731460 |
                                       |   -2.882973   -2.731460   -0.639217 |
  Two-photon absorption cross-section [a.u.]:                        79.330967
  Two-photon absorption matrix [a.u.]:
                                       |    0.284241    0.249965   -2.350845 |
                                       |    0.249965    0.212943   -2.034963 |
                                       |   -2.350845   -2.034963   -0.496536 |

  Dip. moment [a.u.]:                  [   0.682552,    0.575317,    0.073235]
  Total dipole [Debye]:                                               2.276576
  <r^2> [a.u.]:                        [ 190.055568,   41.338431,   10.804449]
  Total <r^2> [a.u.]:                                               242.198448

  V1^2 = 0.9631, V2^2 = 0.0369

  Important amplitudes:
      occ i     occ j     vir a      vir b          v   
    -----------------------------------------------------
     8 (A) A             11 (A) A                 0.6679
     7 (A) A              9 (A) A                -0.1333
     8 (A) A             10 (A) A                 0.0822
     8 (A) A             21 (A) A                -0.0749
     8 (A) A             16 (A) A                -0.0646
     8 (A) A   8 (A) B    9 (A) A   13 (A) B     -0.0163
     5 (A) A   8 (A) B   11 (A) A   11 (A) B     -0.0160
     6 (A) A              9 (A) A                -0.0152
     8 (A) A             24 (A) A                 0.0150
     8 (A) A   8 (A) B   11 (A) A   17 (A) B      0.0139
     7 (A) A   8 (A) B   13 (A) A   11 (A) B     -0.0126
     7 (A) A             20 (A) A                -0.0120
     8 (A) A             14 (A) A                 0.0112
     4 (A) A   8 (A) B   12 (A) A   11 (A) B     -0.0110
     5 (A) A   8 (A) A   11 (A) A   21 (A) A     -0.0107
     8 (A) A             19 (A) A                -0.0106
     8 (A) A   8 (A) B    9 (A) A   22 (A) B     -0.0103
     8 (A) A             12 (A) A                 0.0100
     7 (A) A   8 (A) A   11 (A) A   22 (A) A      0.0093
     6 (A) A   8 (A) B   15 (A) A   11 (A) B     -0.0089
     7 (A) A   8 (A) B   22 (A) A   11 (A) B     -0.0087
     6 (A) A   8 (A) B   10 (A) A   11 (A) B      0.0085
     3 (A) A   4 (A) B   11 (A) A    9 (A) B     -0.0082
     6 (A) A   8 (A) A   11 (A) A   15 (A) A      0.0080
     3 (A) A   8 (A) B   11 (A) A   18 (A) B     -0.0079
     7 (A) A   8 (A) A   13 (A) A   16 (A) A     -0.0075
     7 (A) A   8 (A) A   11 (A) A   13 (A) A      0.0075
     5 (A) A   8 (A) B   21 (A) A   11 (A) B      0.0069
     4 (A) A   8 (A) B   19 (A) A   11 (A) B     -0.0069
     4 (A) A   8 (A) A   11 (A) A   12 (A) A      0.0063
     3 (A) A   6 (A) B   11 (A) A   28 (A) B     -0.0059
     6 (A) A   8 (A) A   11 (A) A   18 (A) A      0.0058
     5 (A) A   8 (A) B    9 (A) A    9 (A) B     -0.0056
     6 (A) A   8 (A) B   18 (A) A   11 (A) B     -0.0056
     3 (A) A   8 (A) B   11 (A) A   30 (A) B     -0.0055
     3 (A) A   8 (A) A   11 (A) A   18 (A) A     -0.0054
     7 (A) A   8 (A) B   16 (A) A   13 (A) B      0.0054
     3 (A) A   5 (A) B   11 (A) A   25 (A) B     -0.0054
     3 (A) A   8 (A) A   11 (A) A   24 (A) A     -0.0053
     7 (A) A   8 (A) B   11 (A) A   13 (A) B     -0.0052
    -----------------------------------------------------

  Density matrix analysis:
  ------------------------
  NOs
    Occupation of frontier NOs:
       0.9505   1.0181
    Number of electrons: 16.000000
    Number of unpaired electrons: n_u =  2.32163, n_u,nl =  2.04364
    NO participation ratio (PR_NO):  2.866186
  
  
  Mulliken Population Analysis
  Atom      Charge (e)              h+              e-           Del q
  --------------------------------------------------------------------
   1 H       -0.033024        0.047125       -0.138912       -0.091786
   2 C        0.265452        0.499799       -0.126096        0.373703
   3 H       -0.218580        0.045057       -0.311351       -0.266294
   4 C        0.273501        0.508318       -0.126155        0.382163
   5 H        0.011475        0.042806       -0.089672       -0.046866
   6 H       -0.298824        0.047572       -0.398492       -0.350920
  --------------------------------------------------------------------
  Sum:        0.000000        1.190678       -1.190678       -0.000000
  
  Multipole moment analysis of the density matrix
    Molecular charge:                      0.000000
    Number of electrons:                   16.000000
      Center of electronic charge [Ang]: [ -1.607109,  -0.106196,  -0.000325]
    Total nuclear charge:                  16.000000
      Center of nuclear charge [Ang]:    [ -1.584534,  -0.087168,   0.002098]
    Dipole moment [D]:                     2.276575
      Cartesian components [D]:          [  1.734875,   1.462311,   0.186145]
    RMS size of the density [Ang]:         1.282509
      Cartesian components [Ang]:        [  0.862272,   0.843930,   0.434853]
  
  Exciton analysis of the difference density matrix
    <r_h> [Ang]:                  [ -1.606044,  -0.103321,   0.000823]
    <r_e> [Ang]:                  [ -1.913498,  -0.361526,  -0.033113]
    |<r_e - r_h>| [Ang]:            0.402926
    Hole size [Ang]:                1.395559
      Cartesian components [Ang]: [  0.820651,   0.805454,   0.790798]
    Electron size [Ang]:            2.074706
      Cartesian components [Ang]: [  1.462406,   1.307052,   0.676305]

  Transition density matrix analysis:
  -----------------------------------
  
  CT numbers (Mulliken)
    omega =     0.9291
    <Phe> =    -0.0134
  
  Exciton analysis of the transition density matrix
    Trans. dipole moment [D]:             0.131895
      Cartesian components [D]:         [  0.007044,   0.008138,  -0.131455]
    <r_h> [Ang]:                        [ -1.585873,  -0.091253,   0.003047]
    <r_e> [Ang]:                        [ -1.980016,  -0.417088,  -0.040276]
    |<r_e - r_h>| [Ang]:                  0.513220
    Hole size [Ang]:                      1.224792
      Cartesian components [Ang]:       [  0.653785,   0.645009,   0.810335]
    Electron size [Ang]:                  2.205231
      Cartesian components [Ang]:       [  1.558363,   1.383972,   0.720534]
    RMS electron-hole separation [Ang]:   2.562590
      Cartesian components [Ang]:       [  1.725527,   1.553398,   1.084612]
    Covariance(r_h, r_e) [Ang^2]:         0.029841
    Correlation coefficient:              0.011048
    Center-of-mass size [Ang]:            1.267166
      Cartesian components [Ang]:       [  0.849965,   0.767456,   0.542476]

  Decomposition into state-averaged NTOs
    H- 0 -> L+ 2: -0.6368 ( 81.1%)
    H- 0 -> L+ 1:  0.1726 (  6.0%)
    H- 1 -> L+ 0:  0.1314 (  3.5%)
    H- 0 -> L+ 4: -0.0882 (  1.6%)
                   omega =  92.9%
  ----------------------------------------------------------------------------


  Excited state 5 (singlet, A)                                     [converged]
  ----------------------------------------------------------------------------
  Term symbol:  6 (1) A                                     R^2 =  1.34433e-13

[...]
    16   -1.109183435855e-03
    17   -2.123162071203e-03
    18    4.445806641592e-03
    19   -2.456572563114e-03
    20    4.450556221851e-03
    21    8.471255175534e-01
    22   -1.759150309214e-03
    23    1.377276831168e-02
    24    8.415307992875e-04
    25    6.963794195119e-02
    26   -5.196740342426e-02
    27   -1.364692900959e+00
    28    7.997671784999e-02
    29   -1.118456397425e-01
    30   -3.476420517605e-03
    31    3.127565273440e-01
    32   -4.273574223639e-01
    33   -1.293709232674e-02
    34    1.471582409556e-02
    35   -1.468366639696e-03
    36   -1.723109666731e-03
    37   -7.985564366084e-04
    38   -2.748212463712e-03
    39    2.130295453880e-02
    40    1.036259737300e+00
    41   -1.017622808554e-04
    42   -1.492716252647e-02
    43   -9.511892917739e-04
    44    2.089788060088e-03
    45    7.911473951337e-01
    46    1.209096318636e-02
    47   -6.078133064054e-04
    48    5.540165407197e-04
Sym=X
Ene= 0.231143
Spin=Alpha
Occup=0
     1   -3.768167993289e-02
     2   -1.104600457733e+00
     3    1.169211328874e-02
     4    2.489206792134e-03
     5    7.196798290991e-04
     6    4.028415803170e-04
     7   -1.681870949084e-03
     8   -6.635478085119e-02
     9    1.556583770752e-01
    10    1.589702783713e-01
    11    1.759694393925e-02
    12    4.727117610586e-01
    13    6.064135851706e-01
    14    6.133333462330e-02
    15    5.693328616361e-04
    16   -2.415785648060e-04
    17   -1.566967177205e-04
    18   -1.009900978931e-03
    19   -6.881619296280e-04
    20    2.098452631763e-02
    21    1.217349209236e+00
    22    3.556161809299e-03
    23    1.411541231428e-02
    24    1.065706362173e-03
    25    1.534020264469e-02
    26   -8.419009855912e-03
    27   -3.775947798216e-01
    28    1.748983543050e-01
    29    1.378633309535e-01
    30    1.743312221557e-02
    31    5.850094871200e-01
    32    4.922354971760e-01
    33    5.997674618089e-02
    34    5.935019382762e-03
    35   -5.708214856070e-04
    36   -7.951438590882e-04
    37    1.489179970852e-03
    38   -2.689759024285e-03
    39   -2.828057058737e-02
    40   -9.341941852956e-01
    41    2.434882509519e-03
    42    8.443383986197e-03
    43    6.671720796512e-04
    44    3.025691515911e-02
    45    1.378197750562e+00
    46    1.732300105245e-02
    47    3.945097230589e-03
    48    1.114996892717e-03
Sym=X
Ene= 0.236376
Spin=Alpha
Occup=0
     1    1.529040787180e-02
     2    9.147096728379e-01
     3   -1.275304272761e-02
     4   -9.363702709128e-03
     5   -1.145164932835e-03
     6    8.695274281079e-02
     7   -8.277787345232e-02
     8   -1.547357878764e+00
     9   -5.131791783834e-02
    10    6.351153207859e-02
    11    2.738498904161e-03
    12   -1.937361137739e-01
    13    2.970345469114e-01
    14    1.385695996237e-02
    15    2.107573057817e-02
    16   -2.405793034529e-03
    17   -3.172094490044e-03
    18    2.783768553729e-03
    19   -1.220291190218e-02
    20    2.267660631074e-02
    21    1.241695201917e+00
    22    8.270113372482e-03
    23    1.923339004454e-02
    24    1.721186539466e-03
    25   -8.639093752808e-02
    26    8.254691174418e-02
    27    1.519301564346e+00
    28   -4.031253170355e-02
    29    7.236553388675e-02
    30    1.798799977099e-03
    31   -1.989204492644e-01
    32    2.739670925541e-01
    33    3.862033423667e-03
    34   -2.078292586545e-02
    35    2.667367489830e-03
    36    2.792747676062e-03
    37   -4.151176063792e-04
    38    1.226429970041e-02
    39   -1.867262260358e-02
    40   -1.154771132271e+00
    41    9.118923877784e-03
    42    1.648894714569e-02
    43    1.442692360273e-03
    44   -1.985932356826e-02
    45   -9.693178971329e-01
    46   -1.501994984939e-02
    47   -8.523141058001e-03
    48   -1.318024512227e-03
Sym=X
Ene= 0.302469
Spin=Alpha
Occup=0
     1    9.860957979129e-03
     2   -1.571223903820e+00
     3    2.274406491851e-02
     4   -1.864406941241e-03
     5    9.967704382935e-04
     6   -8.165335938038e-04
     7    1.674028014908e-03
     8   -1.162138358605e-01
     9    1.363968597866e-01
    10    1.416906437412e-01
    11    1.561752099535e-02
    12    1.103936791252e+00
    13    1.189890732875e+00
    14    1.293623561507e-01
    15    1.783874998502e-03
    16    1.206618446282e-03
    17   -2.611918859133e-03
    18    3.361500350246e-02
    19   -2.186195274362e-03
    20   -2.972939042661e-02
    21    1.728203663252e+00
    22   -3.309134019082e-04
    23    2.354678953856e-02
    24    1.459635302758e-03
    25    9.566220744389e-04
    26    6.076585964431e-04
    27   -4.855380833378e-02
    28   -1.352678671346e-01
    29   -1.439105435969e-01
    30   -1.565223680836e-02
    31   -1.161029460303e+00
    32   -1.145413410763e+00
    33   -1.293175548729e-01
    34    1.533257341954e-04
    35    1.779304500496e-03
    36   -2.039201351745e-03
    37    3.408173742646e-02
    38   -5.738980484207e-04
    39   -2.249705145346e-02
    40    1.670981653616e+00
    41    5.989585057627e-04
    42   -2.375994475237e-02
    43   -1.363738899296e-03
    44    1.967768050311e-02
    45   -1.647981113599e+00
    46   -2.316604053603e-02
    47    1.363739830420e-03
    48   -1.145867402977e-03
Sym=X
Ene= 0.462258
Spin=Alpha
Occup=0
     1   -1.467648167834e-01
     2   -5.463669767096e-01
     3   -1.681006329256e-02
     4   -6.109260836670e-03
     5   -1.264570873711e-03
     6    6.302323959233e-02
     7    1.622148676461e-02
     8   -3.630275726783e+00
     9    1.080536549437e-01
    10   -9.883805751315e-02
    11   -1.943315092054e-03
    12    2.289625540448e+00
    13   -2.437576469134e+00
    14   -3.183153855564e-02
    15    5.252157031513e-02
    16   -3.634432937371e-03
    17   -4.252242758290e-03
    18   -4.294001549840e-03
    19    2.028533650791e-02
    20   -7.599441137501e-02
    21   -8.488055329138e-01
    22    1.381382774587e-02
    23    1.415730408660e-02
    24    1.539759782881e-03
    25   -6.269725243763e-02
    26   -1.633235539392e-02
    27    3.624784961142e+00
    28    1.013513292737e-01
    29   -1.013811548163e-01
    30   -1.304784158408e-03
    31    2.360601830597e+00
    32   -2.380678690931e+00
    33   -1.972829395814e-02
    34   -5.283091395677e-02
    35    3.555847362614e-03
    36    4.538558252962e-03
    37    2.844299130240e-03
    38   -1.954488870625e-02
    39    9.534967369121e-02
    40    7.079678695016e-01
    41    1.252058332420e-02
    42    1.350467168820e-02
    43    1.476848369388e-03
    44    1.347477790036e-01
    45    6.873294214670e-01
    46   -1.662259353155e-02
    47   -7.658307963572e-03
    48   -1.306274469830e-03
Sym=X
Ene= 0.580176
Spin=Alpha
Occup=0
     1    2.518625204356e-01
     2   -3.370672101895e-02
     3   -2.376220635942e-02
     4    3.108857420384e-02
     5    7.831625450810e-04
     6   -6.822163250769e-03
     7   -1.696758031101e-01
     8   -3.894682369096e-01
     9    3.095304748804e-01
    10   -2.840025679943e-01
    11   -1.091597477300e-03
    12   -7.461997724109e-01
    13    7.528549919782e-01
    14    9.539461517512e-03
    15   -1.928147941636e-03
    16    4.371124766942e-03
    17    2.715734676032e-03
    18    9.415365515882e-03
    19    6.063667854244e-02
    20    2.251404492201e-01
    21    1.450583420003e-01
    22   -2.419938820654e-02
    23    1.963483432215e-02
    24    6.348244716538e-05
    25   -5.613076440473e-03
    26   -1.680699550289e-01
    27   -4.487593320387e-01
    28   -3.083972281879e-01
    29    2.882924690519e-01
    30    1.645816214096e-03
    31    7.429507057082e-01
    32   -6.748704337106e-01
    33   -3.899559077900e-03
    34   -1.665813780763e-03
    35    4.526880789369e-03
    36    2.402147419884e-03
    37    1.343695374025e-02
    38    5.957754035285e-02
    39    2.092520168726e-01
    40    7.619327133050e-02
    41    2.729010817366e-02
    42   -2.477694873144e-02
    43   -1.035841136491e-04
    44    2.647138684703e-01
    45    8.085353742225e-03
    46    1.784175963250e-02
    47   -2.724656194259e-02
    48   -7.414142981054e-04
Sym=X
Ene= 0.608908
Spin=Alpha
Occup=0
     1    5.151355610908e-01
     2   -3.517897448969e-01
     3    5.718315567611e-02
     4   -4.098056318185e-02
     5    1.739971375790e-04
     6   -3.100065539582e-03
     7   -2.415223938302e-02
     8   -1.136355899360e-01
     9    2.443253896960e-02
    10    5.005633120418e-02
    11    4.191278121922e-03
    12   -6.399131623959e-02
    13   -4.804581159596e-01
    14   -3.313008743756e-02
    15    1.795527230345e-03
    16    7.721078739864e-03
    17   -9.152638180480e-03
    18    1.483824883094e-01
    19    1.577295406642e-02
    20   -5.207908309665e-01
    21    1.194940039992e-01
    22   -3.501586300304e-02
    23    5.968578623894e-02
    24    2.053923505658e-03
    25    2.546924124520e-03
    26   -1.057427403631e-02
    27    2.536335027308e-01
    28    2.590674601750e-02
    29    4.686488013113e-02
    30    4.079491244705e-03
    31   -8.998897156981e-02
    32   -4.467064161625e-01
    33   -3.122151339028e-02
    34   -1.526590807319e-02
    35   -6.557631955259e-03
    36    1.042747954290e-02
    37   -1.484334056054e-01
    38   -2.344226725420e-03
    39    5.702600993983e-01
    40   -2.216315749634e-01
    41   -3.487781787696e-02
    42    6.254692255770e-02
    43    1.992983226696e-03
    44   -4.621522068415e-01
    45    2.621535849071e-01
    46    5.421580282857e-02
    47   -4.185664392090e-02
    48    2.787623345236e-04
Sym=X
Ene= 0.688641
Spin=Alpha
Occup=0
     1   -9.193413008729e-04
     2    3.085350836207e-03
     3   -2.903460354160e-05
     4    7.044773351402e-04
     5   -1.182930870360e-02
     6   -8.797544408828e-05
     7   -2.774290332757e-03
     8    3.844278803656e-03
     9    3.470543762137e-02
    10    4.082353874150e-02
    11   -6.706819365736e-01
    12   -3.519389409122e-02
    13   -3.383912055242e-02
    14    6.132612886872e-01
    15   -7.699645025029e-04
    16    7.880241636946e-02
    17   -8.261886073365e-02
    18   -8.990787490426e-03
    19   -5.253901237455e-04
    20   -8.333004233138e-04
    21    3.277168991669e-03
    22    1.336393793187e-03
    23    2.364471586455e-03
    24   -2.610896572715e-02
    25   -1.867137423123e-04
    26   -1.554619100784e-03
    27   -6.459667415652e-04
    28    3.343628407652e-02
    29    4.179097462427e-02
    30   -6.703073699908e-01
    31   -3.436298166780e-02
    32   -3.447670312507e-02
    33    6.120359696808e-01
    34    2.260873817014e-03
    35   -7.918823877880e-02
    36    8.143933259899e-02
    37    9.072765788190e-03
    38   -3.084919100880e-06
    39   -2.868402015947e-03
    40   -3.288562101163e-04
    41    5.852096912490e-04
    42    6.659117299466e-04
    43   -1.780770657892e-02
    44   -2.890088318456e-03
    45   -7.456143484149e-04
    46    1.424149266402e-03
    47    1.525262017076e-03
    48   -2.006123037730e-02
Sym=X
Ene= 0.704956
Spin=Alpha
Occup=0
     1   -5.008950654489e-01
     2    2.502617578540e-01
     3   -7.472672498441e-02
     4   -4.797438485567e-02
     5   -6.848168541269e-03
     6   -4.655997276340e-02
     7   -3.001392263614e-01
     8    4.560574251956e-01
     9    2.145322884642e-01
    10   -1.650958746155e-01
    11    3.693880196284e-03
    12   -1.026050399424e-01
    13   -1.540901394004e-02
    14   -1.200804129920e-02
    15    1.919178308367e-01
    16   -2.150558324622e-02
    17   -2.461742651294e-02
    18    5.780082243455e-03
    19   -7.541190388547e-02
    20   -4.830313856978e-01
    21    7.092530136175e-02
    22    3.688438945392e-02
    23    8.413922518937e-02
    24    7.050239855310e-03
    25   -4.535285612808e-02
    26   -3.024627645534e-01
    27    4.796996203741e-01
    28   -1.764946869052e-01
    29    2.092277968329e-01
    30    6.789568374260e-03
    31    2.457929521795e-03
    32   -1.322667897789e-01
    33   -8.681993629967e-03
    34    1.891320692125e-01
    35   -2.149077333240e-02
    36   -2.417695730683e-02
    37    9.933937400136e-04
    38   -7.672559619199e-02
    39   -4.556406561752e-01
    40    2.055089610392e-01
    41   -4.414794703339e-02
    42   -8.056482629429e-02
    43   -6.934848087692e-03
    44   -5.074187234085e-01
    45    1.176124796694e-01
    46    7.648980550699e-02
    47    3.998823813656e-02
    48    6.601369414635e-03
Sym=X
Ene= 0.774452
Spin=Alpha
Occup=0
     1    5.933031244496e-01
     2   -6.634173812030e-01
     3    1.213451965894e-01
     4    2.729061920269e-02
     5    7.785419313874e-03
     6    8.743524772248e-02
     7   -2.372401621006e-01
     8   -5.580721584907e-01
     9    3.693259492891e-02
    10   -1.637922216764e-01
    11   -9.750771515543e-03
    12    4.252682303814e-01
    13   -1.537932832486e-01
    14    1.752751286891e-02
    15   -1.974572689182e-01
    16    1.827271415280e-02
    17    2.084929291377e-02
    18    1.963252443654e-02
    19    8.343226103168e-03
    20    4.720082904713e-01
    21   -3.008290934720e-01
    22   -2.054650235675e-02
    23   -9.158098171355e-02
    24   -6.622780546763e-03
    25   -8.892522720179e-02
    26    2.160794056571e-01
    27    5.793072877924e-01
    28    9.894791969868e-02
    29   -9.657188471002e-02
    30    2.030829675286e-03
    31    2.496631209973e-01
    32   -3.342481093778e-01
    33   -1.272443223875e-02
    34    2.036915766424e-01
    35   -1.948238265194e-02
    36   -2.124046807999e-02
    37   -1.324983143540e-02
    38   -9.312993100798e-03
    39   -5.316076211117e-01
    40    4.941407187195e-01
    41   -2.235202550264e-02
    42   -1.040336396484e-01
    43   -7.470569734809e-03
    44   -5.481392079631e-01
    45    4.677874135317e-01
    46    1.125640061250e-01
    47    2.569307623256e-02
    48    7.348444403103e-03
Sym=X
Ene= 0.807058
Spin=Alpha
Occup=0
     1   -1.450633038271e-03
     2    3.422902279489e-03
     3    3.800722415619e-04
     4    1.839148100294e-03
     5   -2.685967375689e-02
     6   -2.070542941686e-04
     7   -3.862134299701e-04
     8    2.205664528740e-05
     9    3.842739243535e-02
    10    4.831354870140e-02
    11   -7.633775083525e-01
    12   -5.902580865909e-02
    13   -6.937686674468e-02
    14    1.123101439571e+00
    15    2.096496919847e-03
    16   -6.251336882935e-02
    17    6.430446874775e-02
    18    6.945553128868e-03
    19    6.860843844621e-04
    20   -1.121415839784e-03
    21    1.166603473559e-03
    22    1.484403576537e-03
    23    2.868252094389e-03
    24   -3.548602413289e-02
    25    3.201849287176e-04
    26   -1.481237238404e-03
    27    8.841843565636e-04
    28   -4.023816945917e-02
    29   -4.539356227706e-02
    30    7.642661123219e-01
    31    5.769799599951e-02
    32    6.854956144975e-02
    33   -1.123952215889e+00
    34    3.012296024741e-04
    35   -6.196373419824e-02
    36    6.448691290837e-02
    37    7.211876017857e-03
    38    3.413349750850e-05
    39    1.409102117079e-03
    40   -1.599749522582e-03
    41   -1.572001672390e-03
    42   -1.397722031624e-03
    43    2.848152291248e-02
    44    1.438363406527e-03
    45   -1.884403021915e-03
    46   -2.170010456748e-03
    47   -2.055196461374e-03
    48    3.459930149112e-02
Sym=X
Ene= 0.858753
Spin=Alpha
Occup=0
     1   -2.525849754641e-02
     2   -1.069957436576e+00
     3    1.384342520822e-01
     4    5.905567223572e-02
     5    1.021917279299e-02
     6   -1.168050869931e-02
     7   -5.095716974500e-02
     8    6.062667035247e-04
     9   -4.582276709455e-01
    10   -3.859708565086e-01
    11   -4.714034766903e-02
    12    1.001017464501e+00
    13    9.110260041990e-01
    14    1.069255650327e-01
    15    4.017160450354e-02
    16    9.031774284853e-03
    17   -1.751538455803e-02
    18    2.275873050954e-01
    19    2.127857554718e-02
    20   -4.521697845436e-02
    21    1.052630821110e+00
    22    4.329794916448e-02
    23    1.546251918261e-01
    24    1.207030967656e-02
    25    5.343959270441e-03
    26   -8.033025666262e-02
    27    9.726786918535e-02
    28   -4.468078747406e-01
    29   -3.912470129233e-01
    30   -4.639382761651e-02
    31    1.001166736760e+00
    32    9.102778003572e-01
    33    1.064845607446e-01
    34   -8.450441826864e-03
    35   -1.199522756921e-02
    36    1.415888093854e-02
    37   -2.301794987402e-01
    38   -2.007277631882e-02
    39    3.045234073033e-02
    40   -1.068205750842e+00
    41    5.012277505501e-02
    42    1.520828079914e-01
    43    1.199811730589e-02
    44    6.278947324486e-03
    45    1.070731200198e+00
    46    1.408523851203e-01
    47    5.568332626290e-02
    48    1.050411487958e-02
Sym=X
Ene= 0.925878
Spin=Alpha
Occup=0
     1   -1.273635506238e-01
     2    1.320273364296e+00
     3   -1.882682026402e-01
     4   -1.633356408630e-02
     5   -1.021335688573e-02
     6    1.425910340964e-02
     7    1.424156248555e-01
     8   -3.350297110211e-02
     9    5.760438116597e-01
    10    3.608833894594e-01
    11    5.125706629111e-02
    12   -1.597754090815e+00
    13   -1.095785115211e+00
    14   -1.478886894382e-01
    15   -3.723367575915e-02
    16   -6.303531045435e-03
    17    7.427838264594e-03
    18   -1.109298447780e-01
    19   -7.387635051413e-02
    20    1.469065110439e-01
    21   -9.869963076969e-01
    22    3.796351492814e-02
    23   -1.547363293178e-01
    24   -7.569877801303e-03
    25   -9.324814450636e-03
    26    7.701054189200e-02
    27   -2.683524866270e-01
    28   -4.044342492870e-01
    29   -5.589114136436e-01
    30   -5.481481523206e-02
    31    1.170430411702e+00
    32    1.609648049747e+00
    33    1.577169481821e-01
    34    2.665242255430e-02
    35   -7.415552103569e-03
    36    6.189703877003e-03
    37   -1.272591322531e-01
    38    3.309662610190e-02
    39    1.254302920517e-01
    40   -1.284535959772e+00
    41   -3.284907202562e-03
    42    1.749617104081e-01
    43    1.016986786563e-02
    44   -1.694792681166e-01
    45    1.153659125126e+00
    46    1.875838930982e-01
    47   -1.749001558077e-02
    48    8.832127134517e-03
Sym=X
Ene= 0.972235
Spin=Alpha
Occup=0
     1   -5.032979651434e-02
     2    4.853353811767e-01
     3   -3.256281728591e-02
     4   -8.993634492970e-02
     5   -6.564177150423e-03
     6    2.369566448140e-02
     7    1.708856521895e-01
     8    6.302701332219e-01
     9    3.517465200333e-01
    10   -5.499953173853e-01
    11   -1.733170470235e-02
    12   -1.015771857382e+00
    13    1.786190502653e+00
    14    6.144572947723e-02
    15   -5.009220908828e-02
    16   -9.682773777612e-03
    17   -1.235579304962e-02
    18    4.619965729243e-02
    19   -2.783504880217e-01
    20   -7.070381981315e-02
    21    1.207078790092e+00
    22    8.341278793117e-02
    23    1.297033512592e-01
    24    1.268530962073e-02
    25   -2.599058998525e-02
    26   -3.267292214538e-01
    27   -3.699678159849e-01
    28    5.412812997943e-01
    29   -3.996265759868e-01
    30    4.305069645456e-03
    31   -1.722537325159e+00
    32    1.157901990937e+00
    33   -2.060454245794e-02
    34    5.485340961913e-02
    35    1.387403740276e-02
    36    9.771449989637e-03
    37    8.718748997755e-03
    38    3.009634757265e-01
    39    8.298162166045e-02
    40   -7.366672797777e-01
    41    9.524479294861e-02
    42    7.515840031195e-02
    43    9.607178742427e-03
    44    5.066592595932e-02
    45   -1.136486435342e+00
    46   -1.223765194964e-01
    47   -9.991549187715e-02
    48   -1.243943970934e-02
[5D]

======= END OF MOLDEN-FORMATTED INPUT FILE =======


        *************************************************************
        *                                                           *
        *  Thank you very much for using Q-Chem.  Have a nice day.  *
        *                                                           *
        *************************************************************


