                  Welcome to Q-Chem
     A Quantum Leap Into The Future Of Chemistry


 Q-Chem 5.4 (devel), Q-Chem, Inc., Pleasanton, CA (2021)

 E. Epifanovsky,  A. T. B. Gilbert,  Xintian Feng,  Joonho Lee,  Yuezhi Mao,  
 N. Mardirossian,  P. Pokhilko,  A. White,  M. Wormit,  M. P. Coons,  
 A. L. Dempwolff,  Zhengting Gan,  D. Hait,  P. R. Horn,  L. D. Jacobson,  
 I. Kaliman,  J. Kussmann,  A. W. Lange,  Ka Un Lao,  D. S. Levine,  Jie Liu,  
 S. C. McKenzie,  A. F. Morrison,  K. Nanda,  F. Plasser,  D. R. Rehn,  
 M. L. Vidal,  Zhi-Qiang You,  Ying Zhu,  B. Alam,  B. Albrecht,  
 A. Aldossary,  E. Alguire,  J. H. Andersen,  D. Barton,  K. Begam,  A. Behn,  
 Y. A. Bernard,  E. J. Berquist,  H. Burton,  A. Carreras,  K. Carter-Fenk,  
 R. Chakraborty,  A. D. Chien,  K. D. Closser,  V. Cofer-Shabica,  
 S. Dasgupta,  Jia Deng,  M. de Wergifosse,  M. Diedenhofen,  Hainam Do,  
 S. Ehlert,  Po-Tung Fang,  S. Fatehi,  Qingguo Feng,  T. Friedhoff,  
 J. Gayvert,  Qinghui Ge,  G. Gidofalvi,  M. Goldey,  J. Gomes,  
 C. Gonzalez-Espinoza,  S. Gulania,  A. Gunina,  M. W. D. Hanson-Heine,  
 P. H. P. Harbach,  A. W. Hauser,  M. F. Herbst,  M. Hernandez Vera,  
 M. Hodecker,  Z. C. Holden,  S. Houck,  Xunkun Huang,  Kerwin Hui,  
 B. C. Huynh,  M. Ivanov,  Hyunjun Ji,  Hanjie Jiang,  B. Kaduk,  S. Kaehler,  
 K. Khistyaev,  Jaehoon Kim,  P. Klunzinger,  Z. Koczor-Benda,  
 Joong Hoon Koh,  D. Kosenkov,  L. Koulias,  T. Kowalczyk,  C. M. Krauter,  
 K. Kue,  A. Kunitsa,  T. Kus,  A. Landau,  K. V. Lawler,  D. Lefrancois,  
 S. Lehtola,  Rain Li,  Yi-Pei Li,  Jiashu Liang,  M. Liebenthal,  
 Hung-Hsuan Lin,  You-Sheng Lin,  Fenglai Liu,  Kuan-Yu Liu,  
 M. Loipersberger,  A. Luenser,  A. Manjanath,  P. Manohar,  E. Mansoor,  
 S. F. Manzer,  Shan-Ping Mao,  A. V. Marenich,  T. Markovich,  S. Mason,  
 S. A. Maurer,  P. F. McLaughlin,  M. F. S. J. Menger,  J.-M. Mewes,  
 S. A. Mewes,  P. Morgante,  J. W. Mullinax,  K. J. Oosterbaan,  G. Paran,  
 Alexander C. Paul,  Suranjan K. Paul,  F. Pavosevic,  Zheng Pei,  S. Prager,  
 E. I. Proynov,  E. Ramos,  B. Rana,  A. E. Rask,  A. Rettig,  R. M. Richard,  
 F. Rob,  E. Rossomme,  T. Scheele,  M. Scheurer,  M. Schneider,  
 N. Sergueev,  S. M. Sharada,  W. Skomorowski,  D. W. Small,  C. J. Stein,  
 Yu-Chuan Su,  E. J. Sundstrom,  Zhen Tao,  J. Thirman,  T. Tsuchimochi,  
 N. M. Tubman,  S. P. Veccham,  O. Vydrov,  J. Wenzel,  J. Witte,  A. Yamada,  
 Kun Yao,  S. Yeganeh,  S. R. Yost,  A. Zech,  Igor Ying Zhang,  Xing Zhang,  
 Yu Zhang,  D. Zuev,  A. Aspuru-Guzik,  A. T. Bell,  N. A. Besley,  
 K. B. Bravaya,  B. R. Brooks,  D. Casanova,  Jeng-Da Chai,  S. Coriani,  
 C. J. Cramer,  A. E. DePrince, III,  R. A. DiStasio Jr.,  A. Dreuw,  
 B. D. Dunietz,  T. R. Furlani,  W. A. Goddard III,  S. Grimme,  
 S. Hammes-Schiffer,  T. Head-Gordon,  W. J. Hehre,  Chao-Ping Hsu,  
 T.-C. Jagau,  Yousung Jung,  A. Klamt,  Jing Kong,  D. S. Lambrecht,  
 WanZhen Liang,  N. J. Mayhall,  C. W. McCurdy,  J. B. Neaton,  
 C. Ochsenfeld,  J. A. Parkhill,  R. Peverati,  V. A. Rassolov,  Yihan Shao,  
 L. V. Slipchenko,  T. Stauch,  R. P. Steele,  J. E. Subotnik,  
 A. J. W. Thom,  A. Tkatchenko,  D. G. Truhlar,  T. Van Voorhis,  
 T. A. Wesolowski,  K. B. Whaley,  H. L. Woodcock III,  P. M. Zimmerman,  
 S. Faraji,  P. M. W. Gill,  M. Head-Gordon,  J. M. Herbert,  A. I. Krylov

 Additional authors for Version 5.4.1: 
 S. Kotaru,  Shaozhi Li,  Xiangyuan Li,  F. Matz,  A. Molle,  Haisheng Ren,  
 Yingli Su,  Hung-Yi Tsai,  C. Utku,  Fang Wang

 Contributors to earlier versions of Q-Chem not listed above: 
 R. D. Adamson,  B. Austin,  R. Baer,  J. Baker,  G. J. O. Beran,  
 K. Brandhorst,  S. T. Brown,  E. F. C. Byrd,  A. K. Chakraborty,  
 G. K. L. Chan,  Chun-Min Chang,  Yunqing Chen,  C.-L. Cheng,  
 Siu Hung Chien,  D. M. Chipman,  D. L. Crittenden,  H. Dachsel,  
 R. J. Doerksen,  A. D. Dutoi,  R. G. Edgar,  J. Fosso-Tande,  
 L. Fusti-Molnar,  D. Ghosh,  A. Ghysels,  A. Golubeva-Zadorozhnaya,  
 J. Gonthier,  M. S. Gordon,  S. R. Gwaltney,  G. Hawkins,  J. E. Herr,  
 A. Heyden,  S. Hirata,  E. G. Hohenstein,  G. Kedziora,  F. J. Keil,  
 C. Kelley,  Jihan Kim,  R. A. King,  R. Z. Khaliullin,  P. P. Korambath,  
 W. Kurlancheek,  A. Laurent,  A. M. Lee,  M. S. Lee,  S. V. Levchenko,  
 Ching Yeh Lin,  D. Liotard,  E. Livshits,  R. C. Lochan,  I. Lotan,  
 L. A. Martinez-Martinez,  P. E. Maslen,  N. Nair,  D. P. O'Neill,  
 D. Neuhauser,  E. Neuscamman,  C. M. Oana,  R. Olivares-Amaya,  R. Olson,  
 T. M. Perrine,  B. Peters,  P. A. Pieniazek,  A. Prociuk,  Y. M. Rhee,  
 J. Ritchie,  M. A. Rohrdanz,  E. Rosta,  N. J. Russ,  H. F. Schaefer III,  
 M. W. Schmidt,  N. E. Schultz,  S. Sharma,  N. Shenvi,  C. D. Sherrill,  
 A. C. Simmonett,  A. Sodt,  T. Stein,  D. Stuck,  K. S. Thanthiriwatte,  
 V. Vanovschi,  L. Vogt,  Tao Wang,  A. Warshel,  M. A. Watson,  
 C. F. Williams,  Q. Wu,  X. Xu,  Jun Yang,  W. Zhang,  Yan Zhao

 Please cite Q-Chem as follows:
 Y. Shao et al., Mol. Phys. 113, 184-215 (2015)
 DOI: 10.1080/00268976.2014.952696

 Q-Chem 5.4.1 for Intel X86 EM64T Linux

 Parts of Q-Chem use Armadillo 9.800.1 (Horizon Scraper).
 http://arma.sourceforge.net/

 Q-Chem begins on Tue Mar 21 11:31:27 2023  

 Host: cpu186.baobab
0

     Scratch files written to /scratch/fum/qchem57960//
 Processing $rem in /home/share/wesolowski/qc5.aug2021.FDE/config/preferences:
 Processing $rem in /home/fum/.qchemrc:

 Checking the input file for inconsistencies... 	...done.

--------------------------------------------------------------
User input:
--------------------------------------------------------------
$comment
generated from CCJob.Templates
$end

$rem
sym_ignore = true
method = adc(2)
ee_states = 10
basis = cc-pVDZ
mem_static = 1024
mem_total = 40000
adc_davidson_maxiter = 900
adc_davidson_conv = 6
adc_print = 3
adc_prop_es = true
adc_prop_es2es = true
adc_prop_tpa = true
molden_format = True
state_analysis = true
print_orbitals = 15
gen_scfman = false
fde_export_density = true
fde_details = 3
$end

$molecule
0 1
H -0.019670912143589913 -0.2464363180565693 0.06524969726442023
C -1.07832593067986 -0.5240237834144631 -0.0023592084011045513
H -1.301647460571012 -1.5949454716484197 -0.07783188246060936
C -2.0451747246797503 0.3942382462854396 0.006613799898887335
H -1.8219533077709482 1.4605730418519278 0.08178670003940222
H -3.099257259643947 0.11695259924333336 -0.06067869203556354                     
$end
--------------------------------------------------------------
 ----------------------------------------------------------------
             Standard Nuclear Orientation (Angstroms)
    I     Atom           X                Y                Z
 ----------------------------------------------------------------
    1      H      -0.0196709121    -0.2464363181     0.0652496973
    2      C      -1.0783259307    -0.5240237834    -0.0023592084
    3      H      -1.3016474606    -1.5949454716    -0.0778318825
    4      C      -2.0451747247     0.3942382463     0.0066137999
    5      H      -1.8219533078     1.4605730419     0.0817867000
    6      H      -3.0992572596     0.1169525992    -0.0606786920
 ----------------------------------------------------------------
 Nuclear Repulsion Energy =          33.21001191 hartrees
 There are        8 alpha and        8 beta electrons
 Requested basis set is cc-pVDZ
 There are 24 shells and 48 basis functions
 Total memory of 40000 MB is distributed as follows: 
   MEM_STATIC is set to 1024 MB
   QALLOC/CCMAN JOB total memory use is  38976 MB
 Warning: actual memory use might exceed 40000 MB

 Total QAlloc Memory Limit  40000 MB
 Mega-Array Size      1001 MB
 MEM_STATIC part      1024 MB

                       Distance Matrix (Angstroms)
             H (  1)   C (  2)   H (  3)   C (  4)   H (  5)
   C (  2)  1.096529
   H (  3)  1.866122  1.096559
   C (  4)  2.125222  1.333448  2.125280
   H (  5)  2.482413  2.121011  3.103609  1.092039
   H (  6)  3.103508  2.120947  2.482396  1.092019  1.859333

 A cutoff of  1.0D-11 yielded    300 shell pairs
 There are      1220 function pairs (      1329 Cartesian)
 Smallest overlap matrix eigenvalue = 4.81E-03

 Scale SEOQF with 1.000000e-01/1.000000e-01/1.000000e+00

 Standard Electronic Orientation quadrupole field applied
 Nucleus-field energy     =     0.0000000022 hartrees
 Guess from superposition of atomic densities
 Warning:  Energy on first SCF cycle will be non-variational
 SAD guess density has 16.000000 electrons
 A restricted Hartree-Fock SCF calculation will be
 performed using Pulay DIIS extrapolation
 SCF converges when DIIS error is below 1.0E-08
 using 10 threads for integral computing
 -------------------------------------------------------
 OpenMP Integral computing Module                
 Release: version 1.0, May 2013, Q-Chem Inc. Pittsburgh 
 -------------------------------------------------------
 ---------------------------------------
  Cycle       Energy         DIIS Error
 ---------------------------------------
    1     -78.3977865712      9.93E-02
    2     -78.0175753150      7.13E-03
    3     -78.0380424240      1.83E-03
    4     -78.0395187794      5.65E-04
    5     -78.0396366167      5.87E-05
    6     -78.0396384908      1.05E-05
    7     -78.0396385574      3.91E-06
    8     -78.0396385632      1.06E-06
    9     -78.0396385638      1.50E-07
   10     -78.0396385638      4.72E-08
   11     -78.0396385638      8.06E-09 Convergence criterion met
 ---------------------------------------
 SCF time:  CPU 2.08 s  wall 2.64 s
 SCF   energy in the final basis set = -78.03963856
 Total energy in the final basis set = -78.03963856
Exporting Density Matrix to file 'Densmat_SCF.txt'.
Export successful
================================================================================
|                                                                              |
|                                 A D C  M A N                                 |
|                                                                              |
 ------------------------------------------------------------------------------ 
|                                                                              |
| Components:                                                                  |
|                                                                              |
| - libvmm - 1.3-trunk                                                         |
|   Authors:                                                                   |
|   Evgeny Epifanovsky, Ilya Kaliman                                           |
|                                                                              |
| - libtensor - 2.5-trunk                                                      |
|   Authors:                                                                   |
|   Evgeny Epifanovsky, Michael Wormit, Dmitry Zuev, Sam Manzer,               |
|   Ilya Kaliman                                                               |
|                                                                              |
| - libwfa - 1.1-trunk                                                         |
|   Authors:                                                                   |
|   Felix Plasser, Stefanie Mewes (Baeppler), Benjamin Thomitzni,              |
|   Michael Wormit, Feng Chen, Anna I. Krylov, Pavel Pokhilko                  |
|                                                                              |
| - libadc - 1.1-trunk                                                         |
|   Authors:                                                                   |
|   Michael Wormit, Adrian L. Dempwolff, Philipp H. P. Harbach,                |
|   Caroline Krauter, Dirk Rehn, Matthias Schneider, Jan Wenzel                |
|                                                                              |
| - adcman - 2.6-trunk                                                         |
|   Authors:                                                                   |
|   Michael Wormit, Adrian L. Dempwolff, Philipp H. P. Harbach,                |
|   Caroline Krauter, Daniel Lefrancois, Jan-Michael Mewes, Dirk Rehn,         |
|   Matthias Schneider, Jan Wenzel, Andreas Dreuw                              |
|                                                                              |
| Authors of earlier versions of ADCMAN:                                       |
| Andreas Dreuw, Jan Hendrik Starcke, Dirk Rehn, Michael Wormit                |
|                                                                              |
================================================================================

 Created directory /scratch/fum/qchem57960/plots
  Import QC data ...  CPU 0.00 s  wall 0.00 s

 Alpha MOs, Restricted
 -- Occupied --                  
-11.239 -11.237  -1.030  -0.786  -0.635  -0.582  -0.500  -0.374
  1 A     2 A     3 A     4 A     5 A     6 A     7 A     8 A                  
 -- Virtual --                   
  0.168   0.203   0.231   0.236   0.303   0.463   0.580   0.609
  9 A    10 A    11 A    12 A    13 A    14 A    15 A    16 A                  
  0.689   0.705   0.776   0.807   0.858   0.928   0.971   1.006
 17 A    18 A    19 A    20 A    21 A    22 A    23 A    24 A                  
  1.130   1.237   1.241   1.263   1.291   1.593   1.728   1.744
 25 A    26 A    27 A    28 A    29 A    30 A    31 A    32 A                  
  1.811   1.852   1.854   1.901   1.963   1.972   2.224   2.248
 33 A    34 A    35 A    36 A    37 A    38 A    39 A    40 A                  
  2.356   2.423   2.493   2.623   2.679   2.795   3.099   3.369
 41 A    42 A    43 A    44 A    45 A    46 A    47 A    48 A                  

 Beta MOs, Restricted
 -- Occupied --                  
-11.239 -11.237  -1.030  -0.786  -0.635  -0.582  -0.500  -0.374
  1 A     2 A     3 A     4 A     5 A     6 A     7 A     8 A                  
 -- Virtual --                   
  0.168   0.203   0.231   0.236   0.303   0.463   0.580   0.609
  9 A    10 A    11 A    12 A    13 A    14 A    15 A    16 A                  
  0.689   0.705   0.776   0.807   0.858   0.928   0.971   1.006
 17 A    18 A    19 A    20 A    21 A    22 A    23 A    24 A                  
  1.130   1.237   1.241   1.263   1.291   1.593   1.728   1.744
 25 A    26 A    27 A    28 A    29 A    30 A    31 A    32 A                  
  1.811   1.852   1.854   1.901   1.963   1.972   2.224   2.248
 33 A    34 A    35 A    36 A    37 A    38 A    39 A    40 A                  
  2.356   2.423   2.493   2.623   2.679   2.795   3.099   3.369
 41 A    42 A    43 A    44 A    45 A    46 A    47 A    48 A                  
  Import AO data ...  CPU 0.00 s  wall 0.00 s
  Using point group: C1
  Irreducible representations in point group: A
  Molecular orbitals: 
  Occupied MOs:
  Block   0:   1 (  A) A   2 (  A) A   3 (  A) A   4 (  A) A   5 (  A) A
                  -11.24      -11.24       -1.03     -0.7859      -0.635
               6 (  A) A   7 (  A) A   8 (  A) A
                 -0.5823     -0.4995     -0.3744
  Block   1:   1 (  A) B   2 (  A) B   3 (  A) B   4 (  A) B   5 (  A) B
                  -11.24      -11.24       -1.03     -0.7859      -0.635
               6 (  A) B   7 (  A) B   8 (  A) B
                 -0.5823     -0.4995     -0.3744
  Virtual MOs:
  Block   0:   9 (  A) A  10 (  A) A  11 (  A) A  12 (  A) A  13 (  A) A
                  0.1679      0.2026       0.231      0.2364       0.303
              14 (  A) A  15 (  A) A  16 (  A) A  17 (  A) A  18 (  A) A
                  0.4628      0.5798      0.6089      0.6887      0.7048
              19 (  A) A  20 (  A) A  21 (  A) A  22 (  A) A
                  0.7758      0.8074      0.8584       0.928
  Block   1:  23 (  A) A  24 (  A) A  25 (  A) A  26 (  A) A  27 (  A) A
                  0.9706       1.006        1.13       1.237       1.241
              28 (  A) A  29 (  A) A  30 (  A) A  31 (  A) A  32 (  A) A
                   1.263       1.291       1.593       1.728       1.744
              33 (  A) A  34 (  A) A  35 (  A) A  36 (  A) A
                   1.811       1.852       1.854       1.901
  Block   2:  37 (  A) A  38 (  A) A  39 (  A) A  40 (  A) A  41 (  A) A
                   1.963       1.972       2.224       2.248       2.356
              42 (  A) A  43 (  A) A  44 (  A) A  45 (  A) A  46 (  A) A
                   2.423       2.493       2.623       2.679       2.795
              47 (  A) A  48 (  A) A
                   3.099       3.369
  Block   3:   9 (  A) B  10 (  A) B  11 (  A) B  12 (  A) B  13 (  A) B
                  0.1679      0.2026       0.231      0.2364       0.303
              14 (  A) B  15 (  A) B  16 (  A) B  17 (  A) B  18 (  A) B
                  0.4628      0.5798      0.6089      0.6887      0.7048
              19 (  A) B  20 (  A) B  21 (  A) B  22 (  A) B
                  0.7758      0.8074      0.8584       0.928
  Block   4:  23 (  A) B  24 (  A) B  25 (  A) B  26 (  A) B  27 (  A) B
                  0.9706       1.006        1.13       1.237       1.241
              28 (  A) B  29 (  A) B  30 (  A) B  31 (  A) B  32 (  A) B
                   1.263       1.291       1.593       1.728       1.744
              33 (  A) B  34 (  A) B  35 (  A) B  36 (  A) B
                   1.811       1.852       1.854       1.901
  Block   5:  37 (  A) B  38 (  A) B  39 (  A) B  40 (  A) B  41 (  A) B
                   1.963       1.972       2.224       2.248       2.356
              42 (  A) B  43 (  A) B  44 (  A) B  45 (  A) B  46 (  A) B
                   2.423       2.493       2.623       2.679       2.795
              47 (  A) B  48 (  A) B
                   3.099       3.369
  Import MO data ...  CPU 0.07 s  wall 0.02 s
  Import HF data ...  CPU 1.21 s  wall 0.34 s
  Import 2e integrals ...  CPU 1.05 s  wall 0.20 s

--------------------------------------------------------------------------------
                                   HF Summary                                   
--------------------------------------------------------------------------------
  Energy:                                                  -78.0396385638 a.u.
  Dip. moment [a.u.]:                  [  -0.000767,    0.000728,    0.000024]
  Total dipole [Debye]:                                               0.002689
  <r^2> [a.u.]:                        [ 175.842486,   35.296690,   11.680392]
  Total <r^2> [a.u.]:                                               222.819568
--------------------------------------------------------------------------------
  HF properties ...  CPU 0.03 s  wall 0.02 s
  MP(1) calculation ...  CPU 0.01 s  wall 0.01 s
  N^6 prerequesite intermediates ...  CPU 0.75 s  wall 0.13 s
  Difference density matrix of state mp2_gs printed to ASCII file 'State_mp2_gs_Difference.txt'
Exporting MP density matrix to file 'Densmat_MP.txt'.
Export successful
  Total density matrix of state mp2_gs printed to ASCII file 'State_mp2_gs_Total.txt'
Exporting MP density matrix to file 'Densmat_MP.txt'.
Export successful

--------------------------------------------------------------------------------
                                 MP(2) Summary                                  
--------------------------------------------------------------------------------
  MP energy contribution:                                   -0.2804884921 a.u.
  Total energy:                                            -78.3201270559 a.u.
  Dip. moment [a.u.]:                  [  -0.000745,    0.000706,    0.000023]
  Total dipole [Debye]:                                               0.002609
  <r^2> [a.u.]:                        [ 175.882853,   35.332489,   11.507970]
  Total <r^2> [a.u.]:                                               222.723313

  Density matrix analysis:
  ------------------------
  NOs
    Occupation of frontier NOs:
       0.0455   1.9380
    Number of electrons: 16.000000
    Number of unpaired electrons: n_u =  0.40725, n_u,nl =  0.04580
    NO participation ratio (PR_NO): 13.896551
  
  
  Mulliken Population Analysis
  Atom      Charge (e)              h+              e-           Del q
  --------------------------------------------------------------------
   1 H        0.055512        0.013870       -0.011325        0.002545
   2 C       -0.112694        0.094937       -0.099942       -0.005006
   3 H        0.055521        0.013869       -0.011325        0.002544
   4 C       -0.107180        0.094252       -0.099638       -0.005386
   5 H        0.054425        0.013944       -0.011293        0.002651
   6 H        0.054416        0.013945       -0.011293        0.002652
  --------------------------------------------------------------------
  Sum:       -0.000000        0.244816       -0.244816        0.000000
  
  Multipole moment analysis of the density matrix
    Molecular charge:                      -0.000000
    Number of electrons:                   16.000000
      Center of electronic charge [Ang]: [ -1.561446,  -0.065184,   0.002128]
    Total nuclear charge:                  16.000000
      Center of nuclear charge [Ang]:    [ -1.561471,  -0.065161,   0.002128]
    Dipole moment [D]:                     0.002609
      Cartesian components [D]:          [ -0.001893,   0.001795,   0.000059]
    RMS size of the density [Ang]:         1.206519
      Cartesian components [Ang]:        [  0.800093,   0.783666,   0.448782]
  
  Exciton analysis of the difference density matrix
    <r_h> [Ang]:                  [ -1.560511,  -0.066074,   0.002116]
    <r_e> [Ang]:                  [ -1.560559,  -0.066026,   0.002117]
    |<r_e - r_h>| [Ang]:            0.000068
    Hole size [Ang]:                1.401656
      Cartesian components [Ang]: [  0.853004,   0.840245,   0.728706]
    Electron size [Ang]:            1.361762
      Cartesian components [Ang]: [  0.879567,   0.864272,   0.577746]
--------------------------------------------------------------------------------
  MP(2) calculation ...  CPU 0.28 s  wall 0.20 s
  Start ADC(2)-s ...  CPU 0.02 s  wall 0.01 s
  ADC(2) intermediates ...  CPU 0.04 s  wall 0.01 s
  Starting Davidson for singlet states of irrep A ... 
--------------------------------------------------------------------------------
   It NVec Conv  Avg. Norm  Max. Norm  Conv. states           Remark
--------------------------------------------------------------------------------
        10    0  1.329e-01  4.687e-01  0.4117 n n n n n n n n Guess.
    1   20    0  2.312e-02  1.125e-01  0.3261 n n n n n n n n 
    2   30    0  5.847e-03  2.463e-02  0.3213 n n n n n n n n 
    3   40    0  1.756e-03  1.055e-02  0.3209 n n n n n n n n 
    4   50    0  5.116e-04  3.661e-03  0.3209 n n n n n n n n 
    5   20    0  2.615e-04  1.730e-03  0.3209 n n n n n n n n Subspace collapsed.
    6   30    0  1.130e-04  8.275e-04  0.3209 n n n n n n n n 
    7   40    0  6.937e-05  6.031e-04  0.3209 n n n n n n n n 
    8   50    0  3.806e-05  3.250e-04  0.3209 n n n n n n n n 
    9   20    2  2.417e-05  2.166e-04  0.3209 n y n y n n n n Subspace collapsed.
   10   30    4  1.834e-05  1.666e-04  0.3209 n y y y y n n n 
   11   40    5  7.397e-06  6.318e-05  0.3209 n y y y y y n n 
   12   50    6  3.221e-06  2.581e-05  0.3209 y y y y y y n n 
   13   20    7  1.965e-06  1.474e-05  0.3209 y y y y y y n y Subspace collapsed.
   14   30    8  1.434e-06  1.143e-05  0.3209 y y y y y y n y 
   15   40    8  1.054e-06  8.206e-06  0.3209 y y y y y y n y 
   16   50    8  4.505e-07  3.458e-06  0.3209 y y y y y y n y 
   17   20    8  2.388e-07  1.879e-06  0.3209 y y y y y y n y Subspace collapsed.
   18   30    8  1.964e-07  1.647e-06  0.3209 y y y y y y n y 
   19   40    9  1.167e-07  1.074e-06  0.3209 y y y y y y y y 
   20   50   10  6.943e-08  6.620e-07  0.3209 y y y y y y y y Converged.
--------------------------------------------------------------------------------
  Davidson Summary: 
 ------------------------------------------------------------
  State  0: excitation energy =   0.3209 a.u.   (converged)
  State  1: excitation energy =   0.3290 a.u.   (converged)
  State  2: excitation energy =   0.3359 a.u.   (converged)
  State  3: excitation energy =   0.3579 a.u.   (converged)
  State  4: excitation energy =   0.3733 a.u.   (converged)
  State  5: excitation energy =   0.3866 a.u.   (converged)
  State  6: excitation energy =   0.4202 a.u.   (converged)
  State  7: excitation energy =   0.4435 a.u.   (converged)
  State  8: excitation energy =   0.4537 a.u.   (converged)
  State  9: excitation energy =   0.4585 a.u.   (converged)
 ------------------------------------------------------------

  Singlet states of irrep A ...  CPU 144.89 s  wall 45.97 s
  TDMs ...  CPU 3.03 s  wall 1.00 s
  SDMs ...  CPU 5.15 s  wall 1.71 s
  Starting TPA DIIS iterations ... 
------------------------------------ 
   It     Res. Norm  Remark
------------------------------------
                       Guess.
    1     4.397e+00  
    2     5.834e+00  
    3     1.086e+00  
    4     2.633e-01  
    5     6.571e-02  
    6     2.778e-02  
    7     8.477e-03  
    8     1.551e-03  
    9     5.828e-04  
   10     9.776e-05  
   11     3.154e-05  
   12     4.883e-06  
   13     1.646e-06  
   14     4.801e-07  Converged.
   ... Converged in 14 steps (norm: 4.8011e-07)
------------------------------------
  Starting TPA DIIS iterations ... 
------------------------------------ 
   It     Res. Norm  Remark
------------------------------------
                       Guess.
    1     4.187e+00  
    2     5.545e+00  
    3     1.037e+00  
    4     2.614e-01  
    5     6.544e-02  
    6     2.777e-02  
    7     8.334e-03  
    8     1.571e-03  
    9     5.918e-04  
   10     9.730e-05  
   11     3.185e-05  
   12     4.851e-06  
   13     1.672e-06  
   14     4.755e-07  Converged.
   ... Converged in 14 steps (norm: 4.75546e-07)
------------------------------------
  Starting TPA DIIS iterations ... 
------------------------------------ 
   It     Res. Norm  Remark
------------------------------------
                       Guess.
    1     6.855e-01  
    2     4.794e-01  
    3     1.687e-01  
    4     6.350e-02  
    5     1.873e-02  
    6     6.690e-03  
    7     1.074e-03  
    8     4.585e-04  
    9     1.264e-04  
   10     3.062e-05  
   11     5.154e-06  
   12     1.826e-06  
   13     8.901e-07  Converged.
   ... Converged in 13 steps (norm: 8.90098e-07)
------------------------------------
  Starting TPA DIIS iterations ... 
------------------------------------ 
   It     Res. Norm  Remark
------------------------------------
                       Guess.
    1     4.593e+00  
    2     6.185e+00  
    3     1.142e+00  
    4     2.833e-01  
    5     7.138e-02  
    6     3.038e-02  
    7     9.259e-03  
    8     1.693e-03  
    9     6.393e-04  
   10     1.077e-04  
   11     3.497e-05  
   12     5.447e-06  
   13     1.845e-06  
   14     5.369e-07  Converged.
   ... Converged in 14 steps (norm: 5.36906e-07)
------------------------------------
  Starting TPA DIIS iterations ... 
------------------------------------ 
   It     Res. Norm  Remark
------------------------------------
                       Guess.
    1     4.373e+00  
    2     5.879e+00  
    3     1.090e+00  
    4     2.811e-01  
    5     7.110e-02  
    6     3.039e-02  
    7     9.104e-03  
    8     1.715e-03  
    9     6.494e-04  
   10     1.072e-04  
   11     3.530e-05  
   12     5.409e-06  
   13     1.876e-06  
   14     5.316e-07  Converged.
   ... Converged in 14 steps (norm: 5.31599e-07)
------------------------------------
  Starting TPA DIIS iterations ... 
------------------------------------ 
   It     Res. Norm  Remark
------------------------------------
                       Guess.
    1     6.938e-01  
    2     4.912e-01  
    3     1.753e-01  
    4     6.918e-02  
    5     1.971e-02  
    6     7.110e-03  
    7     1.166e-03  
    8     5.137e-04  
    9     1.440e-04  
   10     3.390e-05  
   11     5.615e-06  
   12     2.047e-06  
   13     1.035e-06  
   14     3.837e-07  Converged.
   ... Converged in 14 steps (norm: 3.83731e-07)
------------------------------------
  Starting TPA DIIS iterations ... 
------------------------------------ 
   It     Res. Norm  Remark
------------------------------------
                       Guess.
    1     4.773e+00  
    2     6.512e+00  
    3     1.193e+00  
    4     3.022e-01  
    5     7.674e-02  
    6     3.285e-02  
    7     9.998e-03  
    8     1.827e-03  
    9     6.929e-04  
   10     1.171e-04  
   11     3.826e-05  
   12     5.989e-06  
   13     2.038e-06  
   14     5.915e-07  Converged.
   ... Converged in 14 steps (norm: 5.91507e-07)
------------------------------------
  Starting TPA DIIS iterations ... 
------------------------------------ 
   It     Res. Norm  Remark
------------------------------------
                       Guess.
    1     4.544e+00  
    2     6.189e+00  
    3     1.138e+00  
    4     2.996e-01  
    5     7.644e-02  
    6     3.287e-02  
    7     9.831e-03  
    8     1.852e-03  
    9     7.041e-04  
   10     1.166e-04  
   11     3.861e-05  
   12     5.945e-06  
   13     2.073e-06  
   14     5.855e-07  Converged.
   ... Converged in 14 steps (norm: 5.85493e-07)
------------------------------------
  Starting TPA DIIS iterations ... 
------------------------------------ 
   It     Res. Norm  Remark
------------------------------------
                       Guess.
    1     7.011e-01  
    2     5.018e-01  
    3     1.813e-01  
    4     7.463e-02  
    5     2.059e-02  
    6     7.505e-03  
    7     1.255e-03  
    8     5.678e-04  
    9     1.612e-04  
   10     3.659e-05  
   11     6.046e-06  
   12     2.261e-06  
   13     1.182e-06  
   14     4.304e-07  Converged.
   ... Converged in 14 steps (norm: 4.30415e-07)
------------------------------------
  Starting TPA DIIS iterations ... 
------------------------------------ 
   It     Res. Norm  Remark
------------------------------------
                       Guess.
    1     5.423e+00  
    2     7.721e+00  
    3     1.377e+00  
    4     3.743e-01  
    5     9.726e-02  
    6     4.241e-02  
    7     1.283e-02  
    8     2.339e-03  
    9     9.003e-04  
   10     1.536e-04  
   11     5.124e-05  
   12     8.130e-06  
   13     2.816e-06  
   14     8.088e-07  Converged.
   ... Converged in 14 steps (norm: 8.08813e-07)
------------------------------------
  Starting TPA DIIS iterations ... 
------------------------------------ 
   It     Res. Norm  Remark
------------------------------------
                       Guess.
    1     5.161e+00  
    2     7.337e+00  
    3     1.313e+00  
    4     3.705e-01  
    5     9.690e-02  
    6     4.249e-02  
    7     1.262e-02  
    8     2.376e-03  
    9     9.156e-04  
   10     1.530e-04  
   11     5.164e-05  
   12     8.060e-06  
   13     2.867e-06  
   14     8.002e-07  Converged.
   ... Converged in 14 steps (norm: 8.0018e-07)
------------------------------------
  Starting TPA DIIS iterations ... 
------------------------------------ 
   It     Res. Norm  Remark
------------------------------------
                       Guess.
    1     7.252e-01  
    2     5.380e-01  
    3     2.026e-01  
    4     9.603e-02  
    5     2.377e-02  
    6     9.019e-03  
    7     1.606e-03  
    8     7.849e-04  
    9     2.293e-04  
   10     4.341e-05  
   11     7.671e-06  
   12     3.132e-06  
   13     1.827e-06  
   14     6.194e-07  Converged.
   ... Converged in 14 steps (norm: 6.19422e-07)
------------------------------------
  Starting TPA DIIS iterations ... 
------------------------------------ 
   It     Res. Norm  Remark
------------------------------------
                       Guess.
    1     5.973e+00  
    2     8.780e+00  
    3     1.531e+00  
    4     4.400e-01  
    5     1.159e-01  
    6     5.121e-02  
    7     1.541e-02  
    8     2.804e-03  
    9     1.091e-03  
   10     1.873e-04  
   11     6.342e-05  
   12     1.014e-05  
   13     3.564e-06  
   14     1.017e-06  
   15     3.305e-07  Converged.
   ... Converged in 15 steps (norm: 3.30528e-07)
------------------------------------
  Starting TPA DIIS iterations ... 
------------------------------------ 
   It     Res. Norm  Remark
------------------------------------
                       Guess.
    1     5.683e+00  
    2     8.342e+00  
    3     1.460e+00  
    4     4.349e-01  
    5     1.155e-01  
    6     5.135e-02  
    7     1.517e-02  
    8     2.852e-03  
    9     1.110e-03  
   10     1.865e-04  
   11     6.385e-05  
   12     1.004e-05  
   13     3.630e-06  
   14     1.006e-06  
   15     3.293e-07  Converged.
   ... Converged in 15 steps (norm: 3.29258e-07)
------------------------------------
  Starting TPA DIIS iterations ... 
------------------------------------ 
   It     Res. Norm  Remark
------------------------------------
                       Guess.
    1     7.432e-01  
    2     5.667e-01  
    3     2.200e-01  
    4     1.160e-01  
    5     2.649e-02  
    6     1.040e-02  
    7     1.943e-03  
    8     9.835e-04  
    9     2.898e-04  
   10     4.621e-05  
   11     9.153e-06  
   12     3.967e-06  
   13     2.507e-06  
   14     8.002e-07  Converged.
   ... Converged in 14 steps (norm: 8.00197e-07)
------------------------------------
  Starting TPA DIIS iterations ... 
------------------------------------ 
   It     Res. Norm  Remark
------------------------------------
                       Guess.
    1     6.524e+00  
    2     9.869e+00  
    3     1.685e+00  
    4     5.097e-01  
    5     1.357e-01  
    6     6.065e-02  
    7     1.815e-02  
    8     3.295e-03  
    9     1.295e-03  
   10     2.234e-04  
   11     7.658e-05  
   12     1.232e-05  
   13     4.383e-06  
   14     1.250e-06  
   15     4.090e-07  Converged.
   ... Converged in 15 steps (norm: 4.09033e-07)
------------------------------------
  Starting TPA DIIS iterations ... 
------------------------------------ 
   It     Res. Norm  Remark
------------------------------------
                       Guess.
    1     6.206e+00  
    2     9.377e+00  
    3     1.606e+00  
    4     5.031e-01  
    5     1.352e-01  
    6     6.086e-02  
    7     1.787e-02  
    8     3.356e-03  
    9     1.319e-03  
   10     2.225e-04  
   11     7.701e-05  
   12     1.218e-05  
   13     4.465e-06  
   14     1.237e-06  
   15     4.070e-07  Converged.
   ... Converged in 15 steps (norm: 4.07016e-07)
------------------------------------
  Starting TPA DIIS iterations ... 
------------------------------------ 
   It     Res. Norm  Remark
------------------------------------
                       Guess.
    1     7.594e-01  
    2     5.938e-01  
    3     2.368e-01  
    4     1.376e-01  
    5     2.929e-02  
    6     1.187e-02  
    7     2.316e-03  
    8     1.182e-03  
    9     3.501e-04  
   10     4.773e-05  
   11     1.076e-05  
   12     4.875e-06  
   13     3.297e-06  
   14     9.969e-07  Converged.
   ... Converged in 14 steps (norm: 9.96947e-07)
------------------------------------
  Starting TPA DIIS iterations ... 
------------------------------------ 
   It     Res. Norm  Remark
------------------------------------
                       Guess.
    1     8.345e+00  
    2     1.366e+01  
    3     2.185e+00  
    4     7.631e-01  
    5     2.076e-01  
    6     9.571e-02  
    7     2.814e-02  
    8     5.079e-03  
    9     2.050e-03  
   10     3.566e-04  
   11     1.248e-04  
   12     2.042e-05  
   13     7.404e-06  
   14     2.197e-06  
   15     7.057e-07  Converged.
   ... Converged in 15 steps (norm: 7.0574e-07)
------------------------------------
  Starting TPA DIIS iterations ... 
------------------------------------ 
   It     Res. Norm  Remark
------------------------------------
                       Guess.
    1     7.934e+00  
    2     1.298e+01  
    3     2.081e+00  
    4     7.504e-01  
    5     2.070e-01  
    6     9.623e-02  
    7     2.771e-02  
    8     5.188e-03  
    9     2.089e-03  
   10     3.552e-04  
   11     1.252e-04  
   12     2.015e-05  
   13     7.531e-06  
   14     2.176e-06  
   15     7.001e-07  Converged.
   ... Converged in 15 steps (norm: 7.00089e-07)
------------------------------------
  Starting TPA DIIS iterations ... 
------------------------------------ 
   It     Res. Norm  Remark
------------------------------------
                       Guess.
    1     8.039e-01  
    2     6.749e-01  
    3     2.896e-01  
    4     2.157e-01  
    5     3.916e-02  
    6     1.722e-02  
    7     3.777e-03  
    8     1.725e-03  
    9     5.355e-04  
   10     5.557e-05  
   11     1.697e-05  
   12     8.187e-06  
   13     6.506e-06  
   14     1.728e-06  
   15     6.060e-07  Converged.
   ... Converged in 15 steps (norm: 6.05993e-07)
------------------------------------
  Starting TPA DIIS iterations ... 
------------------------------------ 
   It     Res. Norm  Remark
------------------------------------
                       Guess.
    1     1.014e+01  
    2     1.767e+01  
    3     2.668e+00  
    4     1.041e+00  
    5     2.873e-01  
    6     1.355e-01  
    7     3.920e-02  
    8     7.045e-03  
    9     2.901e-03  
   10     5.059e-04  
   11     1.764e-04  
   12     2.966e-05  
   13     1.063e-05  
   14     3.405e-06  
   15     1.092e-06  
   16     2.436e-07  Converged.
   ... Converged in 16 steps (norm: 2.43577e-07)
------------------------------------
  Starting TPA DIIS iterations ... 
------------------------------------ 
   It     Res. Norm  Remark
------------------------------------
                       Guess.
    1     9.642e+00  
    2     1.678e+01  
    3     2.539e+00  
    4     1.021e+00  
    5     2.865e-01  
    6     1.364e-01  
    7     3.862e-02  
    8     7.211e-03  
    9     2.957e-03  
   10     5.036e-04  
   11     1.768e-04  
   12     2.924e-05  
   13     1.080e-05  
   14     3.360e-06  
   15     1.085e-06  
   16     2.517e-07  Converged.
   ... Converged in 16 steps (norm: 2.51738e-07)
------------------------------------
  Starting TPA DIIS iterations ... 
------------------------------------ 
   It     Res. Norm  Remark
------------------------------------
                       Guess.
    1     8.385e-01  
    2     7.458e-01  
    3     3.381e-01  
    4     2.959e-01  
    5     4.969e-02  
    6     2.291e-02  
    7     5.482e-03  
    8     2.025e-03  
    9     6.992e-04  
   10     7.274e-05  
   11     2.429e-05  
   12     1.165e-05  
   13     1.023e-05  
   14     2.528e-06  
   15     8.192e-07  Converged.
   ... Converged in 15 steps (norm: 8.1922e-07)
------------------------------------
  Starting TPA DIIS iterations ... 
------------------------------------ 
   It     Res. Norm  Remark
------------------------------------
                       Guess.
    1     1.114e+01  
    2     1.997e+01  
    3     2.929e+00  
    4     1.203e+00  
    5     3.343e-01  
    6     1.592e-01  
    7     4.573e-02  
    8     8.201e-03  
    9     3.408e-03  
   10     5.942e-04  
   11     2.057e-04  
   12     3.534e-05  
   13     1.253e-05  
   14     4.170e-06  
   15     1.391e-06  
   16     3.074e-07  Converged.
   ... Converged in 16 steps (norm: 3.0736e-07)
------------------------------------
  Starting TPA DIIS iterations ... 
------------------------------------ 
   It     Res. Norm  Remark
------------------------------------
                       Guess.
    1     1.058e+01  
    2     1.897e+01  
    3     2.787e+00  
    4     1.178e+00  
    5     3.334e-01  
    6     1.604e-01  
    7     4.505e-02  
    8     8.401e-03  
    9     3.474e-03  
   10     5.915e-04  
   11     2.062e-04  
   12     3.482e-05  
   13     1.273e-05  
   14     4.105e-06  
   15     1.386e-06  
   16     3.161e-07  Converged.
   ... Converged in 16 steps (norm: 3.16143e-07)
------------------------------------
  Starting TPA DIIS iterations ... 
------------------------------------ 
   It     Res. Norm  Remark
------------------------------------
                       Guess.
    1     8.548e-01  
    2     7.821e-01  
    3     3.636e-01  
    4     3.383e-01  
    5     5.574e-02  
    6     2.607e-02  
    7     6.496e-03  
    8     2.114e-03  
    9     7.840e-04  
   10     8.454e-05  
   11     2.874e-05  
   12     1.359e-05  
   13     1.245e-05  
   14     2.982e-06  
   15     9.240e-07  Converged.
   ... Converged in 15 steps (norm: 9.24017e-07)
------------------------------------
  Starting TPA DIIS iterations ... 
------------------------------------ 
   It     Res. Norm  Remark
------------------------------------
                       Guess.
    1     1.165e+01  
    2     2.120e+01  
    3     3.063e+00  
    4     1.290e+00  
    5     3.595e-01  
    6     1.721e-01  
    7     4.923e-02  
    8     8.821e-03  
    9     3.681e-03  
   10     6.416e-04  
   11     2.212e-04  
   12     3.847e-05  
   13     1.358e-05  
   14     4.595e-06  
   15     1.579e-06  
   16     3.437e-07  Converged.
   ... Converged in 16 steps (norm: 3.43673e-07)
------------------------------------
  Starting TPA DIIS iterations ... 
------------------------------------ 
   It     Res. Norm  Remark
------------------------------------
                       Guess.
    1     1.107e+01  
    2     2.014e+01  
    3     2.915e+00  
    4     1.262e+00  
    5     3.585e-01  
    6     1.734e-01  
    7     4.850e-02  
    8     9.040e-03  
    9     3.753e-03  
   10     6.386e-04  
   11     2.218e-04  
   12     3.789e-05  
   13     1.380e-05  
   14     4.517e-06  
   15     1.574e-06  
   16     3.513e-07  Converged.
   ... Converged in 16 steps (norm: 3.51325e-07)
------------------------------------
  Starting TPA DIIS iterations ... 
------------------------------------ 
   It     Res. Norm  Remark
------------------------------------
                       Guess.
    1     8.627e-01  
    2     8.003e-01  
    3     3.765e-01  
    4     3.594e-01  
    5     5.893e-02  
    6     2.769e-02  
    7     7.037e-03  
    8     2.147e-03  
    9     8.270e-04  
   10     9.100e-05  
   11     3.114e-05  
   12     1.463e-05  
   13     1.366e-05  
   14     3.219e-06  
   15     9.781e-07  Converged.
   ... Converged in 15 steps (norm: 9.78074e-07)
------------------------------------
  Two-photon absorbption ...  CPU 160.46 s  wall 44.73 s
  Transition density matrix of state singlet_A_1 printed to ASCII file 'State_singlet_A_1_Transition.txt'
  Transition density matrix of state singlet_A_2 printed to ASCII file 'State_singlet_A_2_Transition.txt'
  Transition density matrix of state singlet_A_3 printed to ASCII file 'State_singlet_A_3_Transition.txt'
  Transition density matrix of state singlet_A_4 printed to ASCII file 'State_singlet_A_4_Transition.txt'
  Transition density matrix of state singlet_A_5 printed to ASCII file 'State_singlet_A_5_Transition.txt'
  Transition density matrix of state singlet_A_6 printed to ASCII file 'State_singlet_A_6_Transition.txt'
  Transition density matrix of state singlet_A_7 printed to ASCII file 'State_singlet_A_7_Transition.txt'
  Transition density matrix of state singlet_A_8 printed to ASCII file 'State_singlet_A_8_Transition.txt'
  Transition density matrix of state singlet_A_9 printed to ASCII file 'State_singlet_A_9_Transition.txt'
  Transition density matrix of state singlet_A_10 printed to ASCII file 'State_singlet_A_10_Transition.txt'
  Transition properties ...  CPU 0.48 s  wall 0.60 s
  Difference density matrix of state singlet_A_1 printed to ASCII file 'State_singlet_A_1_Difference.txt'
  Total density matrix of state singlet_A_1 printed to ASCII file 'State_singlet_A_1_Total.txt'
  Difference density matrix of state singlet_A_2 printed to ASCII file 'State_singlet_A_2_Difference.txt'
  Total density matrix of state singlet_A_2 printed to ASCII file 'State_singlet_A_2_Total.txt'
  Difference density matrix of state singlet_A_3 printed to ASCII file 'State_singlet_A_3_Difference.txt'
  Total density matrix of state singlet_A_3 printed to ASCII file 'State_singlet_A_3_Total.txt'
  Difference density matrix of state singlet_A_4 printed to ASCII file 'State_singlet_A_4_Difference.txt'
  Total density matrix of state singlet_A_4 printed to ASCII file 'State_singlet_A_4_Total.txt'
  Difference density matrix of state singlet_A_5 printed to ASCII file 'State_singlet_A_5_Difference.txt'
  Total density matrix of state singlet_A_5 printed to ASCII file 'State_singlet_A_5_Total.txt'
  Difference density matrix of state singlet_A_6 printed to ASCII file 'State_singlet_A_6_Difference.txt'
  Total density matrix of state singlet_A_6 printed to ASCII file 'State_singlet_A_6_Total.txt'
  Difference density matrix of state singlet_A_7 printed to ASCII file 'State_singlet_A_7_Difference.txt'
  Total density matrix of state singlet_A_7 printed to ASCII file 'State_singlet_A_7_Total.txt'
  Difference density matrix of state singlet_A_8 printed to ASCII file 'State_singlet_A_8_Difference.txt'
  Total density matrix of state singlet_A_8 printed to ASCII file 'State_singlet_A_8_Total.txt'
  Difference density matrix of state singlet_A_9 printed to ASCII file 'State_singlet_A_9_Difference.txt'
  Total density matrix of state singlet_A_9 printed to ASCII file 'State_singlet_A_9_Total.txt'
  Difference density matrix of state singlet_A_10 printed to ASCII file 'State_singlet_A_10_Difference.txt'
  Total density matrix of state singlet_A_10 printed to ASCII file 'State_singlet_A_10_Total.txt'
  Properties ...  CPU 0.64 s  wall 0.93 s
  ISR TDMS ...  CPU 32.97 s  wall 10.39 s
  ISR transition properties ...  CPU 0.53 s  wall 0.26 s
  Sum-over-states TPA ...  CPU 0.00 s  wall 0.00 s

--------------------------------------------------------------------------------
                   State-averaged natural transition orbitals
--------------------------------------------------------------------------------
--------------------------------------------------------------------------------
  SA-NTO decomposition ...  CPU 0.01 s  wall 0.04 s

--------------------------------------------------------------------------------
                             Excited State Summary
--------------------------------------------------------------------------------
--------------------------------------------------------------------------------

  Excited state 1 (singlet, A)                                     [converged]
  ----------------------------------------------------------------------------
  Term symbol:  2 (1) A                                     R^2 =  3.80090e-10

  Total energy:                                            -77.9992387414 a.u.
  Excitation energy:                                               8.731815 eV

  Osc. strength:                                                      0.446208
  Trans. dip. moment [a.u.]:           [  -1.047181,    0.994549,    0.009709]
  <i|r^2|0> [a.u.]:                    [  -6.177843,    0.247237,    0.000047]
  Two-photon absorption cross-section (SoS) [a.u.]:                   0.001746
  Two-photon absorption matrix (SoS) [a.u.]:
                                       |    0.004254    0.011930    0.001369 |
                                       |    0.011930    0.005481    0.001442 |
                                       |    0.001369    0.001442   -0.009789 |
  Two-photon absorption cross-section [a.u.]:                         0.001241
  Two-photon absorption matrix [a.u.]:
                                       |   -0.001166    0.007041    0.001162 |
                                       |    0.007041   -0.000413    0.001200 |
                                       |    0.001162    0.001200   -0.011113 |

  Dip. moment [a.u.]:                  [  -0.000720,    0.000681,    0.000027]
  Total dipole [Debye]:                                               0.002519
  <r^2> [a.u.]:                        [ 176.629664,   36.018764,   11.918945]
  Total <r^2> [a.u.]:                                               224.567373

  V1^2 = 0.9713, V2^2 = 0.0287

  Important amplitudes:
      occ i     occ j     vir a      vir b          v   
    -----------------------------------------------------
     8 (A) A              9 (A) A                 0.6809
     6 (A) A             14 (A) A                -0.0617
     4 (A) A             10 (A) A                 0.0614
     7 (A) A             16 (A) A                -0.0575
     5 (A) A             13 (A) A                 0.0527
     6 (A) A             23 (A) A                -0.0485
     8 (A) A             20 (A) A                -0.0348
     6 (A) A             19 (A) A                -0.0302
     3 (A) A             12 (A) A                -0.0285
     5 (A) A             22 (A) A                 0.0218
     4 (A) A             24 (A) A                 0.0188
     3 (A) A             26 (A) A                -0.0187
     7 (A) A             11 (A) A                -0.0186
     8 (A) A   8 (A) B   17 (A) A   20 (A) B      0.0184
     8 (A) A   8 (A) B    9 (A) A   28 (A) B      0.0168
     6 (A) A             26 (A) A                 0.0163
     7 (A) A             21 (A) A                 0.0152
     3 (A) A             14 (A) A                 0.0143
     6 (A) A             12 (A) A                -0.0136
     3 (A) A   4 (A) B    9 (A) A    9 (A) B     -0.0129
     3 (A) A             19 (A) A                 0.0121
     8 (A) A   8 (A) B   18 (A) A   19 (A) B     -0.0110
     7 (A) A             32 (A) A                 0.0097
     7 (A) A             36 (A) A                -0.0086
     3 (A) A             23 (A) A                 0.0082
     8 (A) A   8 (A) B   25 (A) A   29 (A) B      0.0076
     6 (A) A             35 (A) A                 0.0071
     6 (A) A             40 (A) A                 0.0067
     3 (A) A   6 (A) B    9 (A) A   28 (A) B     -0.0065
     5 (A) A   8 (A) B   11 (A) A    9 (A) B     -0.0062
     7 (A) A   8 (A) B   13 (A) A   20 (A) B      0.0060
     5 (A) A   8 (A) B   11 (A) A   20 (A) B     -0.0060
     5 (A) A   7 (A) B    9 (A) A    9 (A) B     -0.0060
     6 (A) A   8 (A) A   19 (A) A   28 (A) A      0.0060
     5 (A) A             27 (A) A                 0.0060
     5 (A) A   8 (A) B   16 (A) A    9 (A) B      0.0059
     3 (A) A   5 (A) B    9 (A) A   25 (A) B     -0.0058
     7 (A) A   8 (A) B   22 (A) A   20 (A) B      0.0057
     3 (A) A             40 (A) A                -0.0056
     8 (A) A   8 (A) B   19 (A) A   30 (A) B     -0.0056
    -----------------------------------------------------

  Density matrix analysis:
  ------------------------
  NOs
    Occupation of frontier NOs:
       0.9491   1.0219
    Number of electrons: 16.000000
    Number of unpaired electrons: n_u =  2.31678, n_u,nl =  2.03329
    NO participation ratio (PR_NO):  2.874067
  
  
  Mulliken Population Analysis
  Atom      Charge (e)              h+              e-           Del q
  --------------------------------------------------------------------
   1 H        0.063540        0.020436       -0.012408        0.008028
   2 C       -0.128838        0.490680       -0.506824       -0.016144
   3 H        0.063551        0.020438       -0.012408        0.008030
   4 C       -0.123115        0.490651       -0.506585       -0.015935
   5 H        0.062436        0.020440       -0.012429        0.008011
   6 H        0.062426        0.020438       -0.012429        0.008009
  --------------------------------------------------------------------
  Sum:       -0.000000        1.063082       -1.063082        0.000000
  
  Multipole moment analysis of the density matrix
    Molecular charge:                      -0.000000
    Number of electrons:                   16.000000
      Center of electronic charge [Ang]: [ -1.561447,  -0.065183,   0.002127]
    Total nuclear charge:                  16.000000
      Center of nuclear charge [Ang]:    [ -1.561471,  -0.065161,   0.002128]
    Dipole moment [D]:                     0.002519
      Cartesian components [D]:          [ -0.001829,   0.001731,   0.000068]
    RMS size of the density [Ang]:         1.219819
      Cartesian components [Ang]:        [  0.808219,   0.791292,   0.456726]
  
  Exciton analysis of the difference density matrix
    <r_h> [Ang]:                  [ -1.561633,  -0.065004,   0.002121]
    <r_e> [Ang]:                  [ -1.561646,  -0.064992,   0.002120]
    |<r_e - r_h>| [Ang]:            0.000018
    Hole size [Ang]:                1.287296
      Cartesian components [Ang]: [  0.730184,   0.714790,   0.782968]
    Electron size [Ang]:            1.463845
      Cartesian components [Ang]: [  0.854312,   0.831684,   0.849290]

  Transition density matrix analysis:
  -----------------------------------
  
  CT numbers (Mulliken)
    omega =     0.9532
    <Phe> =    -0.1603
  
  Exciton analysis of the transition density matrix
    Trans. dipole moment [D]:             1.835438
      Cartesian components [D]:         [ -1.330835,   1.263946,   0.012338]
    <r_h> [Ang]:                        [ -1.561788,  -0.064857,   0.002124]
    <r_e> [Ang]:                        [ -1.561619,  -0.065018,   0.002118]
    |<r_e - r_h>| [Ang]:                  0.000234
    Hole size [Ang]:                      1.214402
      Cartesian components [Ang]:       [  0.649921,   0.637059,   0.804071]
    Electron size [Ang]:                  1.486739
      Cartesian components [Ang]:       [  0.864777,   0.840557,   0.869493]
    RMS electron-hole separation [Ang]:   1.937163
      Cartesian components [Ang]:       [  1.106770,   1.076278,   1.170165]
    Covariance(r_h, r_e) [Ang^2]:        -0.033718
    Correlation coefficient:             -0.018675
    Center-of-mass size [Ang]:            0.951017
      Cartesian components [Ang]:       [  0.528094,   0.516330,   0.599127]

  Decomposition into state-averaged NTOs
    H- 0 -> L+ 0: -0.6697 ( 89.7%)
    H- 2 -> L+ 5: -0.0830 (  1.4%)
                   omega =  95.3%
  ----------------------------------------------------------------------------


  Excited state 2 (singlet, A)                                     [converged]
  ----------------------------------------------------------------------------
  Term symbol:  3 (1) A                                     R^2 =  2.42369e-12

  Total energy:                                            -77.9911315937 a.u.
  Excitation energy:                                               8.952422 eV

  Osc. strength:                                                      0.000000
  Trans. dip. moment [a.u.]:           [   0.000541,   -0.000497,   -0.000020]
  <i|r^2|0> [a.u.]:                    [   0.069131,    0.086714,   -0.152776]
  Two-photon absorption cross-section (SoS) [a.u.]:                   4.564674
  Two-photon absorption matrix (SoS) [a.u.]:
                                       |    0.049917    0.057398   -0.514396 |
                                       |    0.057398    0.065528   -0.540952 |
                                       |   -0.514396   -0.540952   -0.115451 |
  Two-photon absorption cross-section [a.u.]:                         0.172549
  Two-photon absorption matrix [a.u.]:
                                       |   -0.008923   -0.011122    0.100063 |
                                       |   -0.011122   -0.013527    0.105114 |
                                       |    0.100063    0.105114    0.022452 |

  Dip. moment [a.u.]:                  [   0.008894,   -0.008421,   -0.000044]
  Total dipole [Debye]:                                               0.031132
  <r^2> [a.u.]:                        [ 175.022499,   34.362818,   13.214921]
  Total <r^2> [a.u.]:                                               222.600238

  V1^2 = 0.9541, V2^2 = 0.0459

  Important amplitudes:
      occ i     occ j     vir a      vir b          v   
    -----------------------------------------------------
     7 (A) A              9 (A) A                -0.6685
     8 (A) A             11 (A) A                 0.1513
     7 (A) A             20 (A) A                 0.0756
     5 (A) A   8 (A) B    9 (A) A    9 (A) B      0.0315
     8 (A) A             16 (A) A                -0.0281
     8 (A) A             21 (A) A                -0.0178
     5 (A) A             28 (A) A                -0.0150
     4 (A) A   7 (A) B    9 (A) A   19 (A) B      0.0136
     5 (A) A   7 (A) B    9 (A) A   16 (A) B      0.0134
     7 (A) A   8 (A) B   20 (A) A   17 (A) B     -0.0106
     7 (A) A   8 (A) A    9 (A) A   28 (A) A      0.0098
     5 (A) A   8 (A) B    9 (A) A   20 (A) B     -0.0094
     4 (A) A   6 (A) B    9 (A) A   16 (A) B      0.0091
     5 (A) A   6 (A) A    9 (A) A   23 (A) A      0.0090
     5 (A) A   6 (A) A    9 (A) A   14 (A) A      0.0089
     5 (A) A   6 (A) B    9 (A) A   19 (A) B      0.0086
     8 (A) A   7 (A) B    9 (A) A   28 (A) B     -0.0085
     6 (A) A   7 (A) B    9 (A) A   18 (A) B     -0.0085
     4 (A) A   5 (A) A    9 (A) A   10 (A) A      0.0085
     5 (A) A   6 (A) B    9 (A) A   23 (A) B      0.0080
     3 (A) A   7 (A) B    9 (A) A   18 (A) B     -0.0080
     5 (A) A   7 (A) A    9 (A) A   16 (A) A      0.0078
     4 (A) A   8 (A) B    9 (A) A   25 (A) B      0.0076
     4 (A) A   7 (A) B   19 (A) A    9 (A) B      0.0075
     7 (A) A   8 (A) B   17 (A) A   20 (A) B     -0.0074
     5 (A) A   5 (A) B    9 (A) A   13 (A) B     -0.0073
     7 (A) A   8 (A) B   19 (A) A   18 (A) B      0.0071
     4 (A) A   5 (A) B    9 (A) A   18 (A) B     -0.0069
     5 (A) A   8 (A) A    9 (A) A   20 (A) A     -0.0068
     7 (A) A   7 (A) B   20 (A) A   22 (A) B     -0.0066
     7 (A) A   8 (A) B   17 (A) A    9 (A) B      0.0065
     5 (A) A   6 (A) B    9 (A) A   14 (A) B      0.0063
     5 (A) A   7 (A) B   11 (A) A   20 (A) B      0.0062
     4 (A) A   5 (A) B   10 (A) A    9 (A) B     -0.0061
     4 (A) A   7 (A) A    9 (A) A   19 (A) A      0.0061
     5 (A) A             38 (A) A                 0.0060
     4 (A) A   6 (A) B   16 (A) A    9 (A) B      0.0058
     4 (A) A   8 (A) A    9 (A) A   25 (A) A      0.0057
     6 (A) A   7 (A) A   19 (A) A   28 (A) A     -0.0056
     5 (A) A   7 (A) A   11 (A) A   20 (A) A      0.0054
    -----------------------------------------------------

  Density matrix analysis:
  ------------------------
  NOs
    Occupation of frontier NOs:
       0.9560   1.0553
    Number of electrons: 16.000000
    Number of unpaired electrons: n_u =  2.35842, n_u,nl =  2.06490
    NO participation ratio (PR_NO):  3.045338
  
  
  Mulliken Population Analysis
  Atom      Charge (e)              h+              e-           Del q
  --------------------------------------------------------------------
   1 H        0.156801        0.126089       -0.024799        0.101290
   2 C       -0.312411        0.274420       -0.474137       -0.199717
   3 H        0.156782        0.126075       -0.024814        0.101260
   4 C       -0.307880        0.270756       -0.471456       -0.200700
   5 H        0.153350        0.123715       -0.024789        0.098926
   6 H        0.153358        0.123737       -0.024795        0.098942
  --------------------------------------------------------------------
  Sum:       -0.000000        1.044791       -1.044791       -0.000000
  
  Multipole moment analysis of the density matrix
    Molecular charge:                      -0.000000
    Number of electrons:                   16.000000
      Center of electronic charge [Ang]: [ -1.561765,  -0.064882,   0.002130]
    Total nuclear charge:                  16.000000
      Center of nuclear charge [Ang]:    [ -1.561471,  -0.065161,   0.002128]
    Dipole moment [D]:                     0.031132
      Cartesian components [D]:          [  0.022606,  -0.021404,  -0.000112]
    RMS size of the density [Ang]:         1.205229
      Cartesian components [Ang]:        [  0.789997,   0.772788,   0.480916]
  
  Exciton analysis of the difference density matrix
    <r_h> [Ang]:                  [ -1.555527,  -0.070819,   0.002074]
    <r_e> [Ang]:                  [ -1.560409,  -0.066196,   0.002108]
    |<r_e - r_h>| [Ang]:            0.006723
    Hole size [Ang]:                1.496135
      Cartesian components [Ang]: [  1.013886,   1.001253,   0.456015]
    Electron size [Ang]:            1.480154
      Cartesian components [Ang]: [  0.884397,   0.862117,   0.815753]

  Transition density matrix analysis:
  -----------------------------------
  
  CT numbers (Mulliken)
    omega =     0.9214
    <Phe> =    -0.0114
  
  Exciton analysis of the transition density matrix
    Trans. dipole moment [D]:             0.000934
      Cartesian components [D]:         [  0.000688,  -0.000631,  -0.000026]
    <r_h> [Ang]:                        [ -1.554607,  -0.071693,   0.002068]
    <r_e> [Ang]:                        [ -1.561118,  -0.065523,   0.002112]
    |<r_e - r_h>| [Ang]:                  0.008970
    Hole size [Ang]:                      1.527074
      Cartesian components [Ang]:       [  1.038690,   1.026022,   0.447612]
    Electron size [Ang]:                  1.475563
      Cartesian components [Ang]:       [  0.873339,   0.850284,   0.831615]
    RMS electron-hole separation [Ang]:   2.103548
      Cartesian components [Ang]:       [  1.341054,   1.317575,   0.943654]
    Covariance(r_h, r_e) [Ang^2]:         0.042205
    Correlation coefficient:              0.018730
    Center-of-mass size [Ang]:            1.071640
      Cartesian components [Ang]:       [  0.686442,   0.673692,   0.472599]

  Decomposition into state-averaged NTOs
    H- 1 -> L+ 0:  0.6608 ( 87.3%)
    H- 0 -> L+ 2: -0.1513 (  4.6%)
                   omega =  92.1%
  ----------------------------------------------------------------------------


  Excited state 3 (singlet, A)                                     [converged]
  ----------------------------------------------------------------------------
  Term symbol:  4 (1) A                                     R^2 =  4.92074e-12

  Total energy:                                            -77.9841810785 a.u.
  Excitation energy:                                               9.141555 eV

  Osc. strength:                                                      0.023576
  Trans. dip. moment [a.u.]:           [   0.015403,    0.019669,   -0.323486]
  <i|r^2|0> [a.u.]:                    [   0.090399,    0.005372,    0.002560]
  Two-photon absorption cross-section (SoS) [a.u.]:                   0.000957
  Two-photon absorption matrix (SoS) [a.u.]:
                                       |   -0.002115   -0.000175    0.007684 |
                                       |   -0.000175    0.002305   -0.007461 |
                                       |    0.007684   -0.007461   -0.000018 |
  Two-photon absorption cross-section [a.u.]:                         0.000222
  Two-photon absorption matrix [a.u.]:
                                       |   -0.001288   -0.000121    0.003604 |
                                       |   -0.000121    0.001501   -0.003567 |
                                       |    0.003604   -0.003567    0.000003 |

  Dip. moment [a.u.]:                  [  -0.028568,    0.027325,    0.000257]
  Total dipole [Debye]:                                               0.100483
  <r^2> [a.u.]:                        [ 181.243254,   41.014742,   11.057224]
  Total <r^2> [a.u.]:                                               233.315220

  V1^2 = 0.9580, V2^2 = 0.0420

  Important amplitudes:
      occ i     occ j     vir a      vir b          v   
    -----------------------------------------------------
     8 (A) A             10 (A) A                 0.6887
     8 (A) A             24 (A) A                 0.0508
     8 (A) A             18 (A) A                -0.0332
     4 (A) A              9 (A) A                 0.0247
     8 (A) A   8 (A) B    9 (A) A   12 (A) B     -0.0223
     8 (A) A   8 (A) B   10 (A) A   17 (A) B      0.0172
     5 (A) A   8 (A) B   11 (A) A   10 (A) B     -0.0169
     8 (A) A             15 (A) A                -0.0149
     7 (A) A   8 (A) B   13 (A) A   10 (A) B      0.0143
     4 (A) A   8 (A) B   12 (A) A   10 (A) B     -0.0113
     6 (A) A   8 (A) A   10 (A) A   15 (A) A     -0.0112
     7 (A) A   8 (A) B   22 (A) A   10 (A) B      0.0109
     6 (A) A   8 (A) B   15 (A) A   10 (A) B      0.0109
     4 (A) A   8 (A) A   10 (A) A   12 (A) A      0.0108
     7 (A) A   8 (A) A   10 (A) A   22 (A) A     -0.0099
     7 (A) A   8 (A) A   10 (A) A   13 (A) A     -0.0098
     5 (A) A   8 (A) A   10 (A) A   11 (A) A      0.0097
     5 (A) A   8 (A) B   21 (A) A   10 (A) B      0.0094
     6 (A) A   8 (A) B   10 (A) A   10 (A) B      0.0090
     6 (A) A   8 (A) A   10 (A) A   18 (A) A      0.0086
     7 (A) A   8 (A) A   12 (A) A   16 (A) A      0.0084
     3 (A) A   4 (A) B   10 (A) A    9 (A) B     -0.0080
     5 (A) A   8 (A) A   10 (A) A   21 (A) A     -0.0079
     4 (A) A   8 (A) B   19 (A) A   10 (A) B      0.0075
     8 (A) A   8 (A) B    9 (A) A   23 (A) B     -0.0075
     8 (A) A   8 (A) B   10 (A) A   28 (A) B      0.0074
     5 (A) A   8 (A) B   10 (A) A   11 (A) B     -0.0072
     7 (A) A   8 (A) B   16 (A) A   12 (A) B     -0.0072
     3 (A) A   8 (A) A   10 (A) A   24 (A) A     -0.0072
     3 (A) A   8 (A) B   10 (A) A   10 (A) B      0.0071
     8 (A) A   8 (A) B    9 (A) A   19 (A) B      0.0070
     3 (A) A   8 (A) B   10 (A) A   18 (A) B     -0.0068
     6 (A) A   8 (A) B   18 (A) A   10 (A) B     -0.0065
     3 (A) A   6 (A) B   10 (A) A   28 (A) B     -0.0062
     7 (A) A   8 (A) B   12 (A) A   11 (A) B      0.0059
     6 (A) A             28 (A) A                 0.0058
     5 (A) A   8 (A) A   10 (A) A   16 (A) A     -0.0057
     3 (A) A   5 (A) B   10 (A) A   25 (A) B     -0.0056
     6 (A) A   8 (A) A   11 (A) A   16 (A) A      0.0055
     4 (A) A   8 (A) A   10 (A) A   23 (A) A      0.0055
    -----------------------------------------------------

  Density matrix analysis:
  ------------------------
  NOs
    Occupation of frontier NOs:
       0.9812   0.9847
    Number of electrons: 16.000000
    Number of unpaired electrons: n_u =  2.28864, n_u,nl =  2.02504
    NO participation ratio (PR_NO):  2.701209
  
  
  Mulliken Population Analysis
  Atom      Charge (e)              h+              e-           Del q
  --------------------------------------------------------------------
   1 H       -0.158544        0.054309       -0.268365       -0.214056
   2 C        0.309229        0.540422       -0.118499        0.421923
   3 H       -0.158561        0.054310       -0.268393       -0.214083
   4 C        0.311079        0.535753       -0.117493        0.418259
   5 H       -0.151579        0.054399       -0.260402       -0.206004
   6 H       -0.151624        0.054396       -0.260436       -0.206040
  --------------------------------------------------------------------
  Sum:       -0.000000        1.293589       -1.293589        0.000000
  
  Multipole moment analysis of the density matrix
    Molecular charge:                      0.000000
    Number of electrons:                   16.000000
      Center of electronic charge [Ang]: [ -1.560526,  -0.066064,   0.002120]
    Total nuclear charge:                  16.000000
      Center of nuclear charge [Ang]:    [ -1.561471,  -0.065161,   0.002128]
    Dipole moment [D]:                     0.100483
      Cartesian components [D]:          [ -0.072613,   0.069454,   0.000654]
    RMS size of the density [Ang]:         1.282116
      Cartesian components [Ang]:        [  0.858393,   0.844670,   0.439905]
  
  Exciton analysis of the difference density matrix
    <r_h> [Ang]:                  [ -1.559754,  -0.066792,   0.002107]
    <r_e> [Ang]:                  [ -1.548372,  -0.077681,   0.002012]
    |<r_e - r_h>| [Ang]:            0.015752
    Hole size [Ang]:                1.412895
      Cartesian components [Ang]: [  0.836548,   0.822681,   0.787181]
    Electron size [Ang]:            2.079171
      Cartesian components [Ang]: [  1.376800,   1.380323,   0.722551]

  Transition density matrix analysis:
  -----------------------------------
  
  CT numbers (Mulliken)
    omega =     0.9250
    <Phe> =    -0.0109
  
  Exciton analysis of the transition density matrix
    Trans. dipole moment [D]:             0.412333
      Cartesian components [D]:         [  0.019576,   0.024997,  -0.411109]
    <r_h> [Ang]:                        [ -1.561542,  -0.065087,   0.002120]
    <r_e> [Ang]:                        [ -1.544022,  -0.081841,   0.001973]
    |<r_e - r_h>| [Ang]:                  0.024242
    Hole size [Ang]:                      1.212751
      Cartesian components [Ang]:       [  0.636287,   0.623746,   0.822705]
    Electron size [Ang]:                  2.301656
      Cartesian components [Ang]:       [  1.523218,   1.529427,   0.798926]
    RMS electron-hole separation [Ang]:   2.591630
      Cartesian components [Ang]:       [  1.643227,   1.644668,   1.145170]
    Covariance(r_h, r_e) [Ang^2]:         0.026214
    Correlation coefficient:              0.009391
    Center-of-mass size [Ang]:            1.305834
      Cartesian components [Ang]:       [  0.829189,   0.829421,   0.574203]

  Decomposition into state-averaged NTOs
    H- 0 -> L+ 1: -0.6794 ( 92.3%)
                   omega =  92.5%
  ----------------------------------------------------------------------------


  Excited state 4 (singlet, A)                                     [converged]
  ----------------------------------------------------------------------------
  Term symbol:  5 (1) A                                     R^2 =  4.41497e-12

  Total energy:                                            -77.9622544606 a.u.
  Excitation energy:                                               9.738209 eV

  Osc. strength:                                                      0.000000
  Trans. dip. moment [a.u.]:           [  -0.000164,    0.000151,    0.000020]
  <i|r^2|0> [a.u.]:                    [   0.012800,    0.018241,   -0.031972]
  Two-photon absorption cross-section (SoS) [a.u.]:                 134.670861
  Two-photon absorption matrix (SoS) [a.u.]:
                                       |    0.270691    0.311777   -2.794304 |
                                       |    0.311777    0.356432   -2.937980 |
                                       |   -2.794304   -2.937980   -0.627107 |
  Two-photon absorption cross-section [a.u.]:                        80.033924
  Two-photon absorption matrix [a.u.]:
                                       |    0.209283    0.240381   -2.154036 |
                                       |    0.240381    0.274170   -2.265004 |
                                       |   -2.154036   -2.265004   -0.483442 |

  Dip. moment [a.u.]:                  [  -0.011224,    0.010408,    0.000067]
  Total dipole [Debye]:                                               0.038908
  <r^2> [a.u.]:                        [ 181.453782,   41.012293,   10.786816]
  Total <r^2> [a.u.]:                                               233.252891

  V1^2 = 0.9633, V2^2 = 0.0367

  Important amplitudes:
      occ i     occ j     vir a      vir b          v   
    -----------------------------------------------------
     8 (A) A             11 (A) A                 0.6688
     7 (A) A              9 (A) A                 0.1535
     8 (A) A             21 (A) A                -0.0779
     8 (A) A             16 (A) A                -0.0674
     8 (A) A   8 (A) B    9 (A) A   13 (A) B     -0.0167
     5 (A) A   8 (A) B   11 (A) A   11 (A) B     -0.0157
     7 (A) A             20 (A) A                -0.0140
     8 (A) A   8 (A) B   11 (A) A   17 (A) B      0.0137
     7 (A) A   8 (A) B   13 (A) A   11 (A) B      0.0127
     4 (A) A   8 (A) B   12 (A) A   11 (A) B     -0.0111
     8 (A) A   8 (A) B    9 (A) A   22 (A) B     -0.0110
     5 (A) A   8 (A) A   11 (A) A   21 (A) A     -0.0109
     7 (A) A   8 (A) A   11 (A) A   22 (A) A     -0.0095
     6 (A) A   8 (A) B   10 (A) A   11 (A) B      0.0091
     6 (A) A   8 (A) B   15 (A) A   11 (A) B      0.0089
     7 (A) A   8 (A) B   22 (A) A   11 (A) B      0.0089
     3 (A) A   4 (A) B   11 (A) A    9 (A) B     -0.0083
     3 (A) A   8 (A) B   11 (A) A   18 (A) B     -0.0080
     6 (A) A   8 (A) A   11 (A) A   15 (A) A     -0.0079
     7 (A) A   8 (A) A   13 (A) A   16 (A) A      0.0079
     7 (A) A   8 (A) A   11 (A) A   13 (A) A     -0.0075
     4 (A) A   8 (A) B   19 (A) A   11 (A) B      0.0070
     5 (A) A   8 (A) B   21 (A) A   11 (A) B      0.0069
     5 (A) A   8 (A) B    9 (A) A    9 (A) B     -0.0069
     4 (A) A   8 (A) A   11 (A) A   12 (A) A      0.0062
     3 (A) A   6 (A) B   11 (A) A   28 (A) B     -0.0060
     6 (A) A   8 (A) A   11 (A) A   18 (A) A      0.0059
     6 (A) A   8 (A) B   18 (A) A   11 (A) B     -0.0058
     7 (A) A   8 (A) B   16 (A) A   13 (A) B     -0.0057
     3 (A) A   8 (A) B   11 (A) A   30 (A) B     -0.0056
     5 (A) A   8 (A) B   10 (A) A   10 (A) B     -0.0055
     7 (A) A   8 (A) B   12 (A) A   10 (A) B      0.0055
     8 (A) A   8 (A) B   20 (A) A   22 (A) B      0.0055
     6 (A) A   8 (A) B   11 (A) A   10 (A) B      0.0055
     3 (A) A   5 (A) B   11 (A) A   25 (A) B     -0.0054
     3 (A) A   8 (A) A   11 (A) A   18 (A) A     -0.0054
     3 (A) A   8 (A) A   11 (A) A   24 (A) A     -0.0053
     5 (A) A   8 (A) A   11 (A) A   16 (A) A     -0.0049
     6 (A) A   8 (A) A   10 (A) A   16 (A) A      0.0047
     8 (A) A   8 (A) B   11 (A) A   28 (A) B      0.0043
    -----------------------------------------------------

  Density matrix analysis:
  ------------------------
  NOs
    Occupation of frontier NOs:
       0.9386   1.0295
    Number of electrons: 16.000000
    Number of unpaired electrons: n_u =  2.32235, n_u,nl =  2.05106
    NO participation ratio (PR_NO):  2.932763
  
  
  Mulliken Population Analysis
  Atom      Charge (e)              h+              e-           Del q
  --------------------------------------------------------------------
   1 H       -0.126012        0.046030       -0.227554       -0.181523
   2 C        0.248392        0.496152       -0.135066        0.361086
   3 H       -0.126220        0.046018       -0.227760       -0.181742
   4 C        0.253755        0.494354       -0.133419        0.360935
   5 H       -0.125111        0.045991       -0.225526       -0.179536
   6 H       -0.124804        0.046002       -0.225222       -0.179220
  --------------------------------------------------------------------
  Sum:       -0.000000        1.174547       -1.174547       -0.000000
  
  Multipole moment analysis of the density matrix
    Molecular charge:                      -0.000000
    Number of electrons:                   16.000000
      Center of electronic charge [Ang]: [ -1.561100,  -0.065505,   0.002126]
    Total nuclear charge:                  16.000000
      Center of nuclear charge [Ang]:    [ -1.561471,  -0.065161,   0.002128]
    Dipole moment [D]:                     0.038908
      Cartesian components [D]:          [ -0.028529,   0.026455,   0.000171]
    RMS size of the density [Ang]:         1.281021
      Cartesian components [Ang]:        [  0.859496,   0.844688,   0.434493]
  
  Exciton analysis of the difference density matrix
    <r_h> [Ang]:                  [ -1.560770,  -0.065817,   0.002117]
    <r_e> [Ang]:                  [ -1.556049,  -0.070188,   0.002097]
    |<r_e - r_h>| [Ang]:            0.006434
    Hole size [Ang]:                1.394926
      Cartesian components [Ang]: [  0.819573,   0.806323,   0.789914]
    Electron size [Ang]:            2.114318
      Cartesian components [Ang]: [  1.419367,   1.415523,   0.672333]

  Transition density matrix analysis:
  -----------------------------------
  
  CT numbers (Mulliken)
    omega =     0.9293
    <Phe> =    -0.0146
  
  Exciton analysis of the transition density matrix
    Trans. dipole moment [D]:             0.000285
      Cartesian components [D]:         [ -0.000209,   0.000192,   0.000025]
    <r_h> [Ang]:                        [ -1.561423,  -0.065204,   0.002119]
    <r_e> [Ang]:                        [ -1.554754,  -0.071396,   0.002088]
    |<r_e - r_h>| [Ang]:                  0.009100
    Hole size [Ang]:                      1.229185
      Cartesian components [Ang]:       [  0.662002,   0.649554,   0.806678]
    Electron size [Ang]:                  2.247870
      Cartesian components [Ang]:       [  1.508859,   1.506063,   0.712769]
    RMS electron-hole separation [Ang]:   2.550876
      Cartesian components [Ang]:       [  1.638862,   1.631986,   1.075976]
    Covariance(r_h, r_e) [Ang^2]:         0.028465
    Correlation coefficient:              0.010302
    Center-of-mass size [Ang]:            1.286541
      Cartesian components [Ang]:       [  0.828249,   0.824159,   0.538473]

  Decomposition into state-averaged NTOs
    H- 0 -> L+ 2: -0.6641 ( 88.2%)
    H- 1 -> L+ 0: -0.1514 (  4.6%)
                   omega =  92.9%
  ----------------------------------------------------------------------------


  Excited state 5 (singlet, A)                                     [converged]
  ----------------------------------------------------------------------------
  Term symbol:  6 (1) A                                     R^2 =  2.51080e-11

  Total energy:                                            -77.9468089769 a.u.
  Excitation energy:                                              10.158502 eV

  Osc. strength:                                                      0.000005
  Trans. dip. moment [a.u.]:           [   0.000172,    0.000237,   -0.004271]
  <i|r^2|0> [a.u.]:                    [   0.082300,   -0.096957,    0.015829]
  Two-photon absorption cross-section (SoS) [a.u.]:                 223.499327
  Two-photon absorption matrix (SoS) [a.u.]:
                                       |    0.367966    0.056050   -3.823937 |
                                       |    0.056050   -0.437540    3.625718 |
                                       |   -3.823937    3.625718    0.071065 |
  Two-photon absorption cross-section [a.u.]:                       115.460725
  Two-photon absorption matrix [a.u.]:
                                       |    0.265036    0.040660   -2.748457 |
                                       |    0.040660   -0.313883    2.606001 |
                                       |   -2.748457    2.606001    0.050953 |

  Dip. moment [a.u.]:                  [   0.023224,   -0.022055,   -0.000217]
  Total dipole [Debye]:                                               0.081407
  <r^2> [a.u.]:                        [ 180.530889,   39.745153,   11.600446]
  Total <r^2> [a.u.]:                                               231.876488

  V1^2 = 0.9554, V2^2 = 0.0446

  Important amplitudes:
      occ i     occ j     vir a      vir b          v   
    -----------------------------------------------------
     8 (A) A             12 (A) A                 0.5697
     6 (A) A              9 (A) A                -0.3819
     8 (A) A             19 (A) A                -0.0525
     6 (A) A             20 (A) A                 0.0520
     8 (A) A             23 (A) A                 0.0293
     8 (A) A   8 (A) B    9 (A) A   10 (A) B     -0.0205
     8 (A) A             26 (A) A                 0.0185
     3 (A) A              9 (A) A                 0.0159
     4 (A) A   8 (A) B    9 (A) A    9 (A) B      0.0158
     5 (A) A   8 (A) B   11 (A) A   12 (A) B     -0.0149
     8 (A) A   8 (A) B   12 (A) A   17 (A) B      0.0133
     7 (A) A   8 (A) B   13 (A) A   12 (A) B      0.0130
     4 (A) A   8 (A) B   12 (A) A   12 (A) B     -0.0124
     5 (A) A   8 (A) A   11 (A) A   12 (A) A     -0.0109
     6 (A) A   8 (A) B   15 (A) A   12 (A) B      0.0102
     7 (A) A   8 (A) B   22 (A) A   12 (A) B      0.0094
     6 (A) A   8 (A) A   12 (A) A   15 (A) A     -0.0091
[...]
    16   -1.436519409219e-03
    17   -1.744577217091e-03
    18    1.412774306903e-04
    19   -3.014548403354e-03
    20    1.199597720983e-02
    21    9.337753712982e-01
    22   -4.879840239904e-04
    23    1.376063953374e-02
    24    8.094521474348e-04
    25    6.958508073894e-02
    26   -5.126502838188e-02
    27   -1.377106533905e+00
    28    9.930269862958e-02
    29   -9.430076756554e-02
    30   -9.584166269777e-04
    31    3.825431943856e-01
    32   -3.632793437406e-01
    33   -3.693465798620e-03
    34    1.505346786935e-02
    35   -1.419359323689e-03
    36   -1.729581262743e-03
    37    1.309042424373e-04
    38   -2.795777534807e-03
    39    1.102230850886e-02
    40    9.217469913978e-01
    41    5.286707014416e-04
    42   -1.369401415600e-02
    43   -8.030206089393e-04
    44    1.102885677594e-02
    45    9.217770060212e-01
    46    1.370995328345e-02
    47    1.726981330491e-04
    48    6.669401983533e-04
Sym=X
Ene= 0.231047
Spin=Alpha
Occup=0
     1   -2.976145540243e-02
     2   -1.167048348981e+00
     3    1.291799841705e-02
     4    3.505739710785e-03
     5    8.324646144673e-04
     6    5.813929884642e-05
     7   -6.214685449528e-05
     8   -8.999424724311e-04
     9    1.552876256867e-01
    10    1.634100401638e-01
    11    1.734351179125e-02
    12    5.310686455108e-01
    13    5.589602817678e-01
    14    5.932743424431e-02
    15    1.177198853167e-05
    16   -6.621873368794e-05
    17    6.741967531044e-05
    18   -1.239633062488e-03
    19   -7.004116667827e-05
    20    2.979528137288e-02
    21    1.168381500272e+00
    22    2.854708685575e-03
    23    1.309025567354e-02
    24    9.291531599547e-04
    25   -6.189873271068e-05
    26    6.484360289845e-05
    27    1.001272987974e-03
    28    1.537985365045e-01
    29    1.618565457517e-01
    30    1.715044922410e-02
    31    5.289947750543e-01
    32    5.568422693369e-01
    33    5.899014796750e-02
    34   -1.316917904540e-05
    35    8.289824535285e-05
    36   -8.494550724097e-05
    37    1.529848257457e-03
    38    8.529935445975e-05
    39   -2.999654678512e-02
    40   -1.169790343050e+00
    41    2.854535962236e-03
    42    1.314931635058e-02
    43    9.312332085984e-04
    44    2.996512629248e-02
    45    1.168328808088e+00
    46    1.297466272416e-02
    47    3.508075098998e-03
    48    8.337390724174e-04
Sym=X
Ene= 0.236441
Spin=Alpha
Occup=0
     1   -1.970852103266e-02
     2   -1.063720260738e+00
     3    1.568045783818e-02
     4    9.171482688586e-03
     5    1.306901607392e-03
     6   -8.662214724513e-02
     7    8.193582078677e-02
     8    1.530362253088e+00
     9    5.863387624407e-02
    10   -5.547533433385e-02
    11   -5.398351043233e-04
    12    2.394770077484e-01
    13   -2.266751659216e-01
    14   -2.198079303447e-03
    15   -2.100486169629e-02
    16    2.477666544855e-03
    17    2.843893570772e-03
    18   -6.092921365263e-04
    19    1.232423340088e-02
    20   -1.967809637528e-02
    21   -1.062073259082e+00
    22   -8.360861054137e-03
    23   -1.609956649236e-02
    24   -1.374802947744e-03
    25    8.761605933217e-02
    26   -8.270773497331e-02
    27   -1.559721828745e+00
    28    5.933919413125e-02
    29   -5.614591027762e-02
    30   -5.608307615600e-04
    31    2.453010014365e-01
    32   -2.322310087094e-01
    33   -2.313266056279e-03
    34    2.156182765704e-02
    35   -2.532124511505e-03
    36   -2.911841133364e-03
    37    6.190614587744e-04
    38   -1.249883256531e-02
    39    1.888419469028e-02
    40    1.080614487075e+00
    41   -8.430660552550e-03
    42   -1.653363441598e-02
    43   -1.404857430121e-03
    44    1.891347155963e-02
    45    1.082211158025e+00
    46    1.610927218899e-02
    47    9.263916863899e-03
    48    1.331688377045e-03
Sym=X
Ene= 0.302962
Spin=Alpha
Occup=0
     1   -2.059206745785e-02
     2    1.650223405960e+00
     3   -2.344873773410e-02
     4    3.663984459221e-04
     5   -1.105338808946e-03
     6    9.325538565514e-08
     7   -2.828112149436e-06
     8    3.774752418712e-06
     9   -1.353954246524e-01
    10   -1.424263535656e-01
    11   -1.511400371203e-02
    12   -1.122226713044e+00
    13   -1.180404015088e+00
    14   -1.252297945514e-01
    15    3.202121519955e-05
    16   -1.730674557797e-03
    17    1.960940110232e-03
    18   -3.384157661104e-02
    19   -1.729613067738e-03
    20    2.059061540504e-02
    21   -1.650212240161e+00
    22    1.562133181809e-03
    23   -2.338783565096e-02
    24   -1.337600540699e-03
    25    1.646338162311e-06
    26   -2.342942600595e-06
    27   -4.479607573388e-05
    28    1.358385689332e-01
    29    1.428916639355e-01
    30    1.514875181194e-02
    31    1.127646804078e+00
    32    1.186157477252e+00
    33    1.257893950988e-01
    34    3.362928153158e-05
    35   -1.751839407196e-03
    36    1.989784621382e-03
    37   -3.431248250686e-02
    38   -1.754362990432e-03
    39    2.154555920964e-02
    40   -1.665470167381e+00
    41   -1.644157372368e-03
    42    2.350026045986e-02
    43    1.340094322902e-03
    44   -2.154436026975e-02
    45    1.665494315938e+00
    46    2.356618416335e-02
    47   -4.420277770722e-04
    48    1.104651755407e-03
Sym=X
Ene= 0.462775
Spin=Alpha
Occup=0
     1   -1.145009894381e-01
     2   -6.964413411000e-01
     3   -1.491196225302e-02
     4   -1.031102478785e-02
     5   -1.340115133922e-03
     6    6.263047187244e-02
     7    1.636798290978e-02
     8   -3.646210092060e+00
     9    1.048348931297e-01
    10   -9.955754391041e-02
    11   -9.976013266083e-04
    12    2.431506635397e+00
    13   -2.309281402830e+00
    14   -2.256786193408e-02
    15    5.301058557138e-02
    16   -3.256498187672e-03
    17   -4.532807707632e-03
    18   -1.088893591344e-03
    19    2.033207401903e-02
    20   -1.144707045039e-01
    21   -6.964561863598e-01
    22    9.547047436372e-03
    23    1.540797392302e-02
    24    1.389873563940e-03
    25   -6.239849243828e-02
    26   -1.679849395048e-02
    27    3.635910169496e+00
    28    1.038601726993e-01
    29   -9.862724996362e-02
    30   -9.963398885783e-04
    31    2.435060669344e+00
    32   -2.312654484733e+00
    33   -2.263727856227e-02
    34   -5.292327226654e-02
    35    3.270008641675e-03
    36    4.539974011019e-03
    37    1.066474453980e-03
    38   -1.991093091167e-02
    39    1.143041280130e-01
    40    7.011850552923e-01
    41    9.529381033184e-03
    42    1.551891642955e-02
    43    1.393774980344e-03
    44    1.143431300281e-01
    45    7.011324799315e-01
    46   -1.502313834929e-02
    47   -1.029757187626e-02
    48   -1.343387906987e-03
Sym=X
Ene= 0.579808
Spin=Alpha
Occup=0
     1   -2.374658461943e-01
     2   -4.834238438850e-02
     3    2.232150562549e-02
     4   -2.724057919252e-02
     5   -5.738144681342e-04
     6    6.485502612333e-03
     7    1.693224238639e-01
     8    4.059245635026e-01
     9   -3.052869491661e-01
    10    2.899176228910e-01
    11    2.835123910051e-03
    12    7.529347801871e-01
    13   -7.149723986142e-01
    14   -7.039180584032e-03
    15    2.111477070445e-03
    16   -3.660330286905e-03
    17   -3.300689742043e-03
    18    3.049096202744e-03
    19   -5.981157630933e-02
    20   -2.374474616545e-01
    21   -4.835328447919e-02
    22    2.835771815669e-02
    23   -2.089358316611e-02
    24    9.967925140844e-05
    25    6.025327814987e-03
    26    1.686816952497e-01
    27    4.284866942307e-01
    28    3.058628931912e-01
    29   -2.904560624198e-01
    30   -2.839073816805e-03
    31   -7.438429282450e-01
    32    7.063156233395e-01
    33    6.961845051027e-03
    34    1.855767554314e-03
    35   -3.636621699557e-03
    36   -3.271245817246e-03
    37    3.042440527028e-03
    38   -5.977171498820e-02
    39   -2.380520745576e-01
    40   -4.746066749409e-02
    41   -2.781463344404e-02
    42    2.042229179902e-02
    43   -1.010978455696e-04
    44   -2.381176381583e-01
    45   -4.740336960042e-02
    46   -2.181888037286e-02
    47    2.671886305530e-02
    48    5.670635891725e-04
Sym=X
Ene= 0.608870
Spin=Alpha
Occup=0
     1    5.206931519139e-01
     2   -2.532376502155e-01
     3    5.967350322991e-02
     4   -3.715214112010e-02
     5    6.206261517797e-04
     6   -3.617902952458e-06
     7    1.615062534246e-05
     8   -2.197145568641e-04
     9    3.454901888809e-02
    10    3.634616616666e-02
    11    3.850940387681e-03
    12   -2.547710454914e-01
    13   -2.681614356625e-01
    14   -2.846531143079e-02
    15   -1.202551219890e-04
    16    7.630237558200e-03
    17   -8.649472263064e-03
    18    1.492509701343e-01
    19    7.632952181502e-03
    20   -5.207857199537e-01
    21    2.532993050210e-01
    22   -4.016435448597e-02
    23    5.767820809295e-02
    24    1.554575753058e-03
    25    4.238132699070e-06
    26   -1.290818673550e-05
    27    1.637445599704e-04
    28    3.673325317050e-02
    29    3.866676615622e-02
    30    4.104183369926e-03
    31   -2.674610876761e-01
    32   -2.816006395961e-01
    33   -2.982698684468e-02
    34    1.196104173140e-04
    35   -7.555174036360e-03
    36    8.577624180243e-03
    37   -1.479257422199e-01
    38   -7.565247527268e-03
    39    5.180623422796e-01
    40   -2.370827989202e-01
    41   -3.995780224155e-02
    42    5.737483665745e-02
    43    1.549909729636e-03
    44   -5.179393381192e-01
    45    2.370491967324e-01
    46    5.936212273217e-02
    47   -3.696610827472e-02
    48    6.166857189562e-04
Sym=X
Ene= 0.688652
Spin=Alpha
Occup=0
     1    4.668398829475e-05
     2    3.100326713262e-05
     3    8.870881088573e-04
     4    1.121677262614e-03
     5   -1.844352748293e-02
     6    2.565391035925e-06
     7   -2.060502335453e-06
     8    5.510758476165e-05
     9    3.223026070837e-02
    10    4.054337658553e-02
    11   -6.708721585469e-01
    12   -2.954148543281e-02
    13   -3.691754472672e-02
    14    6.125163158524e-01
    15   -1.332175708951e-03
    16    8.251475221199e-02
    17   -7.828363233977e-02
    18   -8.689294995373e-03
    19   -1.205363251541e-03
    20    4.104942046438e-05
    21    5.675741462366e-05
    22    8.822322085981e-04
    23    1.114990608053e-03
    24   -1.843865591692e-02
    25   -5.035423775954e-07
    26    3.349646179477e-05
    27   -7.835390830288e-05
    28    3.219016021965e-02
    29    4.047948764615e-02
    30   -6.703937282173e-01
    31   -2.952670377166e-02
    32   -3.689466131242e-02
    33    6.127964908662e-01
    34    1.322838440206e-03
    35   -8.268432332224e-02
    36    7.844725016981e-02
    37    8.716170262863e-03
    38    1.212937040664e-03
    39   -1.805512825631e-05
    40   -5.095846982798e-05
    41    9.146297323999e-04
    42    1.163454888701e-03
    43   -1.915124873055e-02
    44   -1.271062499324e-05
    45   -7.655969652634e-05
    46    9.106306361467e-04
    47    1.157696499153e-03
    48   -1.915546700306e-02
Sym=X
Ene= 0.704753
Spin=Alpha
Occup=0
     1   -4.956407769274e-01
     2    1.749899730321e-01
     3   -7.923150439916e-02
     4   -4.455893128167e-02
     5   -6.504347677866e-03
     6   -4.690353812351e-02
     7   -2.971062284370e-01
     8    4.658645231441e-01
     9    1.950997243558e-01
    10   -1.853310974476e-01
    11   -1.845629626207e-03
    12   -6.464637133369e-02
    13    6.157025148631e-02
    14    5.644016595500e-04
    15    1.934805451753e-01
    16   -2.068214177658e-02
    17   -2.431185576573e-02
    18    3.759579196952e-03
    19   -7.682486832296e-02
    20   -4.956719402073e-01
    21    1.751833093828e-01
    22    4.047623761200e-02
    23    8.137586909104e-02
    24    6.856438264957e-03
    25   -4.499309994990e-02
    26   -3.053597765024e-01
    27    4.610336261656e-01
    28   -1.966588818664e-01
    29    1.868030789960e-01
    30    1.815269730077e-03
    31    5.054760428113e-02
    32   -4.816597722520e-02
    33   -3.832374919143e-04
    34    1.887585644052e-01
    35   -2.025271002263e-02
    36   -2.378121988493e-02
    37    3.740250795128e-03
    38   -7.639148069679e-02
    39   -4.801617627015e-01
    40    1.526589641785e-01
    41   -4.019100735593e-02
    42   -7.909359430524e-02
    43   -6.702691949703e-03
    44   -4.801449288401e-01
    45    1.525026684792e-01
    46    7.696687998470e-02
    47    4.416006521351e-02
    48    6.366084131462e-03
Sym=X
Ene= 0.775752
Spin=Alpha
Occup=0
     1    5.333902593482e-01
     2   -4.826724150467e-01
     3    1.064598859054e-01
     4    2.587200353952e-02
     5    6.679922232217e-03
     6    8.810500678199e-02
     7   -2.359627290358e-01
     8   -5.508806501531e-01
     9    1.057266126374e-01
    10   -1.003654176623e-01
    11   -9.465555279369e-04
    12    2.947586838503e-01
    13   -2.801146168382e-01
    14   -2.796558817107e-03
    15   -1.998973340438e-01
    16    1.712794650167e-02
    17    2.137903233922e-02
    18   -1.480943348032e-04
    19    6.580529239239e-03
    20    5.333060963285e-01
    21   -4.827925525939e-01
    22   -2.043312923640e-02
    23   -1.075808497135e-01
    24   -7.481862683677e-03
    25   -8.975908009747e-02
    26    2.173242303231e-01
    27    5.828059659288e-01
    28    1.013486683144e-01
    29   -9.620405743927e-02
    30   -9.426589838848e-04
    31    2.933673352992e-01
    32   -2.787971344579e-01
    33   -2.700450583649e-03
    34    2.065385430660e-01
    35   -1.778545850705e-02
    36   -2.217619903328e-02
    37    2.556517385026e-04
    38   -8.736057206754e-03
    39   -5.439730846577e-01
    40    4.784879213014e-01
    41   -2.143546514179e-02
    42   -1.101798847437e-01
    43   -7.681754102153e-03
    44   -5.440612016147e-01
    45    4.783742445438e-01
    46    1.090021004859e-01
    47    2.700845090107e-02
    48    6.864702322059e-03
Sym=X
Ene= 0.807405
Spin=Alpha
Occup=0
     1    1.182383378652e-05
     2    2.847249854828e-05
     3    1.484332663098e-03
     4    1.872394801221e-03
     5   -3.102201815711e-02
     6    3.698450625859e-06
     7   -3.406778493956e-05
     8    1.747026165992e-05
     9    3.674982083667e-02
    10    4.617271239163e-02
    11   -7.642433167793e-01
    12   -5.405059544923e-02
    13   -6.792594109868e-02
    14    1.124095877458e+00
    15    1.044850451946e-03
    16   -6.538013842002e-02
    17    6.202981621169e-02
    18    6.878897305220e-03
    19    9.581970650161e-04
    20    1.370885586388e-05
    21   -4.416150787666e-05
    22    1.486015097119e-03
    23    1.871462923284e-03
    24   -3.101204131065e-02
    25   -7.021902839580e-07
    26   -2.458363938127e-05
    27    1.275060597146e-05
    28   -3.668399296840e-02
    29   -4.613993207348e-02
    30    7.642421426948e-01
    31    5.400035849409e-02
    32    6.787315740801e-02
    33   -1.124640476308e+00
    34    1.059582915721e-03
    35   -6.537708080982e-02
    36    6.202462883169e-02
    37    6.897433797470e-03
    38    9.636329914818e-04
    39   -1.097984887088e-05
    40    6.003063074186e-05
    41   -1.527633620004e-03
    42   -1.938183211318e-03
    43    3.183378483760e-02
    44   -9.292641649539e-06
    45   -1.232063542114e-05
    46   -1.521525332662e-03
    47   -1.929340674843e-03
    48    3.184422800687e-02
Sym=X
Ene= 0.858418
Spin=Alpha
Occup=0
     1    1.784865054753e-02
     2   -1.083165975882e+00
     3    1.479437083756e-01
     4    5.600656847196e-02
     5    1.048577734643e-02
     6    5.230651340357e-06
     7    1.407072792287e-05
     8    7.867447276865e-06
     9   -4.172548839698e-01
    10   -4.389094916612e-01
    11   -4.659436726900e-02
    12    9.462427313919e-01
    13    9.952872637978e-01
    14    1.056584873077e-01
    15   -2.271808891149e-04
    16    1.181479906803e-02
    17   -1.338911875745e-02
    18    2.310943850398e-01
    19    1.181375510126e-02
    20   -1.780075871632e-02
    21    1.083074148054e+00
    22    4.841063259594e-02
    23    1.505148340450e-01
    24    1.142623462756e-02
    25   -4.241868943246e-06
    26    3.618926436877e-06
    27   -1.735920957772e-05
    28   -4.061079367045e-01
    29   -4.271892751822e-01
    30   -4.527070878265e-02
    31    9.282068794711e-01
    32    9.763427349148e-01
    33    1.034726917467e-01
    34    2.210646312735e-04
    35   -1.173745937732e-02
    36    1.330391212323e-02
    37   -2.296004416604e-01
    38   -1.174055629464e-02
    39    1.073591319792e-02
    40   -1.068123452803e+00
    41    4.870496868395e-02
    42    1.472649455108e-01
    43    1.124064376930e-02
    44   -1.077844783064e-02
    45    1.068213923581e+00
    46    1.446805584247e-01
    47    5.613861151548e-02
    48    1.032928649915e-02
Sym=X
Ene= 0.928023
Spin=Alpha
Occup=0
     1    1.410867711042e-01
     2   -1.216176125986e+00
     3    1.806943366686e-01
     4   -6.070169818414e-03
     5    8.321852689741e-03
     6    3.581246205394e-06
     7    8.474907808193e-05
     8   -1.142824916253e-04
     9   -4.702956600868e-01
    10   -4.947209274408e-01
    11   -5.248467888813e-02
    12    1.371851571422e+00
    13    1.443158339734e+00
    14    1.531001455690e-01
    15   -1.286573661663e-04
    16    6.234242447538e-03
    17   -7.044071527149e-03
    18    1.216495853516e-01
    19    6.218638517385e-03
    20   -1.410637800531e-01
    21    1.216305845820e+00
    22   -1.528625159471e-02
    23    1.800622322021e-01
    24    1.014093867114e-02
    25    1.332361680753e-06
    26    6.883709057854e-05
    27   -1.497848174594e-04
    28    4.775877074733e-01
    29    5.023336871890e-01
    30    5.327108236179e-02
    31   -1.393762020648e+00
    32   -1.466037259137e+00
    33   -1.554677976036e-01
    34   -1.330179859988e-04
    35    6.622290411955e-03
    36   -7.500892276064e-03
    37    1.295994928825e-01
    38    6.649282321251e-03
    39   -1.422871612092e-01
    40    1.246231133787e+00
    41    1.487171926974e-02
    42   -1.840759073269e-01
    43   -1.039985307669e-02
    44    1.423189054851e-01
    45   -1.246214678958e+00
    46   -1.846949315587e-01
    47    5.434987938983e-03
    48   -8.540030047248e-03
Sym=X
Ene= 0.970579
Spin=Alpha
Occup=0
     1   -6.045079656674e-02
     2    9.058708514544e-01
     3   -8.913327935434e-02
     4   -9.716331178818e-02
     5   -1.014393530730e-02
     6    2.729212782648e-02
     7    2.689449085156e-01
     8    4.874275114572e-01
     9    4.856631441061e-01
    10   -4.612084609540e-01
    11   -4.524325072918e-03
    12   -1.480688761990e+00
    13    1.406092900302e+00
    14    1.377832736272e-02
    15   -5.878321258788e-02
    16   -1.239213936409e-02
    17   -9.152773918296e-03
    18    1.524799611836e-02
    19   -2.976300046981e-01
    20   -6.047398084077e-02
    21    9.057434613534e-01
    22    9.252919321721e-02
    23    9.391459893468e-02
    24    1.012588086362e-02
    25   -2.685058247438e-02
    26   -2.367510079678e-01
    27   -5.404368609685e-01
    28    4.804604014580e-01
    29   -4.563266586991e-01
    30   -4.499047884607e-03
    31   -1.468533934831e+00
    32    1.394799333167e+00
    33    1.373398236007e-02
    34    5.708870382398e-02
    35    1.238250378736e-02
    36    9.200093609745e-03
    37   -1.512447738903e-02
    38    2.950346840980e-01
    39    5.899601390756e-02
    40   -8.873637316171e-01
    41    9.156888644310e-02
    42    9.072849071304e-02
    43    9.889155431237e-03
    44    5.898076931273e-02
    45   -8.872799154370e-01
    46   -8.597115917022e-02
    47   -9.604435626710e-02
    48   -9.918740902728e-03
[5D]

======= END OF MOLDEN-FORMATTED INPUT FILE =======


        *************************************************************
        *                                                           *
        *  Thank you very much for using Q-Chem.  Have a nice day.  *
        *                                                           *
        *************************************************************


