                  Welcome to Q-Chem
     A Quantum Leap Into The Future Of Chemistry


 Q-Chem 5.4 (devel), Q-Chem, Inc., Pleasanton, CA (2021)

 E. Epifanovsky,  A. T. B. Gilbert,  Xintian Feng,  Joonho Lee,  Yuezhi Mao,  
 N. Mardirossian,  P. Pokhilko,  A. White,  M. Wormit,  M. P. Coons,  
 A. L. Dempwolff,  Zhengting Gan,  D. Hait,  P. R. Horn,  L. D. Jacobson,  
 I. Kaliman,  J. Kussmann,  A. W. Lange,  Ka Un Lao,  D. S. Levine,  Jie Liu,  
 S. C. McKenzie,  A. F. Morrison,  K. Nanda,  F. Plasser,  D. R. Rehn,  
 M. L. Vidal,  Zhi-Qiang You,  Ying Zhu,  B. Alam,  B. Albrecht,  
 A. Aldossary,  E. Alguire,  J. H. Andersen,  D. Barton,  K. Begam,  A. Behn,  
 Y. A. Bernard,  E. J. Berquist,  H. Burton,  A. Carreras,  K. Carter-Fenk,  
 R. Chakraborty,  A. D. Chien,  K. D. Closser,  V. Cofer-Shabica,  
 S. Dasgupta,  Jia Deng,  M. de Wergifosse,  M. Diedenhofen,  Hainam Do,  
 S. Ehlert,  Po-Tung Fang,  S. Fatehi,  Qingguo Feng,  T. Friedhoff,  
 J. Gayvert,  Qinghui Ge,  G. Gidofalvi,  M. Goldey,  J. Gomes,  
 C. Gonzalez-Espinoza,  S. Gulania,  A. Gunina,  M. W. D. Hanson-Heine,  
 P. H. P. Harbach,  A. W. Hauser,  M. F. Herbst,  M. Hernandez Vera,  
 M. Hodecker,  Z. C. Holden,  S. Houck,  Xunkun Huang,  Kerwin Hui,  
 B. C. Huynh,  M. Ivanov,  Hyunjun Ji,  Hanjie Jiang,  B. Kaduk,  S. Kaehler,  
 K. Khistyaev,  Jaehoon Kim,  P. Klunzinger,  Z. Koczor-Benda,  
 Joong Hoon Koh,  D. Kosenkov,  L. Koulias,  T. Kowalczyk,  C. M. Krauter,  
 K. Kue,  A. Kunitsa,  T. Kus,  A. Landau,  K. V. Lawler,  D. Lefrancois,  
 S. Lehtola,  Rain Li,  Yi-Pei Li,  Jiashu Liang,  M. Liebenthal,  
 Hung-Hsuan Lin,  You-Sheng Lin,  Fenglai Liu,  Kuan-Yu Liu,  
 M. Loipersberger,  A. Luenser,  A. Manjanath,  P. Manohar,  E. Mansoor,  
 S. F. Manzer,  Shan-Ping Mao,  A. V. Marenich,  T. Markovich,  S. Mason,  
 S. A. Maurer,  P. F. McLaughlin,  M. F. S. J. Menger,  J.-M. Mewes,  
 S. A. Mewes,  P. Morgante,  J. W. Mullinax,  K. J. Oosterbaan,  G. Paran,  
 Alexander C. Paul,  Suranjan K. Paul,  F. Pavosevic,  Zheng Pei,  S. Prager,  
 E. I. Proynov,  E. Ramos,  B. Rana,  A. E. Rask,  A. Rettig,  R. M. Richard,  
 F. Rob,  E. Rossomme,  T. Scheele,  M. Scheurer,  M. Schneider,  
 N. Sergueev,  S. M. Sharada,  W. Skomorowski,  D. W. Small,  C. J. Stein,  
 Yu-Chuan Su,  E. J. Sundstrom,  Zhen Tao,  J. Thirman,  T. Tsuchimochi,  
 N. M. Tubman,  S. P. Veccham,  O. Vydrov,  J. Wenzel,  J. Witte,  A. Yamada,  
 Kun Yao,  S. Yeganeh,  S. R. Yost,  A. Zech,  Igor Ying Zhang,  Xing Zhang,  
 Yu Zhang,  D. Zuev,  A. Aspuru-Guzik,  A. T. Bell,  N. A. Besley,  
 K. B. Bravaya,  B. R. Brooks,  D. Casanova,  Jeng-Da Chai,  S. Coriani,  
 C. J. Cramer,  A. E. DePrince, III,  R. A. DiStasio Jr.,  A. Dreuw,  
 B. D. Dunietz,  T. R. Furlani,  W. A. Goddard III,  S. Grimme,  
 S. Hammes-Schiffer,  T. Head-Gordon,  W. J. Hehre,  Chao-Ping Hsu,  
 T.-C. Jagau,  Yousung Jung,  A. Klamt,  Jing Kong,  D. S. Lambrecht,  
 WanZhen Liang,  N. J. Mayhall,  C. W. McCurdy,  J. B. Neaton,  
 C. Ochsenfeld,  J. A. Parkhill,  R. Peverati,  V. A. Rassolov,  Yihan Shao,  
 L. V. Slipchenko,  T. Stauch,  R. P. Steele,  J. E. Subotnik,  
 A. J. W. Thom,  A. Tkatchenko,  D. G. Truhlar,  T. Van Voorhis,  
 T. A. Wesolowski,  K. B. Whaley,  H. L. Woodcock III,  P. M. Zimmerman,  
 S. Faraji,  P. M. W. Gill,  M. Head-Gordon,  J. M. Herbert,  A. I. Krylov

 Additional authors for Version 5.4.1: 
 S. Kotaru,  Shaozhi Li,  Xiangyuan Li,  F. Matz,  A. Molle,  Haisheng Ren,  
 Yingli Su,  Hung-Yi Tsai,  C. Utku,  Fang Wang

 Contributors to earlier versions of Q-Chem not listed above: 
 R. D. Adamson,  B. Austin,  R. Baer,  J. Baker,  G. J. O. Beran,  
 K. Brandhorst,  S. T. Brown,  E. F. C. Byrd,  A. K. Chakraborty,  
 G. K. L. Chan,  Chun-Min Chang,  Yunqing Chen,  C.-L. Cheng,  
 Siu Hung Chien,  D. M. Chipman,  D. L. Crittenden,  H. Dachsel,  
 R. J. Doerksen,  A. D. Dutoi,  R. G. Edgar,  J. Fosso-Tande,  
 L. Fusti-Molnar,  D. Ghosh,  A. Ghysels,  A. Golubeva-Zadorozhnaya,  
 J. Gonthier,  M. S. Gordon,  S. R. Gwaltney,  G. Hawkins,  J. E. Herr,  
 A. Heyden,  S. Hirata,  E. G. Hohenstein,  G. Kedziora,  F. J. Keil,  
 C. Kelley,  Jihan Kim,  R. A. King,  R. Z. Khaliullin,  P. P. Korambath,  
 W. Kurlancheek,  A. Laurent,  A. M. Lee,  M. S. Lee,  S. V. Levchenko,  
 Ching Yeh Lin,  D. Liotard,  E. Livshits,  R. C. Lochan,  I. Lotan,  
 L. A. Martinez-Martinez,  P. E. Maslen,  N. Nair,  D. P. O'Neill,  
 D. Neuhauser,  E. Neuscamman,  C. M. Oana,  R. Olivares-Amaya,  R. Olson,  
 T. M. Perrine,  B. Peters,  P. A. Pieniazek,  A. Prociuk,  Y. M. Rhee,  
 J. Ritchie,  M. A. Rohrdanz,  E. Rosta,  N. J. Russ,  H. F. Schaefer III,  
 M. W. Schmidt,  N. E. Schultz,  S. Sharma,  N. Shenvi,  C. D. Sherrill,  
 A. C. Simmonett,  A. Sodt,  T. Stein,  D. Stuck,  K. S. Thanthiriwatte,  
 V. Vanovschi,  L. Vogt,  Tao Wang,  A. Warshel,  M. A. Watson,  
 C. F. Williams,  Q. Wu,  X. Xu,  Jun Yang,  W. Zhang,  Yan Zhao

 Please cite Q-Chem as follows:
 Y. Shao et al., Mol. Phys. 113, 184-215 (2015)
 DOI: 10.1080/00268976.2014.952696

 Q-Chem 5.4.1 for Intel X86 EM64T Linux

 Parts of Q-Chem use Armadillo 9.800.1 (Horizon Scraper).
 http://arma.sourceforge.net/

 Q-Chem begins on Wed Mar 15 16:17:00 2023  

 Host: cpu121.yggdrasil
0

     Scratch files written to /srv/beegfs/scratch/users/f/fum/qchem66617//
 Processing $rem in /home/share/wesolowski/qc5.aug2021.FDE/config/preferences:
 Processing $rem in /home/fum/.qchemrc:

 Checking the input file for inconsistencies... 	...done.

--------------------------------------------------------------
User input:
--------------------------------------------------------------
$comment
generated from CCJob.Templates
$end

$rem
sym_ignore = true
method = adc(2)
ee_states = 10
basis = cc-pVDZ
mem_static = 1024
mem_total = 40000
adc_davidson_maxiter = 900
adc_davidson_conv = 6
adc_print = 3
adc_prop_es = true
adc_prop_es2es = true
adc_prop_tpa = true
molden_format = True
state_analysis = true
print_orbitals = 15
gen_scfman = false
fde_export_density = true
fde_details = 3
$end

$molecule
0 1
H -0.0348278765 -0.2442097827 0.0636489606
C -1.0765972949 -0.5242748755 -0.0023551776
H -1.353264467 -1.5767591607 -0.0757276926
C -2.043634118 0.3926884087 0.0061254933
H -1.8137616575 1.4459188338 0.0804456828
H -3.085977293 0.114931858 -0.0593381042                     
$end
--------------------------------------------------------------
 ----------------------------------------------------------------
             Standard Nuclear Orientation (Angstroms)
    I     Atom           X                Y                Z
 ----------------------------------------------------------------
    1      H      -0.0348278765    -0.2442097827     0.0636489606
    2      C      -1.0765972949    -0.5242748755    -0.0023551776
    3      H      -1.3532644670    -1.5767591607    -0.0757276926
    4      C      -2.0436341180     0.3926884087     0.0061254933
    5      H      -1.8137616575     1.4459188338     0.0804456828
    6      H      -3.0859772930     0.1149318580    -0.0593381042
 ----------------------------------------------------------------
 Nuclear Repulsion Energy =          33.40669466 hartrees
 There are        8 alpha and        8 beta electrons
 Requested basis set is cc-pVDZ
 There are 24 shells and 48 basis functions
 Total memory of 40000 MB is distributed as follows: 
   MEM_STATIC is set to 1024 MB
   QALLOC/CCMAN JOB total memory use is  38976 MB
 Warning: actual memory use might exceed 40000 MB

 Total QAlloc Memory Limit  40000 MB
 Mega-Array Size      1001 MB
 MEM_STATIC part      1024 MB

                       Distance Matrix (Angstroms)
             H (  1)   C (  2)   H (  3)   C (  4)   H (  5)
   C (  2)  1.080776
   H (  3)  1.879731  1.090711
   C (  4)  2.108139  1.332687  2.088548
   H (  5)  2.453859  2.105215  3.061540  1.080583
   H (  6)  3.074674  2.109370  2.421648  1.080700  1.846510

 A cutoff of  1.0D-11 yielded    300 shell pairs
 There are      1220 function pairs (      1329 Cartesian)
 Smallest overlap matrix eigenvalue = 4.80E-03

 Scale SEOQF with 1.000000e-01/1.000000e-01/1.000000e+00

 Standard Electronic Orientation quadrupole field applied
 Nucleus-field energy     =     0.0000000022 hartrees
 Guess from superposition of atomic densities
 Warning:  Energy on first SCF cycle will be non-variational
 SAD guess density has 16.000000 electrons
 A restricted Hartree-Fock SCF calculation will be
 performed using Pulay DIIS extrapolation
 SCF converges when DIIS error is below 1.0E-08
 using 10 threads for integral computing
 -------------------------------------------------------
 OpenMP Integral computing Module                
 Release: version 1.0, May 2013, Q-Chem Inc. Pittsburgh 
 -------------------------------------------------------
 ---------------------------------------
  Cycle       Energy         DIIS Error
 ---------------------------------------
    1     -78.4336124416      1.01E-01
    2     -78.0173572913      7.22E-03
    3     -78.0379849966      1.85E-03
    4     -78.0394695933      5.78E-04
    5     -78.0395930506      6.02E-05
    6     -78.0395949597      1.45E-05
    7     -78.0395950537      5.63E-06
    8     -78.0395950658      9.58E-07
    9     -78.0395950665      1.72E-07
   10     -78.0395950665      5.63E-08
   11     -78.0395950665      7.71E-09 Convergence criterion met
 ---------------------------------------
 SCF time:  CPU 1.97 s  wall 7.01 s
 SCF   energy in the final basis set = -78.03959507
 Total energy in the final basis set = -78.03959507
Exporting Density Matrix to file 'Densmat_SCF.txt'.
Export successful
================================================================================
|                                                                              |
|                                 A D C  M A N                                 |
|                                                                              |
 ------------------------------------------------------------------------------ 
|                                                                              |
| Components:                                                                  |
|                                                                              |
| - libvmm - 1.3-trunk                                                         |
|   Authors:                                                                   |
|   Evgeny Epifanovsky, Ilya Kaliman                                           |
|                                                                              |
| - libtensor - 2.5-trunk                                                      |
|   Authors:                                                                   |
|   Evgeny Epifanovsky, Michael Wormit, Dmitry Zuev, Sam Manzer,               |
|   Ilya Kaliman                                                               |
|                                                                              |
| - libwfa - 1.1-trunk                                                         |
|   Authors:                                                                   |
|   Felix Plasser, Stefanie Mewes (Baeppler), Benjamin Thomitzni,              |
|   Michael Wormit, Feng Chen, Anna I. Krylov, Pavel Pokhilko                  |
|                                                                              |
| - libadc - 1.1-trunk                                                         |
|   Authors:                                                                   |
|   Michael Wormit, Adrian L. Dempwolff, Philipp H. P. Harbach,                |
|   Caroline Krauter, Dirk Rehn, Matthias Schneider, Jan Wenzel                |
|                                                                              |
| - adcman - 2.6-trunk                                                         |
|   Authors:                                                                   |
|   Michael Wormit, Adrian L. Dempwolff, Philipp H. P. Harbach,                |
|   Caroline Krauter, Daniel Lefrancois, Jan-Michael Mewes, Dirk Rehn,         |
|   Matthias Schneider, Jan Wenzel, Andreas Dreuw                              |
|                                                                              |
| Authors of earlier versions of ADCMAN:                                       |
| Andreas Dreuw, Jan Hendrik Starcke, Dirk Rehn, Michael Wormit                |
|                                                                              |
================================================================================

 Created directory /srv/beegfs/scratch/users/f/fum/qchem66617/plots
  Import QC data ...  CPU 0.00 s  wall 0.01 s

 Alpha MOs, Restricted
 -- Occupied --                  
-11.236 -11.233  -1.032  -0.788  -0.642  -0.579  -0.505  -0.374
  1 A     2 A     3 A     4 A     5 A     6 A     7 A     8 A                  
 -- Virtual --                   
  0.169   0.203   0.232   0.240   0.303   0.460   0.576   0.619
  9 A    10 A    11 A    12 A    13 A    14 A    15 A    16 A                  
  0.689   0.706   0.784   0.808   0.862   0.935   0.971   1.008
 17 A    18 A    19 A    20 A    21 A    22 A    23 A    24 A                  
  1.128   1.235   1.265   1.268   1.292   1.600   1.704   1.747
 25 A    26 A    27 A    28 A    29 A    30 A    31 A    32 A                  
  1.820   1.862   1.870   1.930   1.970   1.981   2.214   2.257
 33 A    34 A    35 A    36 A    37 A    38 A    39 A    40 A                  
  2.379   2.454   2.489   2.618   2.722   2.813   3.146   3.386
 41 A    42 A    43 A    44 A    45 A    46 A    47 A    48 A                  

 Beta MOs, Restricted
 -- Occupied --                  
-11.236 -11.233  -1.032  -0.788  -0.642  -0.579  -0.505  -0.374
  1 A     2 A     3 A     4 A     5 A     6 A     7 A     8 A                  
 -- Virtual --                   
  0.169   0.203   0.232   0.240   0.303   0.460   0.576   0.619
  9 A    10 A    11 A    12 A    13 A    14 A    15 A    16 A                  
  0.689   0.706   0.784   0.808   0.862   0.935   0.971   1.008
 17 A    18 A    19 A    20 A    21 A    22 A    23 A    24 A                  
  1.128   1.235   1.265   1.268   1.292   1.600   1.704   1.747
 25 A    26 A    27 A    28 A    29 A    30 A    31 A    32 A                  
  1.820   1.862   1.870   1.930   1.970   1.981   2.214   2.257
 33 A    34 A    35 A    36 A    37 A    38 A    39 A    40 A                  
  2.379   2.454   2.489   2.618   2.722   2.813   3.146   3.386
 41 A    42 A    43 A    44 A    45 A    46 A    47 A    48 A                  
  Import AO data ...  CPU 0.00 s  wall 0.12 s
  Using point group: C1
  Irreducible representations in point group: A
  Molecular orbitals: 
  Occupied MOs:
  Block   0:   1 (  A) A   2 (  A) A   3 (  A) A   4 (  A) A   5 (  A) A
                  -11.24      -11.23      -1.032     -0.7875     -0.6424
               6 (  A) A   7 (  A) A   8 (  A) A
                 -0.5791     -0.5048      -0.374
  Block   1:   1 (  A) B   2 (  A) B   3 (  A) B   4 (  A) B   5 (  A) B
                  -11.24      -11.23      -1.032     -0.7875     -0.6424
               6 (  A) B   7 (  A) B   8 (  A) B
                 -0.5791     -0.5048      -0.374
  Virtual MOs:
  Block   0:   9 (  A) A  10 (  A) A  11 (  A) A  12 (  A) A  13 (  A) A
                  0.1686       0.203      0.2322        0.24       0.303
              14 (  A) A  15 (  A) A  16 (  A) A  17 (  A) A  18 (  A) A
                  0.4596      0.5757      0.6194      0.6892      0.7063
              19 (  A) A  20 (  A) A  21 (  A) A  22 (  A) A
                  0.7842       0.808       0.862      0.9351
  Block   1:  23 (  A) A  24 (  A) A  25 (  A) A  26 (  A) A  27 (  A) A
                   0.971       1.008       1.128       1.235       1.265
              28 (  A) A  29 (  A) A  30 (  A) A  31 (  A) A  32 (  A) A
                   1.268       1.292         1.6       1.704       1.747
              33 (  A) A  34 (  A) A  35 (  A) A  36 (  A) A
                    1.82       1.862        1.87        1.93
  Block   2:  37 (  A) A  38 (  A) A  39 (  A) A  40 (  A) A  41 (  A) A
                    1.97       1.981       2.214       2.257       2.379
              42 (  A) A  43 (  A) A  44 (  A) A  45 (  A) A  46 (  A) A
                   2.454       2.489       2.618       2.722       2.813
              47 (  A) A  48 (  A) A
                   3.146       3.386
  Block   3:   9 (  A) B  10 (  A) B  11 (  A) B  12 (  A) B  13 (  A) B
                  0.1686       0.203      0.2322        0.24       0.303
              14 (  A) B  15 (  A) B  16 (  A) B  17 (  A) B  18 (  A) B
                  0.4596      0.5757      0.6194      0.6892      0.7063
              19 (  A) B  20 (  A) B  21 (  A) B  22 (  A) B
                  0.7842       0.808       0.862      0.9351
  Block   4:  23 (  A) B  24 (  A) B  25 (  A) B  26 (  A) B  27 (  A) B
                   0.971       1.008       1.128       1.235       1.265
              28 (  A) B  29 (  A) B  30 (  A) B  31 (  A) B  32 (  A) B
                   1.268       1.292         1.6       1.704       1.747
              33 (  A) B  34 (  A) B  35 (  A) B  36 (  A) B
                    1.82       1.862        1.87        1.93
  Block   5:  37 (  A) B  38 (  A) B  39 (  A) B  40 (  A) B  41 (  A) B
                    1.97       1.981       2.214       2.257       2.379
              42 (  A) B  43 (  A) B  44 (  A) B  45 (  A) B  46 (  A) B
                   2.454       2.489       2.618       2.722       2.813
              47 (  A) B  48 (  A) B
                   3.146       3.386
  Import MO data ...  CPU 0.01 s  wall 0.01 s
  Import HF data ...  CPU 0.07 s  wall 0.03 s
  Import 2e integrals ...  CPU 0.83 s  wall 0.13 s

--------------------------------------------------------------------------------
                                   HF Summary                                   
--------------------------------------------------------------------------------
  Energy:                                                  -78.0395950665 a.u.
  Dip. moment [a.u.]:                  [  -0.003636,    0.004826,    0.001090]
  Total dipole [Debye]:                                               0.015606
  <r^2> [a.u.]:                        [ 175.666810,   34.960967,   11.636334]
  Total <r^2> [a.u.]:                                               222.264111
--------------------------------------------------------------------------------
  HF properties ...  CPU 0.01 s  wall 0.00 s
  MP(1) calculation ...  CPU 0.00 s  wall 0.00 s
  N^6 prerequesite intermediates ...  CPU 0.42 s  wall 0.06 s
  Difference density matrix of state mp2_gs printed to ASCII file 'State_mp2_gs_Difference.txt'
Exporting MP density matrix to file 'Densmat_MP.txt'.
Export successful
  Total density matrix of state mp2_gs printed to ASCII file 'State_mp2_gs_Total.txt'
Exporting MP density matrix to file 'Densmat_MP.txt'.
Export successful

--------------------------------------------------------------------------------
                                 MP(2) Summary                                  
--------------------------------------------------------------------------------
  MP energy contribution:                                   -0.2798861589 a.u.
  Total energy:                                            -78.3194812254 a.u.
  Dip. moment [a.u.]:                  [  -0.003822,    0.003966,    0.001017]
  Total dipole [Debye]:                                               0.014237
  <r^2> [a.u.]:                        [ 175.714077,   34.998856,   11.467391]
  Total <r^2> [a.u.]:                                               222.180324

  Density matrix analysis:
  ------------------------
  NOs
    Occupation of frontier NOs:
       0.0453   1.9382
    Number of electrons: 16.000000
    Number of unpaired electrons: n_u =  0.40409, n_u,nl =  0.04520
    NO participation ratio (PR_NO): 13.866016
  
  
  Mulliken Population Analysis
  Atom      Charge (e)              h+              e-           Del q
  --------------------------------------------------------------------
   1 H        0.052482        0.013788       -0.011274        0.002514
   2 C       -0.102614        0.094408       -0.098940       -0.004532
   3 H        0.052781        0.013850       -0.011244        0.002606
   4 C       -0.102151        0.092517       -0.099026       -0.006508
   5 H        0.049340        0.014183       -0.011184        0.002999
   6 H        0.050161        0.014112       -0.011191        0.002921
  --------------------------------------------------------------------
  Sum:        0.000000        0.242858       -0.242858       -0.000000
  
  Multipole moment analysis of the density matrix
    Molecular charge:                      0.000000
    Number of electrons:                   16.000000
      Center of electronic charge [Ang]: [ -1.562950,  -0.065734,   0.001945]
    Total nuclear charge:                  16.000000
      Center of nuclear charge [Ang]:    [ -1.563076,  -0.065602,   0.001978]
    Dipole moment [D]:                     0.014237
      Cartesian components [D]:          [ -0.009714,   0.010082,   0.002586]
    RMS size of the density [Ang]:         1.200589
      Cartesian components [Ang]:        [  0.795297,   0.779886,   0.447991]
  
  Exciton analysis of the difference density matrix
    <r_h> [Ang]:                  [ -1.562088,  -0.068407,   0.001672]
    <r_e> [Ang]:                  [ -1.561685,  -0.066535,   0.001830]
    |<r_e - r_h>| [Ang]:            0.001921
    Hole size [Ang]:                1.393926
      Cartesian components [Ang]: [  0.845140,   0.835847,   0.728098]
    Electron size [Ang]:            1.359387
      Cartesian components [Ang]: [  0.877510,   0.861732,   0.579074]
--------------------------------------------------------------------------------
  MP(2) calculation ...  CPU 0.23 s  wall 0.16 s
  Start ADC(2)-s ...  CPU 0.01 s  wall 0.00 s
  ADC(2) intermediates ...  CPU 0.02 s  wall 0.01 s
  Starting Davidson for singlet states of irrep A ... 
--------------------------------------------------------------------------------
   It NVec Conv  Avg. Norm  Max. Norm  Conv. states           Remark
--------------------------------------------------------------------------------
        10    0  1.330e-01  4.673e-01  0.4106 n n n n n n n n Guess.
    1   20    0  2.387e-02  1.166e-01  0.3264 n n n n n n n n 
    2   30    0  6.398e-03  3.634e-02  0.3216 n n n n n n n n 
    3   40    0  2.279e-03  1.742e-02  0.3212 n n n n n n n n 
    4   50    0  7.110e-04  5.766e-03  0.3212 n n n n n n n n 
    5   20    0  3.876e-04  3.382e-03  0.3212 n n n n n n n n Subspace collapsed.
    6   30    0  4.903e-04  4.825e-03  0.3212 n n n n n n n n 
    7   40    0  4.343e-04  4.271e-03  0.3212 n n n n n n n n 
    8   50    0  4.006e-04  3.991e-03  0.3212 n n n n n n n n 
    9   20    2  3.035e-04  3.027e-03  0.3212 n y n y n n n n Subspace collapsed.
   10   30    4  2.146e-04  2.139e-03  0.3212 n y y y n y n n 
   11   40    5  1.672e-04  1.670e-03  0.3212 n y y y y y n n 
   12   50    6  2.446e-04  2.446e-03  0.3212 y y y y y y n n 
   13   20    6  1.169e-04  1.169e-03  0.3212 y y y y y y n n Subspace collapsed.
   14   30    6  1.032e-04  1.032e-03  0.3212 y y y y y y n n 
   15   40    7  9.356e-05  9.356e-04  0.3212 y y y y y y n y 
   16   50    7  1.066e-04  1.066e-03  0.3212 y y y y y y n y 
   17   20    8  5.277e-05  5.277e-04  0.3212 y y y y y y y y Subspace collapsed.
   18   30    8  5.363e-05  5.363e-04  0.3212 y y y y y y y y 
   19   40    9  3.393e-05  3.393e-04  0.3212 y y y y y y y y 
   20   50    9  5.153e-05  5.153e-04  0.3212 y y y y y y y y 
   21   20    9  2.451e-05  2.451e-04  0.3212 y y y y y y y y Subspace collapsed.
   22   30    9  1.937e-05  1.937e-04  0.3212 y y y y y y y y 
   23   32    9  1.923e-05  1.923e-04  0.3212 y y y y y y y y 
   24   34    9  1.944e-05  1.944e-04  0.3212 y y y y y y y y 
   25   35    9  1.884e-05  1.884e-04  0.3212 y y y y y y y y 
   26   36    9  1.888e-05  1.888e-04  0.3212 y y y y y y y y 
   27   36    9  1.888e-05  1.888e-04  0.3212 y y y y y y y y 
   28   46    9  2.219e-05  2.219e-04  0.3212 y y y y y y y y 
   29   50    9  1.945e-05  1.945e-04  0.3212 y y y y y y y y 
   30   17    9  1.204e-05  1.204e-04  0.3212 y y y y y y y y Subspace collapsed.
   31   23    9  1.567e-05  1.567e-04  0.3212 y y y y y y y y 
   32   29    9  1.347e-05  1.347e-04  0.3212 y y y y y y y y 
   33   33    9  1.663e-05  1.663e-04  0.3212 y y y y y y y y 
   34   37    9  1.027e-05  1.027e-04  0.3212 y y y y y y y y 
   35   41    9  6.102e-06  6.102e-05  0.3212 y y y y y y y y 
   36   45    9  3.541e-06  3.541e-05  0.3212 y y y y y y y y 
   37   49    9  1.705e-06  1.705e-05  0.3212 y y y y y y y y 
   38   50    9  1.344e-06  1.344e-05  0.3212 y y y y y y y y 
   39   14    9  8.281e-07  8.281e-06  0.3212 y y y y y y y y Subspace collapsed.
   40   18    9  5.781e-07  5.781e-06  0.3212 y y y y y y y y 
   41   22    9  3.501e-07  3.501e-06  0.3212 y y y y y y y y 
   42   26    9  2.618e-07  2.618e-06  0.3212 y y y y y y y y 
   43   30    9  1.319e-07  1.319e-06  0.3212 y y y y y y y y 
   44   34   10  7.703e-08  7.703e-07  0.3212 y y y y y y y y Converged.
--------------------------------------------------------------------------------
  Davidson Summary: 
 ------------------------------------------------------------
  State  0: excitation energy =   0.3212 a.u.   (converged)
  State  1: excitation energy =   0.3332 a.u.   (converged)
  State  2: excitation energy =   0.3357 a.u.   (converged)
  State  3: excitation energy =   0.3609 a.u.   (converged)
  State  4: excitation energy =   0.3743 a.u.   (converged)
  State  5: excitation energy =   0.3864 a.u.   (converged)
  State  6: excitation energy =   0.4238 a.u.   (converged)
  State  7: excitation energy =   0.4477 a.u.   (converged)
  State  8: excitation energy =   0.4570 a.u.   (converged)
  State  9: excitation energy =   0.4644 a.u.   (converged)
 ------------------------------------------------------------

  Singlet states of irrep A ...  CPU 124.88 s  wall 31.52 s
  TDMs ...  CPU 0.59 s  wall 0.23 s
  SDMs ...  CPU 1.45 s  wall 0.46 s
  Starting TPA DIIS iterations ... 
------------------------------------ 
   It     Res. Norm  Remark
------------------------------------
                       Guess.
    1     4.405e+00  
    2     5.832e+00  
    3     1.071e+00  
    4     2.553e-01  
    5     6.589e-02  
    6     2.648e-02  
    7     8.167e-03  
    8     1.429e-03  
    9     5.333e-04  
   10     8.928e-05  
   11     2.807e-05  
   12     4.449e-06  
   13     1.526e-06  
   14     5.540e-07  Converged.
   ... Converged in 14 steps (norm: 5.53992e-07)
------------------------------------
  Starting TPA DIIS iterations ... 
------------------------------------ 
   It     Res. Norm  Remark
------------------------------------
                       Guess.
    1     4.169e+00  
    2     5.523e+00  
    3     1.034e+00  
    4     2.584e-01  
    5     6.552e-02  
    6     2.685e-02  
    7     8.120e-03  
    8     1.477e-03  
    9     5.428e-04  
   10     9.114e-05  
   11     2.896e-05  
   12     4.514e-06  
   13     1.473e-06  
   14     5.295e-07  Converged.
   ... Converged in 14 steps (norm: 5.29525e-07)
------------------------------------
  Starting TPA DIIS iterations ... 
------------------------------------ 
   It     Res. Norm  Remark
------------------------------------
                       Guess.
    1     6.931e-01  
    2     4.853e-01  
    3     1.702e-01  
    4     6.160e-02  
    5     1.860e-02  
    6     6.745e-03  
    7     1.093e-03  
    8     4.519e-04  
    9     1.380e-04  
   10     2.147e-05  
   11     1.119e-05  
   12     3.911e-06  
   13     2.477e-06  
   14     9.814e-07  Converged.
   ... Converged in 14 steps (norm: 9.81439e-07)
------------------------------------
  Starting TPA DIIS iterations ... 
------------------------------------ 
   It     Res. Norm  Remark
------------------------------------
                       Guess.
    1     4.700e+00  
    2     6.362e+00  
    3     1.154e+00  
    4     2.845e-01  
    5     7.447e-02  
    6     3.019e-02  
    7     9.294e-03  
    8     1.624e-03  
    9     6.109e-04  
   10     1.028e-04  
   11     3.266e-05  
   12     5.244e-06  
   13     1.827e-06  
   14     6.776e-07  Converged.
   ... Converged in 14 steps (norm: 6.77611e-07)
------------------------------------
  Starting TPA DIIS iterations ... 
------------------------------------ 
   It     Res. Norm  Remark
------------------------------------
                       Guess.
    1     4.448e+00  
    2     6.024e+00  
    3     1.113e+00  
    4     2.878e-01  
    5     7.407e-02  
    6     3.065e-02  
    7     9.247e-03  
    8     1.680e-03  
    9     6.218e-04  
   10     1.050e-04  
   11     3.368e-05  
   12     5.322e-06  
   13     1.746e-06  
   14     6.485e-07  Converged.
   ... Converged in 14 steps (norm: 6.48521e-07)
------------------------------------
  Starting TPA DIIS iterations ... 
------------------------------------ 
   It     Res. Norm  Remark
------------------------------------
                       Guess.
    1     7.057e-01  
    2     5.033e-01  
    3     1.803e-01  
    4     6.997e-02  
    5     2.008e-02  
    6     7.395e-03  
    7     1.237e-03  
    8     5.290e-04  
    9     1.627e-04  
   10     2.386e-05  
   11     1.317e-05  
   12     4.626e-06  
   13     3.098e-06  
   14     1.247e-06  
   15     4.357e-07  Converged.
   ... Converged in 15 steps (norm: 4.35714e-07)
------------------------------------
  Starting TPA DIIS iterations ... 
------------------------------------ 
   It     Res. Norm  Remark
------------------------------------
                       Guess.
    1     4.766e+00  
    2     6.481e+00  
    3     1.172e+00  
    4     2.911e-01  
    5     7.641e-02  
    6     3.103e-02  
    7     9.550e-03  
    8     1.668e-03  
    9     6.286e-04  
   10     1.059e-04  
   11     3.372e-05  
   12     5.428e-06  
   13     1.898e-06  
   14     7.071e-07  Converged.
   ... Converged in 14 steps (norm: 7.07101e-07)
------------------------------------
  Starting TPA DIIS iterations ... 
------------------------------------ 
   It     Res. Norm  Remark
------------------------------------
                       Guess.
    1     4.509e+00  
    2     6.136e+00  
    3     1.131e+00  
    4     2.945e-01  
    5     7.601e-02  
    6     3.152e-02  
    7     9.503e-03  
    8     1.726e-03  
    9     6.398e-04  
   10     1.082e-04  
   11     3.477e-05  
   12     5.510e-06  
   13     1.809e-06  
   14     6.771e-07  Converged.
   ... Converged in 14 steps (norm: 6.77067e-07)
------------------------------------
  Starting TPA DIIS iterations ... 
------------------------------------ 
   It     Res. Norm  Remark
------------------------------------
                       Guess.
    1     7.083e-01  
    2     5.072e-01  
    3     1.825e-01  
    4     7.190e-02  
    5     2.040e-02  
    6     7.543e-03  
    7     1.270e-03  
    8     5.468e-04  
    9     1.684e-04  
   10     2.439e-05  
   11     1.364e-05  
   12     4.794e-06  
   13     3.248e-06  
   14     1.312e-06  
   15     4.579e-07  Converged.
   ... Converged in 15 steps (norm: 4.57949e-07)
------------------------------------
  Starting TPA DIIS iterations ... 
------------------------------------ 
   It     Res. Norm  Remark
------------------------------------
                       Guess.
    1     5.524e+00  
    2     7.892e+00  
    3     1.384e+00  
    4     3.724e-01  
    5     1.003e-01  
    6     4.149e-02  
    7     1.269e-02  
    8     2.209e-03  
    9     8.478e-04  
   10     1.442e-04  
   11     4.710e-05  
   12     7.791e-06  
   13     2.838e-06  
   14     1.113e-06  
   15     4.417e-07  Converged.
   ... Converged in 15 steps (norm: 4.41676e-07)
------------------------------------
  Starting TPA DIIS iterations ... 
------------------------------------ 
   It     Res. Norm  Remark
------------------------------------
                       Guess.
    1     5.225e+00  
    2     7.471e+00  
    3     1.334e+00  
    4     3.762e-01  
    5     9.983e-02  
    6     4.226e-02  
    7     1.265e-02  
    8     2.292e-03  
    9     8.626e-04  
   10     1.475e-04  
   11     4.849e-05  
   12     7.926e-06  
   13     2.640e-06  
   14     1.077e-06  
   15     3.168e-07  Converged.
   ... Converged in 15 steps (norm: 3.1684e-07)
------------------------------------
  Starting TPA DIIS iterations ... 
------------------------------------ 
   It     Res. Norm  Remark
------------------------------------
                       Guess.
    1     7.364e-01  
    2     5.500e-01  
    3     2.076e-01  
    4     9.626e-02  
    5     2.411e-02  
    6     9.359e-03  
    7     1.691e-03  
    8     7.694e-04  
    9     2.394e-04  
   10     3.112e-05  
   11     1.968e-05  
   12     7.043e-06  
   13     5.326e-06  
   14     2.253e-06  
   15     7.309e-07  Converged.
   ... Converged in 15 steps (norm: 7.30865e-07)
------------------------------------
  Starting TPA DIIS iterations ... 
------------------------------------ 
   It     Res. Norm  Remark
------------------------------------
                       Guess.
    1     6.010e+00  
    2     8.826e+00  
    3     1.519e+00  
    4     4.283e-01  
    5     1.167e-01  
    6     4.877e-02  
    7     1.486e-02  
    8     2.581e-03  
    9     1.001e-03  
   10     1.709e-04  
   11     5.664e-05  
   12     9.508e-06  
   13     3.556e-06  
   14     1.440e-06  
   15     5.766e-07  Converged.
   ... Converged in 15 steps (norm: 5.76563e-07)
------------------------------------
  Starting TPA DIIS iterations ... 
------------------------------------ 
   It     Res. Norm  Remark
------------------------------------
                       Guess.
    1     5.683e+00  
    2     8.356e+00  
    3     1.464e+00  
    4     4.324e-01  
    5     1.162e-01  
    6     4.976e-02  
    7     1.482e-02  
    8     2.680e-03  
    9     1.018e-03  
   10     1.749e-04  
   11     5.824e-05  
   12     9.695e-06  
   13     3.255e-06  
   14     1.408e-06  
   15     4.221e-07  Converged.
   ... Converged in 15 steps (norm: 4.22094e-07)
------------------------------------
  Starting TPA DIIS iterations ... 
------------------------------------ 
   It     Res. Norm  Remark
------------------------------------
                       Guess.
    1     7.523e-01  
    2     5.755e-01  
    3     2.231e-01  
    4     1.136e-01  
    5     2.652e-02  
    6     1.062e-02  
    7     1.996e-03  
    8     9.179e-04  
    9     2.876e-04  
   10     3.674e-05  
   11     2.421e-05  
   12     8.795e-06  
   13     7.002e-06  
   14     3.032e-06  
   15     9.184e-07  Converged.
   ... Converged in 15 steps (norm: 9.18354e-07)
------------------------------------
  Starting TPA DIIS iterations ... 
------------------------------------ 
   It     Res. Norm  Remark
------------------------------------
                       Guess.
    1     6.512e+00  
    2     9.818e+00  
    3     1.658e+00  
    4     4.892e-01  
    5     1.346e-01  
    6     5.676e-02  
    7     1.721e-02  
    8     2.984e-03  
    9     1.168e-03  
   10     2.002e-04  
   11     6.723e-05  
   12     1.144e-05  
   13     4.392e-06  
   14     1.838e-06  
   15     7.371e-07  Converged.
   ... Converged in 15 steps (norm: 7.37085e-07)
------------------------------------
  Starting TPA DIIS iterations ... 
------------------------------------ 
   It     Res. Norm  Remark
------------------------------------
                       Guess.
    1     6.158e+00  
    2     9.295e+00  
    3     1.597e+00  
    4     4.935e-01  
    5     1.341e-01  
    6     5.800e-02  
    7     1.718e-02  
    8     3.102e-03  
    9     1.188e-03  
   10     2.050e-04  
   11     6.903e-05  
   12     1.171e-05  
   13     3.958e-06  
   14     1.820e-06  
   15     5.604e-07  Converged.
   ... Converged in 15 steps (norm: 5.60431e-07)
------------------------------------
  Starting TPA DIIS iterations ... 
------------------------------------ 
   It     Res. Norm  Remark
------------------------------------
                       Guess.
    1     7.672e-01  
    2     6.007e-01  
    3     2.388e-01  
    4     1.328e-01  
    5     2.907e-02  
    6     1.199e-02  
    7     2.340e-03  
    8     1.068e-03  
    9     3.382e-04  
   10     4.400e-05  
   11     2.944e-05  
   12     1.089e-05  
   13     9.034e-06  
   14     3.983e-06  
   15     1.136e-06  
   16     5.973e-07  Converged.
   ... Converged in 16 steps (norm: 5.97307e-07)
------------------------------------
  Starting TPA DIIS iterations ... 
------------------------------------ 
   It     Res. Norm  Remark
------------------------------------
                       Guess.
    1     8.578e+00  
    2     1.413e+01  
    3     2.218e+00  
    4     7.657e-01  
    5     2.160e-01  
    6     9.387e-02  
    7     2.795e-02  
    8     4.814e-03  
    9     1.945e-03  
   10     3.355e-04  
   11     1.165e-04  
   12     2.097e-05  
   13     8.786e-06  
   14     4.195e-06  
   15     1.600e-06  
   16     7.378e-07  Converged.
   ... Converged in 16 steps (norm: 7.37818e-07)
------------------------------------
  Starting TPA DIIS iterations ... 
------------------------------------ 
   It     Res. Norm  Remark
------------------------------------
                       Guess.
    1     8.110e+00  
    2     1.338e+01  
    3     2.135e+00  
    4     7.708e-01  
    5     2.154e-01  
    6     9.636e-02  
    7     2.796e-02  
    8     5.015e-03  
    9     1.974e-03  
   10     3.441e-04  
   11     1.189e-04  
   12     2.192e-05  
   13     7.469e-06  
   14     4.443e-06  
   15     1.595e-06  
   16     1.165e-06  
   17     3.655e-07  Converged.
   ... Converged in 17 steps (norm: 3.65532e-07)
------------------------------------
  Starting TPA DIIS iterations ... 
------------------------------------ 
   It     Res. Norm  Remark
------------------------------------
                       Guess.
    1     8.175e-01  
    2     6.938e-01  
    3     2.996e-01  
    4     2.212e-01  
    5     4.043e-02  
    6     1.824e-02  
    7     4.008e-03  
    8     1.555e-03  
    9     5.430e-04  
   10     8.568e-05  
   11     5.686e-05  
   12     2.278e-05  
   13     2.035e-05  
   14     9.368e-06  
   15     2.710e-06  
   16     1.565e-06  
   17     4.091e-07  Converged.
   ... Converged in 17 steps (norm: 4.09115e-07)
------------------------------------
  Starting TPA DIIS iterations ... 
------------------------------------ 
   It     Res. Norm  Remark
------------------------------------
                       Guess.
    1     1.051e+01  
    2     1.847e+01  
    3     2.730e+00  
    4     1.054e+00  
    5     3.017e-01  
    6     1.339e-01  
    7     3.925e-02  
    8     6.732e-03  
    9     2.782e-03  
   10     4.799e-04  
   11     1.677e-04  
   12     3.212e-05  
   13     1.424e-05  
   14     7.587e-06  
   15     2.683e-06  
   16     1.319e-06  
   17     2.746e-07  Converged.
   ... Converged in 17 steps (norm: 2.7465e-07)
------------------------------------
  Starting TPA DIIS iterations ... 
------------------------------------ 
   It     Res. Norm  Remark
------------------------------------
                       Guess.
    1     9.937e+00  
    2     1.748e+01  
    3     2.624e+00  
    4     1.059e+00  
    5     3.011e-01  
    6     1.379e-01  
    7     3.932e-02  
    8     7.019e-03  
    9     2.819e-03  
   10     4.928e-04  
   11     1.704e-04  
   12     3.460e-05  
   13     1.176e-05  
   14     8.509e-06  
   15     3.517e-06  
   16     2.375e-06  
   17     7.194e-07  Converged.
   ... Converged in 17 steps (norm: 7.19382e-07)
------------------------------------
  Starting TPA DIIS iterations ... 
------------------------------------ 
   It     Res. Norm  Remark
------------------------------------
                       Guess.
    1     8.538e-01  
    2     7.700e-01  
    3     3.521e-01  
    4     3.084e-01  
    5     5.205e-02  
    6     2.447e-02  
    7     5.837e-03  
    8     1.807e-03  
    9     7.270e-04  
   10     1.330e-04  
   11     9.063e-05  
   12     3.889e-05  
   13     3.347e-05  
   14     1.634e-05  
   15     5.654e-06  
   16     3.005e-06  
   17     6.745e-07  Converged.
   ... Converged in 17 steps (norm: 6.74497e-07)
------------------------------------
  Starting TPA DIIS iterations ... 
------------------------------------ 
   It     Res. Norm  Remark
------------------------------------
                       Guess.
    1     1.146e+01  
    2     2.068e+01  
    3     2.975e+00  
    4     1.203e+00  
    5     3.465e-01  
    6     1.551e-01  
    7     4.516e-02  
    8     7.733e-03  
    9     3.224e-03  
   10     5.556e-04  
   11     1.939e-04  
   12     3.842e-05  
   13     1.742e-05  
   14     9.709e-06  
   15     3.335e-06  
   16     1.668e-06  
   17     3.438e-07  Converged.
   ... Converged in 17 steps (norm: 3.43814e-07)
------------------------------------
  Starting TPA DIIS iterations ... 
------------------------------------ 
   It     Res. Norm  Remark
------------------------------------
                       Guess.
    1     1.083e+01  
    2     1.958e+01  
    3     2.860e+00  
    4     1.208e+00  
    5     3.460e-01  
    6     1.599e-01  
    7     4.526e-02  
    8     8.065e-03  
    9     3.266e-03  
   10     5.709e-04  
   11     1.969e-04  
   12     4.205e-05  
   13     1.438e-05  
   14     1.111e-05  
   15     4.860e-06  
   16     3.165e-06  
   17     9.329e-07  Converged.
   ... Converged in 17 steps (norm: 9.32865e-07)
------------------------------------
  Starting TPA DIIS iterations ... 
------------------------------------ 
   It     Res. Norm  Remark
------------------------------------
                       Guess.
    1     8.690e-01  
    2     8.046e-01  
    3     3.766e-01  
    4     3.495e-01  
    5     5.799e-02  
    6     2.749e-02  
    7     6.789e-03  
    8     1.888e-03  
    9     8.152e-04  
   10     1.573e-04  
   11     1.098e-04  
   12     4.860e-05  
   13     3.995e-05  
   14     2.034e-05  
   15     7.641e-06  
   16     3.938e-06  
   17     8.705e-07  Converged.
   ... Converged in 17 steps (norm: 8.70531e-07)
------------------------------------
  Starting TPA DIIS iterations ... 
------------------------------------ 
   It     Res. Norm  Remark
------------------------------------
                       Guess.
    1     1.231e+01  
    2     2.274e+01  
    3     3.194e+00  
    4     1.341e+00  
    5     3.883e-01  
    6     1.751e-01  
    7     5.068e-02  
    8     8.666e-03  
    9     3.640e-03  
   10     6.265e-04  
   11     2.181e-04  
   12     4.459e-05  
   13     2.062e-05  
   14     1.190e-05  
   15     4.018e-06  
   16     2.021e-06  
   17     4.303e-07  Converged.
   ... Converged in 17 steps (norm: 4.30253e-07)
------------------------------------
  Starting TPA DIIS iterations ... 
------------------------------------ 
   It     Res. Norm  Remark
------------------------------------
                       Guess.
    1     1.164e+01  
    2     2.153e+01  
    3     3.069e+00  
    4     1.346e+00  
    5     3.878e-01  
    6     1.806e-01  
    7     5.080e-02  
    8     9.040e-03  
    9     3.686e-03  
   10     6.441e-04  
   11     2.215e-04  
   12     4.952e-05  
   13     1.713e-05  
   14     1.380e-05  
   15     6.305e-06  
   16     3.999e-06  
   17     1.144e-06  
   18     4.450e-07  Converged.
   ... Converged in 18 steps (norm: 4.45033e-07)
------------------------------------
  Starting TPA DIIS iterations ... 
------------------------------------ 
   It     Res. Norm  Remark
------------------------------------
                       Guess.
    1     8.816e-01  
    2     8.346e-01  
    3     3.981e-01  
    4     3.848e-01  
    5     6.345e-02  
    6     3.014e-02  
    7     7.667e-03  
    8     1.953e-03  
    9     8.940e-04  
   10     1.796e-04  
   11     1.285e-04  
   12     5.842e-05  
   13     4.559e-05  
   14     2.422e-05  
   15     9.738e-06  
   16     4.936e-06  
   17     1.137e-06  
   18     7.569e-07  Converged.
   ... Converged in 18 steps (norm: 7.56917e-07)
------------------------------------
  Two-photon absorbption ...  CPU 100.77 s  wall 19.35 s
  Transition density matrix of state singlet_A_1 printed to ASCII file 'State_singlet_A_1_Transition.txt'
  Transition density matrix of state singlet_A_2 printed to ASCII file 'State_singlet_A_2_Transition.txt'
  Transition density matrix of state singlet_A_3 printed to ASCII file 'State_singlet_A_3_Transition.txt'
  Transition density matrix of state singlet_A_4 printed to ASCII file 'State_singlet_A_4_Transition.txt'
  Transition density matrix of state singlet_A_5 printed to ASCII file 'State_singlet_A_5_Transition.txt'
  Transition density matrix of state singlet_A_6 printed to ASCII file 'State_singlet_A_6_Transition.txt'
  Transition density matrix of state singlet_A_7 printed to ASCII file 'State_singlet_A_7_Transition.txt'
  Transition density matrix of state singlet_A_8 printed to ASCII file 'State_singlet_A_8_Transition.txt'
  Transition density matrix of state singlet_A_9 printed to ASCII file 'State_singlet_A_9_Transition.txt'
  Transition density matrix of state singlet_A_10 printed to ASCII file 'State_singlet_A_10_Transition.txt'
  Transition properties ...  CPU 0.14 s  wall 1.09 s
  Difference density matrix of state singlet_A_1 printed to ASCII file 'State_singlet_A_1_Difference.txt'
  Total density matrix of state singlet_A_1 printed to ASCII file 'State_singlet_A_1_Total.txt'
  Difference density matrix of state singlet_A_2 printed to ASCII file 'State_singlet_A_2_Difference.txt'
  Total density matrix of state singlet_A_2 printed to ASCII file 'State_singlet_A_2_Total.txt'
  Difference density matrix of state singlet_A_3 printed to ASCII file 'State_singlet_A_3_Difference.txt'
  Total density matrix of state singlet_A_3 printed to ASCII file 'State_singlet_A_3_Total.txt'
  Difference density matrix of state singlet_A_4 printed to ASCII file 'State_singlet_A_4_Difference.txt'
  Total density matrix of state singlet_A_4 printed to ASCII file 'State_singlet_A_4_Total.txt'
  Difference density matrix of state singlet_A_5 printed to ASCII file 'State_singlet_A_5_Difference.txt'
  Total density matrix of state singlet_A_5 printed to ASCII file 'State_singlet_A_5_Total.txt'
  Difference density matrix of state singlet_A_6 printed to ASCII file 'State_singlet_A_6_Difference.txt'
  Total density matrix of state singlet_A_6 printed to ASCII file 'State_singlet_A_6_Total.txt'
  Difference density matrix of state singlet_A_7 printed to ASCII file 'State_singlet_A_7_Difference.txt'
  Total density matrix of state singlet_A_7 printed to ASCII file 'State_singlet_A_7_Total.txt'
  Difference density matrix of state singlet_A_8 printed to ASCII file 'State_singlet_A_8_Difference.txt'
  Total density matrix of state singlet_A_8 printed to ASCII file 'State_singlet_A_8_Total.txt'
  Difference density matrix of state singlet_A_9 printed to ASCII file 'State_singlet_A_9_Difference.txt'
  Total density matrix of state singlet_A_9 printed to ASCII file 'State_singlet_A_9_Total.txt'
  Difference density matrix of state singlet_A_10 printed to ASCII file 'State_singlet_A_10_Difference.txt'
  Total density matrix of state singlet_A_10 printed to ASCII file 'State_singlet_A_10_Total.txt'
  Properties ...  CPU 0.26 s  wall 1.49 s
  ISR TDMS ...  CPU 8.21 s  wall 2.79 s
  ISR transition properties ...  CPU 0.15 s  wall 0.07 s
  Sum-over-states TPA ...  CPU 0.00 s  wall 0.00 s

--------------------------------------------------------------------------------
                   State-averaged natural transition orbitals
--------------------------------------------------------------------------------
--------------------------------------------------------------------------------
  SA-NTO decomposition ...  CPU 0.01 s  wall 0.04 s

--------------------------------------------------------------------------------
                             Excited State Summary
--------------------------------------------------------------------------------
--------------------------------------------------------------------------------

  Excited state 1 (singlet, A)                                     [converged]
  ----------------------------------------------------------------------------
  Term symbol:  2 (1) A                                     R^2 =  2.22698e-13

  Total energy:                                            -77.9982902908 a.u.
  Excitation energy:                                               8.740050 eV

  Osc. strength:                                                      0.445986
  Trans. dip. moment [a.u.]:           [   1.041796,   -0.998685,   -0.009823]
  <i|r^2|0> [a.u.]:                    [   6.152774,   -0.262641,   -0.000668]
  Two-photon absorption cross-section (SoS) [a.u.]:                   0.017155
  Two-photon absorption matrix (SoS) [a.u.]:
                                       |    0.034153   -0.017428   -0.001643 |
                                       |   -0.017428   -0.013085   -0.002908 |
                                       |   -0.001643   -0.002908    0.031043 |
  Two-photon absorption cross-section [a.u.]:                         0.018406
  Two-photon absorption matrix [a.u.]:
                                       |    0.016439   -0.020074    0.001700 |
                                       |   -0.020074   -0.052686    0.001681 |
                                       |    0.001700    0.001681    0.026231 |

  Dip. moment [a.u.]:                  [  -0.003548,    0.002674,    0.001162]
  Total dipole [Debye]:                                               0.011672
  <r^2> [a.u.]:                        [ 176.472582,   35.687639,   11.876057]
  Total <r^2> [a.u.]:                                               224.036279

  V1^2 = 0.9715, V2^2 = 0.0285

  Important amplitudes:
      occ i     occ j     vir a      vir b          v   
    -----------------------------------------------------
     8 (A) A              9 (A) A                 0.6809
     6 (A) A             14 (A) A                 0.0625
     4 (A) A             10 (A) A                -0.0614
     7 (A) A             16 (A) A                 0.0560
     5 (A) A             13 (A) A                -0.0512
     6 (A) A             23 (A) A                -0.0490
     8 (A) A             20 (A) A                 0.0352
     6 (A) A             19 (A) A                -0.0304
     3 (A) A             12 (A) A                 0.0280
     7 (A) A             11 (A) A                 0.0224
     5 (A) A             22 (A) A                 0.0214
     4 (A) A             24 (A) A                -0.0188
     3 (A) A             26 (A) A                -0.0184
     8 (A) A   8 (A) B   17 (A) A   20 (A) B     -0.0184
     8 (A) A   8 (A) B    9 (A) A   28 (A) B     -0.0166
     6 (A) A             26 (A) A                -0.0160
     7 (A) A             21 (A) A                 0.0154
     3 (A) A             14 (A) A                 0.0138
     6 (A) A             12 (A) A                -0.0137
     3 (A) A   4 (A) B    9 (A) A    9 (A) B      0.0129
     3 (A) A             19 (A) A                -0.0118
     8 (A) A   8 (A) B   18 (A) A   19 (A) B      0.0112
     7 (A) A             32 (A) A                 0.0090
     3 (A) A             23 (A) A                -0.0084
     7 (A) A             36 (A) A                 0.0083
     8 (A) A   8 (A) B   25 (A) A   29 (A) B      0.0076
     6 (A) A             40 (A) A                -0.0068
     3 (A) A   6 (A) B    9 (A) A   28 (A) B     -0.0064
     7 (A) A              9 (A) A                -0.0062
     6 (A) A   8 (A) A   19 (A) A   28 (A) A     -0.0060
     5 (A) A   7 (A) B    9 (A) A    9 (A) B     -0.0060
     5 (A) A   8 (A) B   11 (A) A   20 (A) B     -0.0059
     7 (A) A   8 (A) B   13 (A) A   20 (A) B      0.0059
     5 (A) A   8 (A) B   16 (A) A    9 (A) B     -0.0059
     3 (A) A   5 (A) B    9 (A) A   25 (A) B     -0.0058
     5 (A) A   8 (A) B   11 (A) A    9 (A) B      0.0057
     6 (A) A   8 (A) A    9 (A) A   18 (A) A     -0.0057
     3 (A) A             40 (A) A                -0.0057
     7 (A) A   8 (A) B   22 (A) A   20 (A) B     -0.0057
     8 (A) A   8 (A) B   19 (A) A   30 (A) B      0.0056
    -----------------------------------------------------

  Density matrix analysis:
  ------------------------
  NOs
    Occupation of frontier NOs:
       0.9492   1.0220
    Number of electrons: 16.000000
    Number of unpaired electrons: n_u =  2.31394, n_u,nl =  2.03281
    NO participation ratio (PR_NO):  2.867109
  
  
  Mulliken Population Analysis
  Atom      Charge (e)              h+              e-           Del q
  --------------------------------------------------------------------
   1 H        0.060028        0.020165       -0.012620        0.007545
   2 C       -0.116670        0.491292       -0.505349       -0.014056
   3 H        0.059846        0.019956       -0.012892        0.007064
   4 C       -0.118027        0.490310       -0.506187       -0.015876
   5 H        0.056810        0.020067       -0.012597        0.007470
   6 H        0.058015        0.020395       -0.012542        0.007853
  --------------------------------------------------------------------
  Sum:        0.000000        1.062186       -1.062186       -0.000000
  
  Multipole moment analysis of the density matrix
    Molecular charge:                      0.000000
    Number of electrons:                   16.000000
      Center of electronic charge [Ang]: [ -1.562959,  -0.065691,   0.001940]
    Total nuclear charge:                  16.000000
      Center of nuclear charge [Ang]:    [ -1.563076,  -0.065602,   0.001978]
    Dipole moment [D]:                     0.011672
      Cartesian components [D]:          [ -0.009019,   0.006796,   0.002953]
    RMS size of the density [Ang]:         1.214032
      Cartesian components [Ang]:        [  0.803582,   0.787580,   0.455904]
  
  Exciton analysis of the difference density matrix
    <r_h> [Ang]:                  [ -1.560915,  -0.066232,   0.001496]
    <r_e> [Ang]:                  [ -1.561051,  -0.065588,   0.001424]
    |<r_e - r_h>| [Ang]:            0.000662
    Hole size [Ang]:                1.285394
      Cartesian components [Ang]: [  0.728019,   0.712886,   0.783594]
    Electron size [Ang]:            1.463281
      Cartesian components [Ang]: [  0.854140,   0.830589,   0.849564]

  Transition density matrix analysis:
  -----------------------------------
  
  CT numbers (Mulliken)
    omega =     0.9534
    <Phe> =    -0.1602
  
  Exciton analysis of the transition density matrix
    Trans. dipole moment [D]:             1.834116
      Cartesian components [D]:         [  1.323990,  -1.269202,  -0.012484]
    <r_h> [Ang]:                        [ -1.560136,  -0.066692,   0.001620]
    <r_e> [Ang]:                        [ -1.561178,  -0.065604,   0.001352]
    |<r_e - r_h>| [Ang]:                  0.001531
    Hole size [Ang]:                      1.214263
      Cartesian components [Ang]:       [  0.649478,   0.636784,   0.804437]
    Electron size [Ang]:                  1.485983
      Cartesian components [Ang]:       [  0.864416,   0.839498,   0.869583]
    RMS electron-hole separation [Ang]:   1.936044
      Cartesian components [Ang]:       [  1.106375,   1.074529,   1.170294]
    Covariance(r_h, r_e) [Ang^2]:        -0.032841
    Correlation coefficient:             -0.018201
    Center-of-mass size [Ang]:            0.950907
      Cartesian components [Ang]:       [  0.527733,   0.516210,   0.599375]

  Decomposition into state-averaged NTOs
    H- 0 -> L+ 0: -0.6698 ( 89.7%)
    H- 2 -> L+ 5: -0.0839 (  1.4%)
                   omega =  95.3%
  ----------------------------------------------------------------------------


  Excited state 2 (singlet, A)                                     [converged]
  ----------------------------------------------------------------------------
  Term symbol:  3 (1) A                                     R^2 =  1.84925e-13

  Total energy:                                            -77.9863015120 a.u.
  Excitation energy:                                               9.066281 eV

  Osc. strength:                                                      0.000698
  Trans. dip. moment [a.u.]:           [   0.007427,   -0.013693,    0.053836]
  <i|r^2|0> [a.u.]:                    [  -0.016000,   -0.092108,    0.148246]
  Two-photon absorption cross-section (SoS) [a.u.]:                   5.408380
  Two-photon absorption matrix (SoS) [a.u.]:
                                       |   -0.058155   -0.061453    0.567771 |
                                       |   -0.061453   -0.064630    0.581976 |
                                       |    0.567771    0.581976    0.121912 |
  Two-photon absorption cross-section [a.u.]:                         0.081491
  Two-photon absorption matrix [a.u.]:
                                       |   -0.001719    0.004978   -0.007167 |
                                       |    0.004978    0.012966   -0.099700 |
                                       |   -0.007167   -0.099700   -0.012953 |

  Dip. moment [a.u.]:                  [   0.047938,    0.111664,    0.010965]
  Total dipole [Debye]:                                               0.310125
  <r^2> [a.u.]:                        [ 175.522402,   34.105069,   13.112557]
  Total <r^2> [a.u.]:                                               222.740028

  V1^2 = 0.9544, V2^2 = 0.0456

  Important amplitudes:
      occ i     occ j     vir a      vir b          v   
    -----------------------------------------------------
     7 (A) A              9 (A) A                 0.6589
     8 (A) A             11 (A) A                 0.1526
     8 (A) A             10 (A) A                -0.1107
     7 (A) A             20 (A) A                 0.0749
     5 (A) A   8 (A) B    9 (A) A    9 (A) B     -0.0310
     8 (A) A             16 (A) A                -0.0275
     8 (A) A             21 (A) A                 0.0184
     5 (A) A             28 (A) A                -0.0145
     4 (A) A   7 (A) B    9 (A) A   19 (A) B     -0.0133
     5 (A) A   7 (A) B    9 (A) A   16 (A) B      0.0130
     6 (A) A              9 (A) A                -0.0116
     8 (A) A             12 (A) A                 0.0113
     7 (A) A   8 (A) B   20 (A) A   17 (A) B     -0.0104
     7 (A) A   8 (A) A    9 (A) A   28 (A) A      0.0095
     5 (A) A   8 (A) B    9 (A) A   20 (A) B     -0.0094
     5 (A) A   6 (A) A    9 (A) A   23 (A) A     -0.0090
     4 (A) A   6 (A) B    9 (A) A   16 (A) B      0.0090
     5 (A) A   6 (A) A    9 (A) A   14 (A) A      0.0087
     5 (A) A   6 (A) B    9 (A) A   19 (A) B     -0.0084
     4 (A) A   5 (A) A    9 (A) A   10 (A) A      0.0084
     8 (A) A   7 (A) B    9 (A) A   28 (A) B     -0.0083
     6 (A) A   7 (A) B    9 (A) A   18 (A) B     -0.0081
     5 (A) A   6 (A) B    9 (A) A   23 (A) B     -0.0080
     3 (A) A   7 (A) B    9 (A) A   18 (A) B      0.0078
     5 (A) A   7 (A) A    9 (A) A   16 (A) A      0.0077
     4 (A) A   8 (A) B    9 (A) A   25 (A) B      0.0076
     8 (A) A             24 (A) A                -0.0076
     7 (A) A   8 (A) B   17 (A) A   20 (A) B     -0.0073
     4 (A) A   7 (A) B   19 (A) A    9 (A) B     -0.0073
     7 (A) A   8 (A) B   19 (A) A   18 (A) B      0.0071
     5 (A) A   5 (A) B    9 (A) A   13 (A) B     -0.0070
     5 (A) A   8 (A) A    9 (A) A   20 (A) A     -0.0068
     4 (A) A   5 (A) B    9 (A) A   18 (A) B     -0.0065
     7 (A) A   7 (A) B   20 (A) A   22 (A) B     -0.0064
     7 (A) A   8 (A) B   17 (A) A    9 (A) B     -0.0064
     5 (A) A   6 (A) B    9 (A) A   14 (A) B      0.0061
     4 (A) A   7 (A) B    9 (A) A   14 (A) B     -0.0061
     4 (A) A   7 (A) A    9 (A) A   19 (A) A     -0.0061
     4 (A) A   5 (A) B   10 (A) A    9 (A) B     -0.0060
     8 (A) A              9 (A) A                 0.0060
    -----------------------------------------------------

  Density matrix analysis:
  ------------------------
  NOs
    Occupation of frontier NOs:
       0.9295   1.0811
    Number of electrons: 16.000000
    Number of unpaired electrons: n_u =  2.35565, n_u,nl =  2.08367
    NO participation ratio (PR_NO):  3.193427
  
  
  Mulliken Population Analysis
  Atom      Charge (e)              h+              e-           Del q
  --------------------------------------------------------------------
   1 H        0.147341        0.105715       -0.010856        0.094859
   2 C       -0.283734        0.268655       -0.449775       -0.181120
   3 H        0.132685        0.133091       -0.053187        0.079904
   4 C       -0.284946        0.276516       -0.459310       -0.182795
   5 H        0.167620        0.129621       -0.011341        0.118280
   6 H        0.121034        0.119228       -0.048356        0.070872
  --------------------------------------------------------------------
  Sum:        0.000000        1.032825       -1.032825        0.000000
  
  Multipole moment analysis of the density matrix
    Molecular charge:                      0.000000
    Number of electrons:                   16.000000
      Center of electronic charge [Ang]: [ -1.564662,  -0.069295,   0.001616]
    Total nuclear charge:                  16.000000
      Center of nuclear charge [Ang]:    [ -1.563076,  -0.065602,   0.001978]
    Dipole moment [D]:                     0.310125
      Cartesian components [D]:          [  0.121846,   0.283821,   0.027871]
    RMS size of the density [Ang]:         1.202238
      Cartesian components [Ang]:        [  0.789803,   0.769479,   0.479052]
  
  Exciton analysis of the difference density matrix
    <r_h> [Ang]:                  [ -1.590230,  -0.066721,   0.000780]
    <r_e> [Ang]:                  [ -1.616750,  -0.121901,  -0.004316]
    |<r_e - r_h>| [Ang]:            0.061433
    Hole size [Ang]:                1.484587
      Cartesian components [Ang]: [  0.970894,   1.019271,   0.471646]
    Electron size [Ang]:            1.503422
      Cartesian components [Ang]: [  0.897563,   0.886664,   0.817609]

  Transition density matrix analysis:
  -----------------------------------
  
  CT numbers (Mulliken)
    omega =     0.9219
    <Phe> =    -0.0120
  
  Exciton analysis of the transition density matrix
    Trans. dipole moment [D]:             0.071225
      Cartesian components [D]:         [  0.009439,  -0.017402,   0.068419]
    <r_h> [Ang]:                        [ -1.591232,  -0.063380,   0.001036]
    <r_e> [Ang]:                        [ -1.617458,  -0.127634,  -0.004828]
    |<r_e - r_h>| [Ang]:                  0.069648
    Hole size [Ang]:                      1.504899
      Cartesian components [Ang]:       [  0.985614,   1.039915,   0.460286]
    Electron size [Ang]:                  1.502219
      Cartesian components [Ang]:       [  0.891971,   0.878173,   0.830579]
    RMS electron-hole separation [Ang]:   2.109012
      Cartesian components [Ang]:       [  1.315667,   1.347849,   0.948819]
    Covariance(r_h, r_e) [Ang^2]:         0.039150
    Correlation coefficient:              0.017318
    Center-of-mass size [Ang]:            1.072344
      Cartesian components [Ang]:       [  0.671529,   0.687869,   0.475191]

  Decomposition into state-averaged NTOs
    H- 1 -> L+ 0: -0.6513 ( 84.8%)
    H- 0 -> L+ 2: -0.1478 (  4.4%)
    H- 0 -> L+ 1: -0.1160 (  2.7%)
                   omega =  92.2%
  ----------------------------------------------------------------------------


  Excited state 3 (singlet, A)                                     [converged]
  ----------------------------------------------------------------------------
  Term symbol:  4 (1) A                                     R^2 =  1.37681e-13

  Total energy:                                            -77.9838212962 a.u.
  Excitation energy:                                               9.133771 eV

  Osc. strength:                                                      0.023460
  Trans. dip. moment [a.u.]:           [   0.017336,    0.016820,   -0.322883]
  <i|r^2|0> [a.u.]:                    [   0.098174,   -0.015733,    0.025374]
  Two-photon absorption cross-section (SoS) [a.u.]:                   0.041835
  Two-photon absorption matrix (SoS) [a.u.]:
                                       |    0.042276    0.005607   -0.052492 |
                                       |    0.005607   -0.032400   -0.031614 |
                                       |   -0.052492   -0.031614    0.000061 |
  Two-photon absorption cross-section [a.u.]:                         0.173690
  Two-photon absorption matrix [a.u.]:
                                       |    0.041865    0.010457   -0.117655 |
                                       |    0.010457   -0.013478   -0.081432 |
                                       |   -0.117655   -0.081432   -0.015419 |

  Dip. moment [a.u.]:                  [  -0.005054,    0.080211,    0.003267]
  Total dipole [Debye]:                                               0.204449
  <r^2> [a.u.]:                        [ 180.961758,   40.431006,   11.079601]
  Total <r^2> [a.u.]:                                               232.472366

  V1^2 = 0.9586, V2^2 = 0.0414

  Important amplitudes:
      occ i     occ j     vir a      vir b          v   
    -----------------------------------------------------
     8 (A) A             10 (A) A                 0.6798
     7 (A) A              9 (A) A                 0.1109
     8 (A) A             24 (A) A                 0.0499
     8 (A) A             18 (A) A                -0.0311
     4 (A) A              9 (A) A                -0.0240
     8 (A) A   8 (A) B    9 (A) A   12 (A) B      0.0216
     8 (A) A             15 (A) A                 0.0181
     8 (A) A   8 (A) B   10 (A) A   17 (A) B      0.0170
     5 (A) A   8 (A) B   11 (A) A   10 (A) B      0.0162
     7 (A) A   8 (A) B   13 (A) A   10 (A) B     -0.0138
     7 (A) A             20 (A) A                 0.0124
     4 (A) A   8 (A) B   12 (A) A   10 (A) B     -0.0109
     7 (A) A   8 (A) B   22 (A) A   10 (A) B      0.0106
     6 (A) A   8 (A) A   10 (A) A   15 (A) A     -0.0106
     4 (A) A   8 (A) A   10 (A) A   12 (A) A      0.0105
     8 (A) A             11 (A) A                 0.0105
     6 (A) A   8 (A) B   15 (A) A   10 (A) B      0.0104
     7 (A) A   8 (A) A   10 (A) A   22 (A) A     -0.0097
     7 (A) A   8 (A) A   10 (A) A   13 (A) A      0.0095
     5 (A) A   8 (A) B   21 (A) A   10 (A) B      0.0092
     5 (A) A   8 (A) A   10 (A) A   11 (A) A     -0.0091
     6 (A) A   8 (A) A   10 (A) A   18 (A) A     -0.0089
     6 (A) A   8 (A) B   10 (A) A   10 (A) B     -0.0086
     7 (A) A   8 (A) A   12 (A) A   16 (A) A      0.0080
     3 (A) A   4 (A) B   10 (A) A    9 (A) B      0.0079
     5 (A) A   8 (A) A   10 (A) A   21 (A) A     -0.0077
     4 (A) A   8 (A) B   19 (A) A   10 (A) B      0.0074
     8 (A) A   8 (A) B    9 (A) A   23 (A) B      0.0073
     3 (A) A   8 (A) B   10 (A) A   10 (A) B      0.0071
     8 (A) A   8 (A) B   10 (A) A   28 (A) B     -0.0071
     5 (A) A   8 (A) B   10 (A) A   11 (A) B      0.0071
     3 (A) A   8 (A) A   10 (A) A   24 (A) A     -0.0070
     7 (A) A   8 (A) B   16 (A) A   12 (A) B     -0.0069
     8 (A) A   8 (A) B    9 (A) A   19 (A) B     -0.0069
     8 (A) A             12 (A) A                -0.0068
     6 (A) A   8 (A) B   18 (A) A   10 (A) B      0.0068
     3 (A) A   8 (A) B   10 (A) A   18 (A) B     -0.0068
     3 (A) A   6 (A) B   10 (A) A   28 (A) B     -0.0061
     7 (A) A   8 (A) B   12 (A) A   11 (A) B      0.0057
     6 (A) A             28 (A) A                 0.0056
    -----------------------------------------------------

  Density matrix analysis:
  ------------------------
  NOs
    Occupation of frontier NOs:
       0.9594   1.0067
    Number of electrons: 16.000000
    Number of unpaired electrons: n_u =  2.32473, n_u,nl =  2.03807
    NO participation ratio (PR_NO):  2.817762
  
  
  Mulliken Population Analysis
  Atom      Charge (e)              h+              e-           Del q
  --------------------------------------------------------------------
   1 H       -0.150798        0.056635       -0.259915       -0.203281
   2 C        0.302984        0.520589       -0.114991        0.405598
   3 H       -0.162355        0.053946       -0.269082       -0.215136
   4 C        0.301300        0.511213       -0.107763        0.403450
   5 H       -0.142811        0.057780       -0.249931       -0.192151
   6 H       -0.148320        0.054454       -0.252935       -0.198481
  --------------------------------------------------------------------
  Sum:        0.000000        1.254617       -1.254617        0.000000
  
  Multipole moment analysis of the density matrix
    Molecular charge:                      0.000000
    Number of electrons:                   16.000000
      Center of electronic charge [Ang]: [ -1.562909,  -0.068255,   0.001870]
    Total nuclear charge:                  16.000000
      Center of nuclear charge [Ang]:    [ -1.563076,  -0.065602,   0.001978]
    Dipole moment [D]:                     0.204449
      Cartesian components [D]:          [ -0.012846,   0.203876,   0.008303]
    RMS size of the density [Ang]:         1.273316
      Cartesian components [Ang]:        [  0.851157,   0.838425,   0.440351]
  
  Exciton analysis of the difference density matrix
    <r_h> [Ang]:                  [ -1.557216,  -0.066016,   0.001938]
    <r_e> [Ang]:                  [ -1.556696,  -0.098175,   0.000989]
    |<r_e - r_h>| [Ang]:            0.032177
    Hole size [Ang]:                1.418866
      Cartesian components [Ang]: [  0.840502,   0.828277,   0.787840]
    Electron size [Ang]:            2.075256
      Cartesian components [Ang]: [  1.370889,   1.375940,   0.730850]

  Transition density matrix analysis:
  -----------------------------------
  
  CT numbers (Mulliken)
    omega =     0.9258
    <Phe> =    -0.0112
  
  Exciton analysis of the transition density matrix
    Trans. dipole moment [D]:             0.411490
      Cartesian components [D]:         [  0.022032,   0.021376,  -0.410343]
    <r_h> [Ang]:                        [ -1.555437,  -0.060577,   0.002090]
    <r_e> [Ang]:                        [ -1.554011,  -0.106857,   0.000816]
    |<r_e - r_h>| [Ang]:                  0.046319
    Hole size [Ang]:                      1.222140
      Cartesian components [Ang]:       [  0.649787,   0.638010,   0.815074]
    Electron size [Ang]:                  2.268513
      Cartesian components [Ang]:       [  1.496698,   1.504878,   0.800865]
    RMS electron-hole separation [Ang]:   2.566956
      Cartesian components [Ang]:       [  1.623956,   1.627863,   1.141092]
    Covariance(r_h, r_e) [Ang^2]:         0.026330
    Correlation coefficient:              0.009497
    Center-of-mass size [Ang]:            1.293487
      Cartesian components [Ang]:       [  0.819669,   0.820920,   0.572139]

  Decomposition into state-averaged NTOs
    H- 0 -> L+ 1:  0.6695 ( 89.7%)
    H- 1 -> L+ 0: -0.1097 (  2.4%)
                   omega =  92.6%
  ----------------------------------------------------------------------------


  Excited state 4 (singlet, A)                                     [converged]
  ----------------------------------------------------------------------------
  Term symbol:  5 (1) A                                     R^2 =  2.72716e-13

  Total energy:                                            -77.9585664743 a.u.
  Excitation energy:                                               9.820990 eV

  Osc. strength:                                                      0.000084
  Trans. dip. moment [a.u.]:           [   0.003165,   -0.005062,    0.017686]
  <i|r^2|0> [a.u.]:                    [   0.038608,    0.014551,   -0.035864]
  Two-photon absorption cross-section (SoS) [a.u.]:                 147.165703
  Two-photon absorption matrix (SoS) [a.u.]:
                                       |    0.285947    0.320213   -3.059631 |
                                       |    0.320213    0.352243   -2.936820 |
                                       |   -3.059631   -2.936820   -0.638748 |
  Two-photon absorption cross-section [a.u.]:                        91.347795
  Two-photon absorption matrix [a.u.]:
                                       |    0.220226    0.251911   -2.374609 |
                                       |    0.251911    0.282749   -2.350526 |
                                       |   -2.374609   -2.350526   -0.504085 |

  Dip. moment [a.u.]:                  [  -0.154820,   -0.109093,   -0.015117]
  Total dipole [Debye]:                                               0.482926
  <r^2> [a.u.]:                        [ 180.852677,   40.421588,   10.791111]
  Total <r^2> [a.u.]:                                               232.065376

  V1^2 = 0.9634, V2^2 = 0.0366

  Important amplitudes:
      occ i     occ j     vir a      vir b          v   
    -----------------------------------------------------
     8 (A) A             11 (A) A                -0.6684
     7 (A) A              9 (A) A                 0.1540
     8 (A) A             21 (A) A                -0.0776
     8 (A) A             16 (A) A                 0.0637
     6 (A) A              9 (A) A                -0.0212
     8 (A) A   8 (A) B    9 (A) A   13 (A) B      0.0166
     5 (A) A   8 (A) B   11 (A) A   11 (A) B     -0.0155
     8 (A) A             10 (A) A                -0.0148
     7 (A) A             20 (A) A                 0.0142
     8 (A) A   8 (A) B   11 (A) A   17 (A) B     -0.0140
     8 (A) A             12 (A) A                -0.0139
     7 (A) A   8 (A) B   13 (A) A   11 (A) B      0.0127
     4 (A) A   8 (A) B   12 (A) A   11 (A) B      0.0110
     5 (A) A   8 (A) A   11 (A) A   21 (A) A      0.0110
     8 (A) A   8 (A) B    9 (A) A   22 (A) B     -0.0106
     7 (A) A   8 (A) A   11 (A) A   22 (A) A      0.0096
     6 (A) A   8 (A) B   10 (A) A   11 (A) B      0.0090
     6 (A) A   8 (A) B   15 (A) A   11 (A) B     -0.0089
     7 (A) A   8 (A) B   22 (A) A   11 (A) B     -0.0089
     3 (A) A   4 (A) B   11 (A) A    9 (A) B     -0.0083
     3 (A) A   8 (A) B   11 (A) A   18 (A) B      0.0081
     6 (A) A   8 (A) A   11 (A) A   15 (A) A      0.0079
     7 (A) A   8 (A) A   13 (A) A   16 (A) A      0.0078
     7 (A) A   8 (A) A   11 (A) A   13 (A) A     -0.0077
     5 (A) A   8 (A) B   21 (A) A   11 (A) B     -0.0071
     4 (A) A   8 (A) B   19 (A) A   11 (A) B     -0.0070
     5 (A) A   8 (A) B    9 (A) A    9 (A) B     -0.0069
     6 (A) A   8 (A) A   11 (A) A   18 (A) A      0.0064
     4 (A) A   8 (A) A   11 (A) A   12 (A) A     -0.0063
     6 (A) A   8 (A) B   18 (A) A   11 (A) B     -0.0062
     3 (A) A   6 (A) B   11 (A) A   28 (A) B      0.0060
     5 (A) A   8 (A) B   10 (A) A   10 (A) B     -0.0057
     7 (A) A   8 (A) B   16 (A) A   13 (A) B     -0.0056
     3 (A) A   8 (A) A   11 (A) A   18 (A) A      0.0056
     3 (A) A   8 (A) B   11 (A) A   30 (A) B      0.0055
     3 (A) A   5 (A) B   11 (A) A   25 (A) B      0.0054
     6 (A) A   8 (A) B   11 (A) A   10 (A) B      0.0054
     7 (A) A   8 (A) B   12 (A) A   10 (A) B     -0.0054
     3 (A) A   8 (A) A   11 (A) A   24 (A) A      0.0053
     8 (A) A   8 (A) B   20 (A) A   22 (A) B     -0.0053
    -----------------------------------------------------

  Density matrix analysis:
  ------------------------
  NOs
    Occupation of frontier NOs:
       0.9375   1.0310
    Number of electrons: 16.000000
    Number of unpaired electrons: n_u =  2.32001, n_u,nl =  2.05151
    NO participation ratio (PR_NO):  2.934457
  
  
  Mulliken Population Analysis
  Atom      Charge (e)              h+              e-           Del q
  --------------------------------------------------------------------
   1 H       -0.176637        0.045195       -0.274314       -0.229120
   2 C        0.276449        0.497345       -0.118282        0.379063
   3 H       -0.104094        0.048292       -0.205167       -0.156875
   4 C        0.269903        0.493927       -0.121874        0.372053
   5 H       -0.145665        0.049105       -0.244110       -0.195005
   6 H       -0.119955        0.045217       -0.215334       -0.170116
  --------------------------------------------------------------------
  Sum:        0.000000        1.179082       -1.179082       -0.000000
  
  Multipole moment analysis of the density matrix
    Molecular charge:                      0.000000
    Number of electrons:                   16.000000
      Center of electronic charge [Ang]: [ -1.557956,  -0.061994,   0.002478]
    Total nuclear charge:                  16.000000
      Center of nuclear charge [Ang]:    [ -1.563076,  -0.065602,   0.001978]
    Dipole moment [D]:                     0.482926
      Cartesian components [D]:          [ -0.393514,  -0.277286,  -0.038424]
    RMS size of the density [Ang]:         1.276903
      Cartesian components [Ang]:        [  0.859080,   0.838813,   0.434577]
  
  Exciton analysis of the difference density matrix
    <r_h> [Ang]:                  [ -1.557252,  -0.062964,   0.002070]
    <r_e> [Ang]:                  [ -1.489483,  -0.012223,   0.009311]
    |<r_e - r_h>| [Ang]:            0.084969
    Hole size [Ang]:                1.396410
      Cartesian components [Ang]: [  0.816232,   0.812058,   0.790119]
    Electron size [Ang]:            2.123167
      Cartesian components [Ang]: [  1.446759,   1.396831,   0.680875]

  Transition density matrix analysis:
  -----------------------------------
  
  CT numbers (Mulliken)
    omega =     0.9297
    <Phe> =    -0.0133
  
  Exciton analysis of the transition density matrix
    Trans. dipole moment [D]:             0.023723
      Cartesian components [D]:         [  0.004023,  -0.006433,   0.022477]
    <r_h> [Ang]:                        [ -1.561798,  -0.065960,   0.001499]
    <r_e> [Ang]:                        [ -1.476217,  -0.001575,   0.010708]
    |<r_e - r_h>| [Ang]:                  0.107491
    Hole size [Ang]:                      1.228684
      Cartesian components [Ang]:       [  0.653771,   0.656860,   0.806711]
    Electron size [Ang]:                  2.260016
      Cartesian components [Ang]:       [  1.540858,   1.486738,   0.723216]
    RMS electron-hole separation [Ang]:   2.564016
      Cartesian components [Ang]:       [  1.667495,   1.618871,   1.083001]
    Covariance(r_h, r_e) [Ang^2]:         0.027358
    Correlation coefficient:              0.009852
    Center-of-mass size [Ang]:            1.291516
      Cartesian components [Ang]:       [  0.841145,   0.816565,   0.541951]

  Decomposition into state-averaged NTOs
    H- 0 -> L+ 2:  0.6635 ( 88.0%)
    H- 1 -> L+ 0: -0.1520 (  4.6%)
                   omega =  93.0%
  ----------------------------------------------------------------------------


  Excited state 5 (singlet, A)                                     [converged]
  ----------------------------------------------------------------------------
  Term symbol:  6 (1) A                                     R^2 =  2.82587e-13

  Total energy:                                            -77.9451808327 a.u.
  Excitation energy:                                              10.185232 eV

  Osc. strength:                                                      0.000000
  Trans. dip. moment [a.u.]:           [   0.000459,    0.000579,   -0.000452]
  <i|r^2|0> [a.u.]:                    [   0.093648,   -0.103086,    0.012080]
[...]
    16   -1.511075379656e-03
    17   -1.622028443773e-03
    18   -9.574398157649e-04
    19   -3.876568515820e-03
    20    1.588477874922e-02
    21    9.476217572975e-01
    22   -2.042060684572e-04
    23    1.392685563812e-02
    24    7.836475966768e-04
    25    6.965032974716e-02
    26   -5.212195504733e-02
    27   -1.375706159310e+00
    28    1.005792702475e-01
    29   -8.861041577866e-02
    30   -5.095384590839e-04
    31    3.998471802333e-01
    32   -3.494981314827e-01
    33   -1.909542821733e-03
    34    1.536284112494e-02
    35   -1.447909153418e-03
    36   -1.732813170276e-03
    37   -1.517920198149e-04
    38   -2.759148717461e-03
    39    7.963867755215e-03
    40    8.957296174814e-01
    41    4.011896849045e-04
    42   -1.334676448188e-02
    43   -7.826868763276e-04
    44    1.177579666048e-02
    45    9.573906821635e-01
    46    1.426727383066e-02
    47    4.016013063634e-04
    48    7.040537799603e-04
Sym=X
Ene= 0.232174
Spin=Alpha
Occup=0
     1    2.493465065655e-02
     2    1.286015099137e+00
     3   -1.484222856010e-02
     4   -4.194685117885e-03
     5   -9.313925809059e-04
     6    5.725205836446e-03
     7   -6.814539923708e-03
     8   -1.010391114226e-01
     9   -1.592580498837e-01
    10   -1.551845489509e-01
    11   -1.632795241298e-02
    12   -5.984954069437e-01
    13   -5.470516707779e-01
    14   -5.910139437567e-02
    15    7.774395718416e-04
    16   -1.163874601959e-04
    17   -1.280432787227e-04
    18   -2.321527374616e-04
    19   -5.992539927082e-04
    20   -2.464299440055e-02
    21   -1.131854461869e+00
    22   -2.441505817837e-03
    23   -1.313186077846e-02
    24   -8.681467050944e-04
    25   -2.150949345072e-03
    26    3.862262465956e-03
    27    4.935923494125e-03
    28   -1.497095222149e-01
    29   -1.602423708798e-01
    30   -1.684303471495e-02
    31   -5.333557138698e-01
    32   -5.483307724513e-01
    33   -5.886415686484e-02
    34   -8.417881481265e-05
    35    7.828259073307e-05
    36   -5.623542998642e-05
    37    9.601938994272e-04
    38    2.975716052643e-04
    39    2.430624815575e-02
    40    1.155301694975e+00
    41   -2.362067143122e-03
    42   -1.400873601548e-02
    43   -9.561678261516e-04
    44   -2.567567456264e-02
    45   -1.188005185491e+00
    46   -1.381395885714e-02
    47   -3.772790481122e-03
    48   -8.934482580772e-04
Sym=X
Ene= 0.239964
Spin=Alpha
Occup=0
     1   -1.799559309478e-02
     2   -1.047908076533e+00
     3    1.682934165366e-02
     4    8.207622418531e-03
     5    1.302706318698e-03
     6   -8.645958232575e-02
     7    8.028940275824e-02
     8    1.583839244369e+00
     9    5.055268718472e-02
    10   -6.167433505969e-02
    11   -8.080348370373e-04
    12    1.963473248400e-01
    13   -2.151833037979e-01
    14   -1.610791990782e-03
    15   -2.214141436785e-02
    16    2.669214399630e-03
    17    2.815607415441e-03
    18    7.464764495192e-04
    19    1.338084124967e-02
    20   -1.845307799002e-02
    21   -1.102568466486e+00
    22   -8.304279045068e-03
    23   -1.711748847019e-02
    24   -1.365680731977e-03
    25    8.690423242898e-02
    26   -7.867273238765e-02
    27   -1.623581419834e+00
    28    5.206237978898e-02
    29   -6.562365327338e-02
    30   -1.790148002497e-03
    31    1.898034936788e-01
    32   -2.594646198722e-01
    33   -7.953128957425e-03
    34    2.289557378203e-02
    35   -2.572554194349e-03
    36   -3.107892997569e-03
    37    1.373384167371e-03
    38   -1.313715258508e-02
    39    1.723967286138e-02
    40    1.169100441065e+00
    41   -8.627426441886e-03
    42   -1.864787021651e-02
    43   -1.538391902251e-03
    44    1.484181881555e-02
    45    1.029600330550e+00
    46    1.616906878317e-02
    47    9.316015475980e-03
    48    1.293253550449e-03
Sym=X
Ene= 0.303048
Spin=Alpha
Occup=0
     1   -2.338597504645e-02
     2    1.672880835191e+00
     3   -2.212883227497e-02
     4   -2.944633228658e-04
     5   -1.065111644460e-03
     6   -1.528367297414e-03
     7    2.391451911223e-04
     8    3.022972164979e-02
     9   -1.329473020995e-01
    10   -1.366405126477e-01
    11   -1.412322125564e-02
    12   -1.171177137623e+00
    13   -1.169591382101e+00
    14   -1.234988814530e-01
    15   -7.196640612505e-04
    16   -1.564927649838e-03
    17    1.802533458600e-03
    18   -3.165760223429e-02
    19   -1.127897874483e-03
    20    1.859593375685e-02
    21   -1.673667871798e+00
    22    4.774109845404e-04
    23   -2.279990003003e-02
    24   -1.286160041745e-03
    25    1.273559085169e-03
    26    8.292496759963e-04
    27   -6.498580162234e-02
    28    1.379510880806e-01
    29    1.401330346395e-01
    30    1.497480322385e-02
    31    1.133905377652e+00
    32    1.211071422720e+00
    33    1.255742568908e-01
    34    8.724830339249e-04
    35   -1.614022926249e-03
    36    1.729407027841e-03
    37   -3.122837769399e-02
    38   -2.058107838082e-03
    39    1.832909876160e-02
    40   -1.688395546965e+00
    41   -1.744367137521e-03
    42    2.215523861323e-02
    43    1.257881251721e-03
    44   -1.972276663242e-02
    45    1.729194944184e+00
    46    2.329801203343e-02
    47   -3.329973368281e-05
    48    1.091588688551e-03
Sym=X
Ene= 0.459598
Spin=Alpha
Occup=0
     1    1.242576221960e-01
     2    7.069382415090e-01
     3    1.637168342057e-02
     4    1.181624924613e-02
     5    1.432979655074e-03
     6   -5.952971837311e-02
     7   -2.165676704239e-02
     8    3.565718784037e+00
     9   -9.676900471560e-02
    10    9.771576975193e-02
    11    8.893171795633e-04
    12   -2.402537673716e+00
    13    2.281764118919e+00
    14    2.014060651822e-02
    15   -5.665988993391e-02
    16    3.704599732823e-03
    17    5.001790375882e-03
    18    6.522023027987e-04
    19   -1.514574075585e-02
    20    1.454975812050e-01
    21    6.446544022207e-01
    22   -8.041181541360e-03
    23   -1.717773117419e-02
    24   -1.379029888137e-03
    25    6.005284161304e-02
    26    1.596648757149e-02
    27   -3.553450374069e+00
    28   -1.090371540881e-01
    29    1.036760052144e-01
    30    1.144777481619e-03
    31   -2.386211828424e+00
    32    2.260512707787e+00
    33    2.182843517422e-02
    34    5.144092468223e-02
    35   -3.083599965396e-03
    36   -4.373383742972e-03
    37    4.462970745934e-04
    38    2.050901580517e-02
    39   -1.102700130140e-01
    40   -7.002281789344e-01
    41   -7.711682980037e-03
    42   -1.662348213584e-02
    43   -1.357413423967e-03
    44   -1.016762589799e-01
    45   -7.175469446214e-01
    46    1.503277590462e-02
    47    9.277375101803e-03
    48    1.286962358783e-03
Sym=X
Ene= 0.575650
Spin=Alpha
Occup=0
     1    2.439101575973e-01
     2    1.039708331199e-02
     3   -1.714987426612e-02
     4    2.542549464137e-02
     5    6.583270670804e-04
     6   -1.447453589447e-03
     7   -1.483777927695e-01
     8   -5.769877042032e-01
     9    2.923497247183e-01
    10   -2.941927128544e-01
    11   -3.558637784709e-03
    12   -6.099332305676e-01
    13    6.168007137679e-01
    14    7.221084072095e-03
    15   -9.406376720246e-03
    16    4.039647795255e-03
    17    4.328883401738e-03
    18   -7.792808658277e-03
    19    6.150903697040e-02
    20    2.815499647282e-01
    21   -4.764976112366e-02
    22   -2.483640887448e-02
    23    1.332039164323e-02
    24   -4.082583492386e-04
    25   -7.329822499225e-03
    26   -1.518590980482e-01
    27   -2.844171161634e-01
    28   -2.873565746937e-01
    29    2.781760013582e-01
    30    2.819857376510e-03
    31    8.394774015070e-01
    32   -8.108300180858e-01
    33   -8.348406018515e-03
    34   -9.581063062729e-03
    35    4.184371120487e-03
    36    4.132834019224e-03
    37   -4.329993928048e-03
    38    6.075534581864e-02
    39    2.526402359992e-01
    40    7.455186399898e-02
    41    2.917445529817e-02
    42   -1.602366100013e-02
    43    4.203430555127e-04
    44    2.621057600709e-01
    45    8.245861995468e-02
    46    1.621468102721e-02
    47   -2.550743536638e-02
    48   -7.618828083559e-04
Sym=X
Ene= 0.619356
Spin=Alpha
Occup=0
     1   -5.388054402151e-01
     2    1.869279787205e-01
     3   -6.356408343445e-02
     4    3.744435226180e-02
     5   -8.809180706650e-04
     6   -2.762601460900e-03
     7   -7.033008965254e-03
     8   -7.433695336019e-03
     9   -4.015301091595e-02
    10   -2.816410805614e-02
    11   -3.643841037910e-03
    12    3.361703446940e-01
    13    2.117757298447e-01
    14    2.753760085114e-02
    15    6.538407216330e-03
    16   -7.944941955824e-03
    17    7.677480129083e-03
    18   -1.483435420763e-01
    19   -3.904500443942e-03
    20    4.796249316139e-01
    21   -2.134540679109e-01
    22    4.593511740699e-02
    23   -5.873406114722e-02
    24   -1.244877741383e-03
    25    7.325930428975e-04
    26   -7.385350564012e-03
    27    8.224744368348e-02
    28   -4.130651892322e-02
    29   -3.785045249886e-02
    30   -4.083715669710e-03
    31    3.291602146380e-01
    32    2.926145868028e-01
    33    3.360972097858e-02
    34   -1.891785487531e-03
    35    7.456532217574e-03
    36   -8.911668823660e-03
    37    1.537281828431e-01
    38    3.339498037005e-03
    39   -5.258087440665e-01
    40    2.092530614526e-01
    41    3.979501713122e-02
    42   -5.961416046996e-02
    43   -1.670497546167e-03
    44    5.244698726462e-01
    45   -2.018605494009e-01
    46   -6.331465570187e-02
    47    3.869481277585e-02
    48   -6.298850781733e-04
Sym=X
Ene= 0.689154
Spin=Alpha
Occup=0
     1    4.033200305756e-04
     2   -2.933889105288e-04
     3    1.169360093540e-03
     4    1.221104584093e-03
     5   -2.099117101875e-02
     6    3.789162273370e-05
     7    8.380733832094e-04
     8   -7.391970985072e-04
     9    3.115779690472e-02
    10    3.932161009019e-02
    11   -6.712009013042e-01
    12   -2.799255474590e-02
    13   -3.612310270774e-02
    14    6.140111778370e-01
    15   -1.503044459447e-03
    16    8.239566376323e-02
    17   -7.788081731404e-02
    18   -8.608203667445e-03
    19   -1.089621123673e-03
    20    6.147422079569e-04
    21   -1.001155737998e-03
    22    8.065100669571e-04
    23    8.852666030076e-04
    24   -1.924272330909e-02
    25    4.339228084299e-05
    26    7.620284869065e-04
    27   -2.145436660360e-04
    28    3.215619579276e-02
    29    3.965864833593e-02
    30   -6.696796345089e-01
    31   -2.922124568370e-02
    32   -3.673927971597e-02
    33    6.124790599070e-01
    34    9.929314047729e-04
    35   -8.291653483371e-02
    36    7.865341856006e-02
    37    8.426025948802e-03
    38    1.282794230485e-03
    39    6.909361883407e-04
    40   -6.457601622745e-04
    41    1.112995595771e-03
    42    1.472695976684e-03
    43   -2.105515118773e-02
    44    5.871075701326e-04
    45    2.431308450262e-05
    46    8.308079481377e-04
    47    1.238510810790e-03
    48   -2.106117724202e-02
Sym=X
Ene= 0.706312
Spin=Alpha
Occup=0
     1   -4.667628784540e-01
     2    1.956153285866e-01
     3   -8.216001550703e-02
     4   -4.303343919069e-02
     5   -6.390251885675e-03
     6   -5.031006455413e-02
     7   -3.139806809195e-01
     8    5.765863863010e-01
     9    2.076626080960e-01
    10   -2.038378429804e-01
    11   -3.204095842853e-03
    12   -2.011784671226e-01
    13    1.711060994774e-01
    14    1.938625758393e-03
    15    1.947483042310e-01
    16   -2.048824812421e-02
    17   -2.395114046605e-02
    18    4.354600964895e-03
    19   -8.154195983919e-02
    20   -4.964606675029e-01
    21    2.043140341456e-01
    22    4.169325238025e-02
    23    8.306615299344e-02
    24    6.780581691613e-03
    25   -4.389969567230e-02
    26   -3.240152516731e-01
    27    3.304385427213e-01
    28   -2.151487340254e-01
    29    1.967340437716e-01
    30    5.234086928668e-04
    31    2.149866606828e-02
    32   -4.360818771024e-03
    33    1.658648785467e-03
    34    1.907550458667e-01
    35   -2.014689670973e-02
    36   -2.293129086458e-02
    37   -2.780838487733e-03
    38   -7.116679735406e-02
    39   -4.454049996333e-01
    40    1.000409533089e-01
    41   -3.973657053511e-02
    42   -7.715817477066e-02
    43   -6.516628332098e-03
    44   -4.658890370959e-01
    45    1.332718779083e-01
    46    8.159823905285e-02
    47    4.168270875542e-02
    48    6.309413027038e-03
Sym=X
Ene= 0.784202
Spin=Alpha
Occup=0
     1    5.032439424871e-01
     2   -4.903454504016e-01
     3    1.088014919455e-01
     4    2.352401021271e-02
     5    6.484850015040e-03
     6    8.968081867071e-02
     7   -2.298868729702e-01
     8   -6.650793273691e-01
     9    1.105593969381e-01
    10   -9.920871503811e-02
    11    9.723767980720e-04
    12    3.836934651684e-01
    13   -3.683249435635e-01
    14   -6.775048932402e-03
    15   -1.998631748456e-01
    16    1.724588423687e-02
    17    2.086914541963e-02
    18   -2.136498732082e-03
    19    1.573710945758e-02
    20    5.316464865983e-01
    21   -5.171205609275e-01
    22   -2.147761575270e-02
    23   -1.124905609396e-01
    24   -7.498794780508e-03
    25   -9.281225395252e-02
    26    2.021251738482e-01
    27    7.606718416078e-01
    28    1.127571798830e-01
    29   -9.555085788706e-02
    30   -2.047053765431e-03
    31    3.505268069123e-01
    32   -3.357982596351e-01
    33    1.063688185235e-06
    34    2.104108524439e-01
    35   -1.776857744330e-02
    36   -2.330093080840e-02
    37    8.985661001854e-03
    38   -1.434075735249e-02
    39   -5.643915903992e-01
    40    4.988700407495e-01
    41   -2.161552850027e-02
    42   -1.177804153217e-01
    43   -8.097735851395e-03
    44   -5.348922854011e-01
    45    4.703146719767e-01
    46    1.075933112740e-01
    47    2.922635503687e-02
    48    6.834660457035e-03
Sym=X
Ene= 0.808026
Spin=Alpha
Occup=0
     1    1.066080977776e-03
     2   -2.230312562655e-03
     3    2.065115817335e-03
     4    2.002205533571e-03
     5   -3.360014507284e-02
     6    1.981764489898e-04
     7   -3.877286312407e-04
     8   -4.504425491251e-04
     9    3.599463468703e-02
    10    4.372116480833e-02
    11   -7.626433742471e-01
    12   -5.173819923165e-02
    13   -6.585090730080e-02
    14    1.126685781190e+00
    15    3.789196997989e-04
    16   -6.536804369128e-02
    17    6.203891886863e-02
    18    6.977818726484e-03
    19    8.472926609947e-04
    20    1.056361083461e-03
    21   -5.107740959124e-04
    22    1.769115054653e-03
    23    1.732199791399e-03
    24   -3.490507965293e-02
    25   -2.053039709732e-04
    26    5.038974255092e-04
    27    5.349571583408e-04
    28   -3.601306940052e-02
    29   -4.625062873718e-02
    30    7.637658564373e-01
    31    5.463691630762e-02
    32    6.722005473646e-02
    33   -1.127344425633e+00
    34    1.600836737952e-03
    35   -6.526926770036e-02
    36    6.191512489904e-02
    37    6.506428523357e-03
    38    1.034385199006e-03
    39   -1.117117187956e-03
    40    3.646749639662e-04
    41   -1.499307268791e-03
    42   -2.296556228288e-03
    43    3.429077079655e-02
    44   -1.030401767618e-03
    45    2.173686189812e-03
    46   -1.163520967670e-03
    47   -1.958332022106e-03
    48    3.379361902792e-02
Sym=X
Ene= 0.862042
Spin=Alpha
Occup=0
     1    2.271680610785e-02
     2   -1.097881526164e+00
     3    1.491446613791e-01
     4    5.847583126589e-02
     5    1.047724723560e-02
     6    2.295698930970e-03
     7    6.859531804667e-03
     8    2.106871189814e-03
     9   -4.093198654831e-01
    10   -4.368612340652e-01
    11   -4.401769571551e-02
    12    9.625259318446e-01
    13    1.002715209993e+00
    14    1.021401402000e-01
    15   -7.360333285086e-03
    16    1.150463761100e-02
    17   -1.273289680087e-02
    18    2.298020563250e-01
    19    2.968027502821e-04
    20   -1.126881083279e-02
    21    1.111173971257e+00
    22    5.860140336445e-02
    23    1.497865616248e-01
    24    1.142988129777e-02
    25   -1.026921700710e-03
    26    1.529525085678e-02
    27   -1.385826629583e-02
    28   -3.981298719610e-01
    29   -4.328384578834e-01
    30   -4.531602397532e-02
    31    9.340355002098e-01
    32    1.018138443000e+00
    33    1.064008063034e-01
    34    1.994567305211e-03
    35   -1.163968308718e-02
    36    1.331341486082e-02
    37   -2.347611815145e-01
    38   -6.947177989859e-03
    39   -1.806587378026e-03
    40   -1.094143460940e+00
    41    4.986330136021e-02
    42    1.487830756040e-01
    43    1.123701931542e-02
    44   -4.459307786371e-03
    45    1.080187392755e+00
    46    1.482911760723e-01
    47    5.618432464665e-02
    48    1.034767598071e-02
Sym=X
Ene= 0.935129
Spin=Alpha
Occup=0
     1   -1.036637716427e-01
     2    1.216307389161e+00
     3   -1.716532704606e-01
     4    9.946637730057e-03
     5   -7.491744167306e-03
     6   -1.583386944930e-03
     7   -3.416432588264e-02
     8    6.459591196906e-03
     9    4.510210954174e-01
    10    5.154039616289e-01
    11    5.128827782443e-02
    12   -1.420057322855e+00
    13   -1.589582171882e+00
    14   -1.596285624928e-01
    15    8.163337861140e-04
    16   -4.169864837835e-03
    17    7.118756696906e-03
    18   -1.117630446270e-01
    19    2.052709808613e-02
    20    1.198782354041e-01
    21   -1.321437638553e+00
    22   -1.327527966218e-03
    23   -1.868665580842e-01
    24   -1.085712979935e-02
    25    8.727839377671e-04
    26   -1.142903734393e-02
    27    4.889878059265e-02
    28   -4.944075324023e-01
    29   -4.835471184210e-01
    30   -5.217200590556e-02
    31    1.539735659498e+00
    32    1.487082101588e+00
    33    1.612522250530e-01
    34   -2.079297411097e-03
    35   -6.267067007163e-03
    36    6.975904233132e-03
    37   -1.196511618743e-01
    38   -1.470599066197e-02
    39    1.156082884226e-01
    40   -1.265628792983e+00
    41   -1.542070738537e-02
    42    1.806296081487e-01
    43    1.014277723822e-02
    44   -1.181553250071e-01
    45    1.330856277727e+00
    46    1.835866144192e-01
    47   -2.537522203847e-03
    48    8.494027767123e-03
Sym=X
Ene= 0.970994
Spin=Alpha
Occup=0
     1   -5.887587883307e-02
     2    1.023534470010e+00
     3   -1.027937049466e-01
     4   -9.856660606722e-02
     5   -1.077561337743e-02
     6    2.661914017013e-02
     7    2.885535863038e-01
     8    4.653257145615e-01
     9    5.081018928267e-01
    10   -4.367177965151e-01
    11   -1.158599580695e-03
    12   -1.586774116370e+00
    13    1.306533610733e+00
    14    4.909295520838e-04
    15   -6.160086248696e-02
    16   -1.335477995551e-02
    17   -8.439390598104e-03
    18    8.903200619297e-04
    19   -3.106323558761e-01
    20   -5.836157384092e-02
    21    8.312994126643e-01
    22    9.916576827300e-02
    23    8.027562274911e-02
    24    9.233647451913e-03
    25   -2.538098669842e-02
    26   -1.824982238198e-01
    27   -6.417568031452e-01
    28    4.544212920278e-01
    29   -4.707174886288e-01
    30   -6.856815776700e-03
    31   -1.383717421361e+00
    32    1.484750739870e+00
    33    2.378072584668e-02
    34    5.483221372472e-02
    35    1.226669659955e-02
    36    9.255791004041e-03
    37   -1.470633756343e-02
    38    2.953127555252e-01
    39    5.247815244313e-02
    40   -9.258517737313e-01
    41    9.172438557014e-02
    42    9.158833004951e-02
    43    9.832988837995e-03
    44    6.926386310532e-02
    45   -8.182048125777e-01
    46   -7.568123727910e-02
    47   -9.499831043808e-02
    48   -9.096516634510e-03
[5D]

======= END OF MOLDEN-FORMATTED INPUT FILE =======


        *************************************************************
        *                                                           *
        *  Thank you very much for using Q-Chem.  Have a nice day.  *
        *                                                           *
        *************************************************************


