                  Welcome to Q-Chem
     A Quantum Leap Into The Future Of Chemistry


 Q-Chem 5.4 (devel), Q-Chem, Inc., Pleasanton, CA (2021)

 E. Epifanovsky,  A. T. B. Gilbert,  Xintian Feng,  Joonho Lee,  Yuezhi Mao,  
 N. Mardirossian,  P. Pokhilko,  A. White,  M. Wormit,  M. P. Coons,  
 A. L. Dempwolff,  Zhengting Gan,  D. Hait,  P. R. Horn,  L. D. Jacobson,  
 I. Kaliman,  J. Kussmann,  A. W. Lange,  Ka Un Lao,  D. S. Levine,  Jie Liu,  
 S. C. McKenzie,  A. F. Morrison,  K. Nanda,  F. Plasser,  D. R. Rehn,  
 M. L. Vidal,  Zhi-Qiang You,  Ying Zhu,  B. Alam,  B. Albrecht,  
 A. Aldossary,  E. Alguire,  J. H. Andersen,  D. Barton,  K. Begam,  A. Behn,  
 Y. A. Bernard,  E. J. Berquist,  H. Burton,  A. Carreras,  K. Carter-Fenk,  
 R. Chakraborty,  A. D. Chien,  K. D. Closser,  V. Cofer-Shabica,  
 S. Dasgupta,  Jia Deng,  M. de Wergifosse,  M. Diedenhofen,  Hainam Do,  
 S. Ehlert,  Po-Tung Fang,  S. Fatehi,  Qingguo Feng,  T. Friedhoff,  
 J. Gayvert,  Qinghui Ge,  G. Gidofalvi,  M. Goldey,  J. Gomes,  
 C. Gonzalez-Espinoza,  S. Gulania,  A. Gunina,  M. W. D. Hanson-Heine,  
 P. H. P. Harbach,  A. W. Hauser,  M. F. Herbst,  M. Hernandez Vera,  
 M. Hodecker,  Z. C. Holden,  S. Houck,  Xunkun Huang,  Kerwin Hui,  
 B. C. Huynh,  M. Ivanov,  Hyunjun Ji,  Hanjie Jiang,  B. Kaduk,  S. Kaehler,  
 K. Khistyaev,  Jaehoon Kim,  P. Klunzinger,  Z. Koczor-Benda,  
 Joong Hoon Koh,  D. Kosenkov,  L. Koulias,  T. Kowalczyk,  C. M. Krauter,  
 K. Kue,  A. Kunitsa,  T. Kus,  A. Landau,  K. V. Lawler,  D. Lefrancois,  
 S. Lehtola,  Rain Li,  Yi-Pei Li,  Jiashu Liang,  M. Liebenthal,  
 Hung-Hsuan Lin,  You-Sheng Lin,  Fenglai Liu,  Kuan-Yu Liu,  
 M. Loipersberger,  A. Luenser,  A. Manjanath,  P. Manohar,  E. Mansoor,  
 S. F. Manzer,  Shan-Ping Mao,  A. V. Marenich,  T. Markovich,  S. Mason,  
 S. A. Maurer,  P. F. McLaughlin,  M. F. S. J. Menger,  J.-M. Mewes,  
 S. A. Mewes,  P. Morgante,  J. W. Mullinax,  K. J. Oosterbaan,  G. Paran,  
 Alexander C. Paul,  Suranjan K. Paul,  F. Pavosevic,  Zheng Pei,  S. Prager,  
 E. I. Proynov,  E. Ramos,  B. Rana,  A. E. Rask,  A. Rettig,  R. M. Richard,  
 F. Rob,  E. Rossomme,  T. Scheele,  M. Scheurer,  M. Schneider,  
 N. Sergueev,  S. M. Sharada,  W. Skomorowski,  D. W. Small,  C. J. Stein,  
 Yu-Chuan Su,  E. J. Sundstrom,  Zhen Tao,  J. Thirman,  T. Tsuchimochi,  
 N. M. Tubman,  S. P. Veccham,  O. Vydrov,  J. Wenzel,  J. Witte,  A. Yamada,  
 Kun Yao,  S. Yeganeh,  S. R. Yost,  A. Zech,  Igor Ying Zhang,  Xing Zhang,  
 Yu Zhang,  D. Zuev,  A. Aspuru-Guzik,  A. T. Bell,  N. A. Besley,  
 K. B. Bravaya,  B. R. Brooks,  D. Casanova,  Jeng-Da Chai,  S. Coriani,  
 C. J. Cramer,  A. E. DePrince, III,  R. A. DiStasio Jr.,  A. Dreuw,  
 B. D. Dunietz,  T. R. Furlani,  W. A. Goddard III,  S. Grimme,  
 S. Hammes-Schiffer,  T. Head-Gordon,  W. J. Hehre,  Chao-Ping Hsu,  
 T.-C. Jagau,  Yousung Jung,  A. Klamt,  Jing Kong,  D. S. Lambrecht,  
 WanZhen Liang,  N. J. Mayhall,  C. W. McCurdy,  J. B. Neaton,  
 C. Ochsenfeld,  J. A. Parkhill,  R. Peverati,  V. A. Rassolov,  Yihan Shao,  
 L. V. Slipchenko,  T. Stauch,  R. P. Steele,  J. E. Subotnik,  
 A. J. W. Thom,  A. Tkatchenko,  D. G. Truhlar,  T. Van Voorhis,  
 T. A. Wesolowski,  K. B. Whaley,  H. L. Woodcock III,  P. M. Zimmerman,  
 S. Faraji,  P. M. W. Gill,  M. Head-Gordon,  J. M. Herbert,  A. I. Krylov

 Additional authors for Version 5.4.1: 
 S. Kotaru,  Shaozhi Li,  Xiangyuan Li,  F. Matz,  A. Molle,  Haisheng Ren,  
 Yingli Su,  Hung-Yi Tsai,  C. Utku,  Fang Wang

 Contributors to earlier versions of Q-Chem not listed above: 
 R. D. Adamson,  B. Austin,  R. Baer,  J. Baker,  G. J. O. Beran,  
 K. Brandhorst,  S. T. Brown,  E. F. C. Byrd,  A. K. Chakraborty,  
 G. K. L. Chan,  Chun-Min Chang,  Yunqing Chen,  C.-L. Cheng,  
 Siu Hung Chien,  D. M. Chipman,  D. L. Crittenden,  H. Dachsel,  
 R. J. Doerksen,  A. D. Dutoi,  R. G. Edgar,  J. Fosso-Tande,  
 L. Fusti-Molnar,  D. Ghosh,  A. Ghysels,  A. Golubeva-Zadorozhnaya,  
 J. Gonthier,  M. S. Gordon,  S. R. Gwaltney,  G. Hawkins,  J. E. Herr,  
 A. Heyden,  S. Hirata,  E. G. Hohenstein,  G. Kedziora,  F. J. Keil,  
 C. Kelley,  Jihan Kim,  R. A. King,  R. Z. Khaliullin,  P. P. Korambath,  
 W. Kurlancheek,  A. Laurent,  A. M. Lee,  M. S. Lee,  S. V. Levchenko,  
 Ching Yeh Lin,  D. Liotard,  E. Livshits,  R. C. Lochan,  I. Lotan,  
 L. A. Martinez-Martinez,  P. E. Maslen,  N. Nair,  D. P. O'Neill,  
 D. Neuhauser,  E. Neuscamman,  C. M. Oana,  R. Olivares-Amaya,  R. Olson,  
 T. M. Perrine,  B. Peters,  P. A. Pieniazek,  A. Prociuk,  Y. M. Rhee,  
 J. Ritchie,  M. A. Rohrdanz,  E. Rosta,  N. J. Russ,  H. F. Schaefer III,  
 M. W. Schmidt,  N. E. Schultz,  S. Sharma,  N. Shenvi,  C. D. Sherrill,  
 A. C. Simmonett,  A. Sodt,  T. Stein,  D. Stuck,  K. S. Thanthiriwatte,  
 V. Vanovschi,  L. Vogt,  Tao Wang,  A. Warshel,  M. A. Watson,  
 C. F. Williams,  Q. Wu,  X. Xu,  Jun Yang,  W. Zhang,  Yan Zhao

 Please cite Q-Chem as follows:
 Y. Shao et al., Mol. Phys. 113, 184-215 (2015)
 DOI: 10.1080/00268976.2014.952696

 Q-Chem 5.4.1 for Intel X86 EM64T Linux

 Parts of Q-Chem use Armadillo 9.800.1 (Horizon Scraper).
 http://arma.sourceforge.net/

 Q-Chem begins on Mon Mar 20 18:16:05 2023  

 Host: cpu186.baobab
0

     Scratch files written to /scratch/fum/qchem72050//
 Processing $rem in /home/share/wesolowski/qc5.aug2021.FDE/config/preferences:
 Processing $rem in /home/fum/.qchemrc:

 Checking the input file for inconsistencies... 	...done.

--------------------------------------------------------------
User input:
--------------------------------------------------------------
$comment
generated from CCJob.Templates
$end

$rem
sym_ignore = true
method = adc(2)
ee_states = 10
basis = cc-pVDZ
mem_static = 1024
mem_total = 40000
adc_davidson_maxiter = 900
adc_davidson_conv = 6
adc_print = 3
adc_prop_es = true
adc_prop_es2es = true
adc_prop_tpa = true
molden_format = True
state_analysis = true
print_orbitals = 15
gen_scfman = false
fde_export_density = true
fde_details = 3
$end

$molecule
0 1
H -0.02343037571138571 -0.2495301860510139 0.10509186766350795
C -1.0779313068011827 -0.5243730552972938 -0.002414220403027943
H -1.299246940584361 -1.5906473120583868 -0.11748442085307104
C -2.0447816408012964 0.3938887984027157 0.006558519896957864
H -1.8195529677843845 1.4648720014415892 0.042134041646919515
H -3.1030165952113054 0.11386039524910437 -0.020835185636416335                     
$end
--------------------------------------------------------------
 ----------------------------------------------------------------
             Standard Nuclear Orientation (Angstroms)
    I     Atom           X                Y                Z
 ----------------------------------------------------------------
    1      H      -0.0234303757    -0.2495301861     0.1050918677
    2      C      -1.0779313068    -0.5243730553    -0.0024142204
    3      H      -1.2992469406    -1.5906473121    -0.1174844209
    4      C      -2.0447816408     0.3938887984     0.0065585199
    5      H      -1.8195529678     1.4648720014     0.0421340416
    6      H      -3.1030165952     0.1138603952    -0.0208351856
 ----------------------------------------------------------------
 Nuclear Repulsion Energy =          33.20038256 hartrees
 There are        8 alpha and        8 beta electrons
 Requested basis set is cc-pVDZ
 There are 24 shells and 48 basis functions
 Total memory of 40000 MB is distributed as follows: 
   MEM_STATIC is set to 1024 MB
   QALLOC/CCMAN JOB total memory use is  38976 MB
 Warning: actual memory use might exceed 40000 MB

 Total QAlloc Memory Limit  40000 MB
 Mega-Array Size      1001 MB
 MEM_STATIC part      1024 MB

                       Distance Matrix (Angstroms)
             H (  1)   C (  2)   H (  3)   C (  4)   H (  5)
   C (  2)  1.095020
   H (  3)  1.864361  1.095063
   C (  4)  2.123572  1.333449  2.123580
   H (  5)  2.483786  2.123460  3.103610  1.094988
   H (  6)  3.103508  2.123359  2.483601  1.095001  1.864531

 A cutoff of  1.0D-11 yielded    300 shell pairs
 There are      1220 function pairs (      1329 Cartesian)
 Smallest overlap matrix eigenvalue = 4.81E-03

 Scale SEOQF with 1.000000e-01/1.000000e-01/1.000000e+00

 Standard Electronic Orientation quadrupole field applied
 Nucleus-field energy     =     0.0000000022 hartrees
 Guess from superposition of atomic densities
 Warning:  Energy on first SCF cycle will be non-variational
 SAD guess density has 16.000000 electrons
 A restricted Hartree-Fock SCF calculation will be
 performed using Pulay DIIS extrapolation
 SCF converges when DIIS error is below 1.0E-08
 using 10 threads for integral computing
 -------------------------------------------------------
 OpenMP Integral computing Module                
 Release: version 1.0, May 2013, Q-Chem Inc. Pittsburgh 
 -------------------------------------------------------
 ---------------------------------------
  Cycle       Energy         DIIS Error
 ---------------------------------------
    1     -78.3957448307      9.92E-02
    2     -78.0170128611      7.13E-03
    3     -78.0374692532      1.82E-03
    4     -78.0389459676      5.64E-04
    5     -78.0390636414      5.84E-05
    6     -78.0390655369      9.48E-06
    7     -78.0390656017      2.03E-06
    8     -78.0390656048      2.03E-07
    9     -78.0390656048      3.48E-08
   10     -78.0390656048      6.08E-09 Convergence criterion met
 ---------------------------------------
 SCF time:  CPU 1.92 s  wall 2.66 s
 SCF   energy in the final basis set = -78.03906560
 Total energy in the final basis set = -78.03906560
Exporting Density Matrix to file 'Densmat_SCF.txt'.
Export successful
================================================================================
|                                                                              |
|                                 A D C  M A N                                 |
|                                                                              |
 ------------------------------------------------------------------------------ 
|                                                                              |
| Components:                                                                  |
|                                                                              |
| - libvmm - 1.3-trunk                                                         |
|   Authors:                                                                   |
|   Evgeny Epifanovsky, Ilya Kaliman                                           |
|                                                                              |
| - libtensor - 2.5-trunk                                                      |
|   Authors:                                                                   |
|   Evgeny Epifanovsky, Michael Wormit, Dmitry Zuev, Sam Manzer,               |
|   Ilya Kaliman                                                               |
|                                                                              |
| - libwfa - 1.1-trunk                                                         |
|   Authors:                                                                   |
|   Felix Plasser, Stefanie Mewes (Baeppler), Benjamin Thomitzni,              |
|   Michael Wormit, Feng Chen, Anna I. Krylov, Pavel Pokhilko                  |
|                                                                              |
| - libadc - 1.1-trunk                                                         |
|   Authors:                                                                   |
|   Michael Wormit, Adrian L. Dempwolff, Philipp H. P. Harbach,                |
|   Caroline Krauter, Dirk Rehn, Matthias Schneider, Jan Wenzel                |
|                                                                              |
| - adcman - 2.6-trunk                                                         |
|   Authors:                                                                   |
|   Michael Wormit, Adrian L. Dempwolff, Philipp H. P. Harbach,                |
|   Caroline Krauter, Daniel Lefrancois, Jan-Michael Mewes, Dirk Rehn,         |
|   Matthias Schneider, Jan Wenzel, Andreas Dreuw                              |
|                                                                              |
| Authors of earlier versions of ADCMAN:                                       |
| Andreas Dreuw, Jan Hendrik Starcke, Dirk Rehn, Michael Wormit                |
|                                                                              |
================================================================================

 Created directory /scratch/fum/qchem72050/plots
  Import QC data ...  CPU 0.00 s  wall 0.00 s

 Alpha MOs, Restricted
 -- Occupied --                  
-11.239 -11.237  -1.030  -0.786  -0.635  -0.582  -0.500  -0.374
  1 A     2 A     3 A     4 A     5 A     6 A     7 A     8 A                  
 -- Virtual --                   
  0.167   0.203   0.231   0.236   0.303   0.462   0.580   0.610
  9 A    10 A    11 A    12 A    13 A    14 A    15 A    16 A                  
  0.689   0.704   0.775   0.807   0.859   0.927   0.970   1.006
 17 A    18 A    19 A    20 A    21 A    22 A    23 A    24 A                  
  1.130   1.223   1.237   1.280   1.290   1.594   1.727   1.743
 25 A    26 A    27 A    28 A    29 A    30 A    31 A    32 A                  
  1.809   1.850   1.852   1.902   1.966   1.972   2.224   2.248
 33 A    34 A    35 A    36 A    37 A    38 A    39 A    40 A                  
  2.352   2.422   2.491   2.621   2.680   2.794   3.095   3.364
 41 A    42 A    43 A    44 A    45 A    46 A    47 A    48 A                  

 Beta MOs, Restricted
 -- Occupied --                  
-11.239 -11.237  -1.030  -0.786  -0.635  -0.582  -0.500  -0.374
  1 A     2 A     3 A     4 A     5 A     6 A     7 A     8 A                  
 -- Virtual --                   
  0.167   0.203   0.231   0.236   0.303   0.462   0.580   0.610
  9 A    10 A    11 A    12 A    13 A    14 A    15 A    16 A                  
  0.689   0.704   0.775   0.807   0.859   0.927   0.970   1.006
 17 A    18 A    19 A    20 A    21 A    22 A    23 A    24 A                  
  1.130   1.223   1.237   1.280   1.290   1.594   1.727   1.743
 25 A    26 A    27 A    28 A    29 A    30 A    31 A    32 A                  
  1.809   1.850   1.852   1.902   1.966   1.972   2.224   2.248
 33 A    34 A    35 A    36 A    37 A    38 A    39 A    40 A                  
  2.352   2.422   2.491   2.621   2.680   2.794   3.095   3.364
 41 A    42 A    43 A    44 A    45 A    46 A    47 A    48 A                  
  Import AO data ...  CPU 0.00 s  wall 0.01 s
  Using point group: C1
  Irreducible representations in point group: A
  Molecular orbitals: 
  Occupied MOs:
  Block   0:   1 (  A) A   2 (  A) A   3 (  A) A   4 (  A) A   5 (  A) A
                  -11.24      -11.24       -1.03     -0.7855     -0.6348
               6 (  A) A   7 (  A) A   8 (  A) A
                 -0.5821     -0.4999     -0.3738
  Block   1:   1 (  A) B   2 (  A) B   3 (  A) B   4 (  A) B   5 (  A) B
                  -11.24      -11.24       -1.03     -0.7855     -0.6348
               6 (  A) B   7 (  A) B   8 (  A) B
                 -0.5821     -0.4999     -0.3738
  Virtual MOs:
  Block   0:   9 (  A) A  10 (  A) A  11 (  A) A  12 (  A) A  13 (  A) A
                  0.1674      0.2026      0.2312      0.2363      0.3028
              14 (  A) A  15 (  A) A  16 (  A) A  17 (  A) A  18 (  A) A
                  0.4624      0.5798      0.6095      0.6888      0.7045
              19 (  A) A  20 (  A) A  21 (  A) A  22 (  A) A
                  0.7753      0.8071      0.8585      0.9275
  Block   1:  23 (  A) A  24 (  A) A  25 (  A) A  26 (  A) A  27 (  A) A
                  0.9701       1.006        1.13       1.223       1.237
              28 (  A) A  29 (  A) A  30 (  A) A  31 (  A) A  32 (  A) A
                    1.28        1.29       1.594       1.727       1.743
              33 (  A) A  34 (  A) A  35 (  A) A  36 (  A) A
                   1.809        1.85       1.852       1.902
  Block   2:  37 (  A) A  38 (  A) A  39 (  A) A  40 (  A) A  41 (  A) A
                   1.966       1.972       2.224       2.248       2.352
              42 (  A) A  43 (  A) A  44 (  A) A  45 (  A) A  46 (  A) A
                   2.422       2.491       2.621        2.68       2.794
              47 (  A) A  48 (  A) A
                   3.095       3.364
  Block   3:   9 (  A) B  10 (  A) B  11 (  A) B  12 (  A) B  13 (  A) B
                  0.1674      0.2026      0.2312      0.2363      0.3028
              14 (  A) B  15 (  A) B  16 (  A) B  17 (  A) B  18 (  A) B
                  0.4624      0.5798      0.6095      0.6888      0.7045
              19 (  A) B  20 (  A) B  21 (  A) B  22 (  A) B
                  0.7753      0.8071      0.8585      0.9275
  Block   4:  23 (  A) B  24 (  A) B  25 (  A) B  26 (  A) B  27 (  A) B
                  0.9701       1.006        1.13       1.223       1.237
              28 (  A) B  29 (  A) B  30 (  A) B  31 (  A) B  32 (  A) B
                    1.28        1.29       1.594       1.727       1.743
              33 (  A) B  34 (  A) B  35 (  A) B  36 (  A) B
                   1.809        1.85       1.852       1.902
  Block   5:  37 (  A) B  38 (  A) B  39 (  A) B  40 (  A) B  41 (  A) B
                   1.966       1.972       2.224       2.248       2.352
              42 (  A) B  43 (  A) B  44 (  A) B  45 (  A) B  46 (  A) B
                   2.422       2.491       2.621        2.68       2.794
              47 (  A) B  48 (  A) B
                   3.095       3.364
  Import MO data ...  CPU 0.24 s  wall 0.06 s
  Import HF data ...  CPU 0.57 s  wall 0.15 s
  Import 2e integrals ...  CPU 1.11 s  wall 0.21 s

--------------------------------------------------------------------------------
                                   HF Summary                                   
--------------------------------------------------------------------------------
  Energy:                                                  -78.0390656048 a.u.
  Dip. moment [a.u.]:                  [   0.000019,   -0.000028,    0.000174]
  Total dipole [Debye]:                                               0.000451
  <r^2> [a.u.]:                        [ 175.830319,   35.302779,   11.699369]
  Total <r^2> [a.u.]:                                               222.832467
--------------------------------------------------------------------------------
  HF properties ...  CPU 0.03 s  wall 0.02 s
  MP(1) calculation ...  CPU 0.01 s  wall 0.01 s
  N^6 prerequesite intermediates ...  CPU 0.84 s  wall 0.13 s
  Difference density matrix of state mp2_gs printed to ASCII file 'State_mp2_gs_Difference.txt'
Exporting MP density matrix to file 'Densmat_MP.txt'.
Export successful
  Total density matrix of state mp2_gs printed to ASCII file 'State_mp2_gs_Total.txt'
Exporting MP density matrix to file 'Densmat_MP.txt'.
Export successful

--------------------------------------------------------------------------------
                                 MP(2) Summary                                  
--------------------------------------------------------------------------------
  MP energy contribution:                                   -0.2805711572 a.u.
  Total energy:                                            -78.3196367620 a.u.
  Dip. moment [a.u.]:                  [   0.000014,   -0.000028,    0.000171]
  Total dipole [Debye]:                                               0.000443
  <r^2> [a.u.]:                        [ 175.870016,   35.338083,   11.526957]
  Total <r^2> [a.u.]:                                               222.735055

  Density matrix analysis:
  ------------------------
  NOs
    Occupation of frontier NOs:
       0.0455   1.9380
    Number of electrons: 16.000000
    Number of unpaired electrons: n_u =  0.40760, n_u,nl =  0.04588
    NO participation ratio (PR_NO): 13.894698
  
  
  Mulliken Population Analysis
  Atom      Charge (e)              h+              e-           Del q
  --------------------------------------------------------------------
   1 H        0.055312        0.013896       -0.011318        0.002578
   2 C       -0.110691        0.094717       -0.099875       -0.005158
   3 H        0.055320        0.013895       -0.011318        0.002577
   4 C       -0.110582        0.094718       -0.099868       -0.005150
   5 H        0.055322        0.013894       -0.011318        0.002576
   6 H        0.055319        0.013894       -0.011318        0.002577
  --------------------------------------------------------------------
  Sum:        0.000000        0.245014       -0.245014       -0.000000
  
  Multipole moment analysis of the density matrix
    Molecular charge:                      0.000000
    Number of electrons:                   16.000000
      Center of electronic charge [Ang]: [ -1.561346,  -0.065271,   0.002105]
    Total nuclear charge:                  16.000000
      Center of nuclear charge [Ang]:    [ -1.561345,  -0.065272,   0.002111]
    Dipole moment [D]:                     0.000443
      Cartesian components [D]:          [  0.000035,  -0.000072,   0.000436]
    RMS size of the density [Ang]:         1.206729
      Cartesian components [Ang]:        [  0.800149,   0.783721,   0.449152]
  
  Exciton analysis of the difference density matrix
    <r_h> [Ang]:                  [ -1.561346,  -0.065279,   0.002077]
    <r_e> [Ang]:                  [ -1.561334,  -0.065277,   0.002082]
    |<r_e - r_h>| [Ang]:            0.000013
    Hole size [Ang]:                1.402043
      Cartesian components [Ang]: [  0.853287,   0.840524,   0.728797]
    Electron size [Ang]:            1.361775
      Cartesian components [Ang]: [  0.879492,   0.864193,   0.578009]
--------------------------------------------------------------------------------
  MP(2) calculation ...  CPU 0.28 s  wall 0.22 s
  Start ADC(2)-s ...  CPU 0.02 s  wall 0.01 s
  ADC(2) intermediates ...  CPU 0.04 s  wall 0.01 s
  Starting Davidson for singlet states of irrep A ... 
--------------------------------------------------------------------------------
   It NVec Conv  Avg. Norm  Max. Norm  Conv. states           Remark
--------------------------------------------------------------------------------
        10    0  1.329e-01  4.689e-01  0.4110 n n n n n n n n Guess.
    1   20    0  2.324e-02  1.125e-01  0.3201 n n n n n n n n 
    2   30    0  5.964e-03  2.460e-02  0.3162 n n n n n n n n 
    3   40    0  1.943e-03  1.049e-02  0.3159 n n n n n n n n 
    4   50    0  5.357e-04  3.462e-03  0.3159 n n n n n n n n 
    5   20    0  2.802e-04  1.662e-03  0.3159 n n n n n n n n Subspace collapsed.
    6   30    0  1.271e-04  7.808e-04  0.3159 n n n n n n n n 
    7   40    0  6.082e-05  3.832e-04  0.3159 n n n n n n n n 
    8   50    0  4.258e-05  3.375e-04  0.3159 n n n n n n n n 
    9   20    0  3.507e-05  3.212e-04  0.3159 n n n n n n n n Subspace collapsed.
   10   30    0  2.255e-05  2.095e-04  0.3159 n n n n n n n n 
   11   40    4  1.708e-05  1.644e-04  0.3159 y y y y n n n n 
   12   50    4  4.539e-06  3.817e-05  0.3159 y y y y n n n n 
   13   20    5  2.236e-06  1.879e-05  0.3159 y y y y n y n n Subspace collapsed.
   14   30    6  2.005e-06  1.792e-05  0.3159 y y y y y y n n 
   15   40    6  1.687e-06  1.549e-05  0.3159 y y y y y y n n 
   16   50    6  8.839e-07  6.758e-06  0.3159 y y y y y y n n 
   17   20    7  4.988e-07  3.736e-06  0.3159 y y y y y y n y Subspace collapsed.
   18   30    7  4.562e-07  3.490e-06  0.3159 y y y y y y n y 
   19   40    7  3.426e-07  2.564e-06  0.3159 y y y y y y n y 
   20   50    7  3.554e-07  3.072e-06  0.3159 y y y y y y n y 
   21   20    9  1.373e-07  1.189e-06  0.3159 y y y y y y y y Subspace collapsed.
   22   30    9  1.705e-07  1.546e-06  0.3159 y y y y y y y y 
   23   32    9  1.688e-07  1.536e-06  0.3159 y y y y y y y y 
   24   32    9  1.688e-07  1.536e-06  0.3159 y y y y y y y y 
   25   42    9  1.541e-07  1.428e-06  0.3159 y y y y y y y y 
   26   49    9  2.057e-07  1.981e-06  0.3159 y y y y y y y y 
   27   50    9  1.620e-07  1.574e-06  0.3159 y y y y y y y y 
   28   16   10  7.466e-08  7.237e-07  0.3159 y y y y y y y y Converged.
--------------------------------------------------------------------------------
  Davidson Summary: 
 ------------------------------------------------------------
  State  0: excitation energy =   0.3159 a.u.   (converged)
  State  1: excitation energy =   0.3319 a.u.   (converged)
  State  2: excitation energy =   0.3351 a.u.   (converged)
  State  3: excitation energy =   0.3581 a.u.   (converged)
  State  4: excitation energy =   0.3725 a.u.   (converged)
  State  5: excitation energy =   0.3859 a.u.   (converged)
  State  6: excitation energy =   0.4207 a.u.   (converged)
  State  7: excitation energy =   0.4428 a.u.   (converged)
  State  8: excitation energy =   0.4528 a.u.   (converged)
  State  9: excitation energy =   0.4590 a.u.   (converged)
 ------------------------------------------------------------

  Singlet states of irrep A ...  CPU 197.61 s  wall 63.74 s
  TDMs ...  CPU 2.45 s  wall 0.94 s
  SDMs ...  CPU 4.26 s  wall 1.44 s
  Starting TPA DIIS iterations ... 
------------------------------------ 
   It     Res. Norm  Remark
------------------------------------
                       Guess.
    1     4.322e+00  
    2     5.701e+00  
    3     1.062e+00  
    4     2.596e-01  
    5     6.454e-02  
    6     2.846e-02  
    7     8.253e-03  
    8     2.032e-03  
    9     6.252e-04  
   10     3.539e-04  
   11     9.412e-05  
   12     3.686e-05  
   13     9.921e-06  
   14     2.605e-06  
   15     1.010e-06  
   16     3.602e-07  Converged.
   ... Converged in 16 steps (norm: 3.60213e-07)
------------------------------------
  Starting TPA DIIS iterations ... 
------------------------------------ 
   It     Res. Norm  Remark
------------------------------------
                       Guess.
    1     4.116e+00  
    2     5.419e+00  
    3     1.014e+00  
    4     2.574e-01  
    5     6.423e-02  
    6     2.833e-02  
    7     8.087e-03  
    8     1.987e-03  
    9     6.120e-04  
   10     3.375e-04  
   11     8.789e-05  
   12     3.588e-05  
   13     9.427e-06  
   14     2.457e-06  
   15     1.009e-06  
   16     3.697e-07  Converged.
   ... Converged in 16 steps (norm: 3.69668e-07)
------------------------------------
  Starting TPA DIIS iterations ... 
------------------------------------ 
   It     Res. Norm  Remark
------------------------------------
                       Guess.
    1     6.792e-01  
    2     4.731e-01  
    3     1.650e-01  
    4     6.113e-02  
    5     1.824e-02  
    6     6.478e-03  
    7     1.084e-03  
    8     4.511e-04  
    9     1.300e-04  
   10     3.137e-05  
   11     7.315e-06  
   12     2.742e-06  
   13     1.596e-06  
   14     4.695e-07  Converged.
   ... Converged in 14 steps (norm: 4.69513e-07)
------------------------------------
  Starting TPA DIIS iterations ... 
------------------------------------ 
   It     Res. Norm  Remark
------------------------------------
                       Guess.
    1     4.713e+00  
    2     6.403e+00  
    3     1.173e+00  
    4     3.005e-01  
    5     7.614e-02  
    6     3.408e-02  
    7     9.832e-03  
    8     2.496e-03  
    9     7.956e-04  
   10     4.574e-04  
   11     1.272e-04  
   12     4.832e-05  
   13     1.320e-05  
   14     3.549e-06  
   15     1.337e-06  
   16     4.747e-07  Converged.
   ... Converged in 16 steps (norm: 4.74672e-07)
------------------------------------
  Starting TPA DIIS iterations ... 
------------------------------------ 
   It     Res. Norm  Remark
------------------------------------
                       Guess.
    1     4.487e+00  
    2     6.086e+00  
    3     1.120e+00  
    4     2.976e-01  
    5     7.578e-02  
    6     3.394e-02  
    7     9.633e-03  
    8     2.437e-03  
    9     7.746e-04  
   10     4.362e-04  
   11     1.191e-04  
   12     4.723e-05  
   13     1.253e-05  
   14     3.336e-06  
   15     1.339e-06  
   16     4.850e-07  Converged.
   ... Converged in 16 steps (norm: 4.84996e-07)
------------------------------------
  Starting TPA DIIS iterations ... 
------------------------------------ 
   It     Res. Norm  Remark
------------------------------------
                       Guess.
    1     6.956e-01  
    2     4.964e-01  
    3     1.781e-01  
    4     7.251e-02  
    5     2.018e-02  
    6     7.307e-03  
    7     1.281e-03  
    8     5.664e-04  
    9     1.684e-04  
   10     3.860e-05  
   11     9.007e-06  
   12     3.499e-06  
   13     2.207e-06  
   14     6.082e-07  Converged.
   ... Converged in 14 steps (norm: 6.08151e-07)
------------------------------------
  Starting TPA DIIS iterations ... 
------------------------------------ 
   It     Res. Norm  Remark
------------------------------------
                       Guess.
    1     4.798e+00  
    2     6.558e+00  
    3     1.197e+00  
    4     3.097e-01  
    5     7.875e-02  
    6     3.535e-02  
    7     1.019e-02  
    8     2.603e-03  
    9     8.364e-04  
   10     4.818e-04  
   11     1.352e-04  
   12     5.101e-05  
   13     1.397e-05  
   14     3.774e-06  
   15     1.416e-06  
   16     5.023e-07  Converged.
   ... Converged in 16 steps (norm: 5.02338e-07)
------------------------------------
  Starting TPA DIIS iterations ... 
------------------------------------ 
   It     Res. Norm  Remark
------------------------------------
                       Guess.
    1     4.568e+00  
    2     6.233e+00  
    3     1.143e+00  
    4     3.066e-01  
    5     7.838e-02  
    6     3.521e-02  
    7     9.981e-03  
    8     2.541e-03  
    9     8.134e-04  
   10     4.595e-04  
   11     1.266e-04  
   12     4.990e-05  
   13     1.326e-05  
   14     3.547e-06  
   15     1.418e-06  
   16     5.128e-07  Converged.
   ... Converged in 16 steps (norm: 5.12764e-07)
------------------------------------
  Starting TPA DIIS iterations ... 
------------------------------------ 
   It     Res. Norm  Remark
------------------------------------
                       Guess.
    1     6.990e-01  
    2     5.013e-01  
    3     1.809e-01  
    4     7.511e-02  
    5     2.060e-02  
    6     7.492e-03  
    7     1.326e-03  
    8     5.935e-04  
    9     1.774e-04  
   10     4.004e-05  
   11     9.398e-06  
   12     3.679e-06  
   13     2.358e-06  
   14     6.410e-07  Converged.
   ... Converged in 14 steps (norm: 6.40994e-07)
------------------------------------
  Starting TPA DIIS iterations ... 
------------------------------------ 
   It     Res. Norm  Remark
------------------------------------
                       Guess.
    1     5.491e+00  
    2     7.852e+00  
    3     1.393e+00  
    4     3.889e-01  
    5     1.012e-01  
    6     4.646e-02  
    7     1.326e-02  
    8     3.566e-03  
    9     1.223e-03  
   10     7.089e-04  
   11     2.109e-04  
   12     7.571e-05  
   13     2.082e-05  
   14     5.826e-06  
   15     2.182e-06  
   16     7.752e-07  Converged.
   ... Converged in 16 steps (norm: 7.75157e-07)
------------------------------------
  Starting TPA DIIS iterations ... 
------------------------------------ 
   It     Res. Norm  Remark
------------------------------------
                       Guess.
    1     5.225e+00  
    2     7.462e+00  
    3     1.329e+00  
    4     3.842e-01  
    5     1.008e-01  
    6     4.631e-02  
    7     1.299e-02  
    8     3.471e-03  
    9     1.180e-03  
   10     6.762e-04  
   11     1.986e-04  
   12     7.453e-05  
   13     1.970e-05  
   14     5.539e-06  
   15     2.185e-06  
   16     7.849e-07  Converged.
   ... Converged in 16 steps (norm: 7.84928e-07)
------------------------------------
  Starting TPA DIIS iterations ... 
------------------------------------ 
   It     Res. Norm  Remark
------------------------------------
                       Guess.
    1     7.242e-01  
    2     5.394e-01  
    3     2.032e-01  
    4     9.804e-02  
    5     2.399e-02  
    6     9.091e-03  
    7     1.729e-03  
    8     8.361e-04  
    9     2.564e-04  
   10     4.966e-05  
   11     1.292e-05  
   12     5.361e-06  
   13     3.829e-06  
   14     9.459e-07  Converged.
   ... Converged in 14 steps (norm: 9.45857e-07)
------------------------------------
  Starting TPA DIIS iterations ... 
------------------------------------ 
   It     Res. Norm  Remark
------------------------------------
                       Guess.
    1     6.012e+00  
    2     8.857e+00  
    3     1.540e+00  
    4     4.529e-01  
    5     1.194e-01  
    6     5.558e-02  
    7     1.575e-02  
    8     4.389e-03  
    9     1.579e-03  
   10     9.114e-04  
   11     2.800e-04  
   12     9.755e-05  
   13     2.589e-05  
   14     7.597e-06  
   15     2.906e-06  
   16     1.051e-06  
   17     3.510e-07  Converged.
   ... Converged in 17 steps (norm: 3.5098e-07)
------------------------------------
  Starting TPA DIIS iterations ... 
------------------------------------ 
   It     Res. Norm  Remark
------------------------------------
                       Guess.
    1     5.720e+00  
    2     8.416e+00  
    3     1.468e+00  
    4     4.468e-01  
    5     1.189e-01  
    6     5.544e-02  
    7     1.543e-02  
    8     4.265e-03  
    9     1.518e-03  
   10     8.698e-04  
   11     2.648e-04  
   12     9.630e-05  
   13     2.450e-05  
   14     7.351e-06  
   15     2.902e-06  
   16     1.056e-06  
   17     3.413e-07  Converged.
   ... Converged in 17 steps (norm: 3.41337e-07)
------------------------------------
  Starting TPA DIIS iterations ... 
------------------------------------ 
   It     Res. Norm  Remark
------------------------------------
                       Guess.
    1     7.409e-01  
    2     5.661e-01  
    3     2.194e-01  
    4     1.171e-01  
    5     2.658e-02  
    6     1.038e-02  
    7     2.072e-03  
    8     1.033e-03  
    9     3.187e-04  
   10     5.496e-05  
   11     1.598e-05  
   12     6.887e-06  
   13     5.218e-06  
   14     1.218e-06  
   15     6.085e-07  Converged.
   ... Converged in 15 steps (norm: 6.0853e-07)
------------------------------------
  Starting TPA DIIS iterations ... 
------------------------------------ 
   It     Res. Norm  Remark
------------------------------------
                       Guess.
    1     6.573e+00  
    2     9.971e+00  
    3     1.696e+00  
    4     5.259e-01  
    5     1.401e-01  
    6     6.611e-02  
    7     1.860e-02  
    8     5.372e-03  
    9     2.030e-03  
   10     1.161e-03  
   11     3.663e-04  
   12     1.246e-04  
   13     3.008e-05  
   14     9.863e-06  
   15     3.801e-06  
   16     1.429e-06  
   17     4.926e-07  Converged.
   ... Converged in 17 steps (norm: 4.92645e-07)
------------------------------------
  Starting TPA DIIS iterations ... 
------------------------------------ 
   It     Res. Norm  Remark
------------------------------------
                       Guess.
    1     6.252e+00  
    2     9.473e+00  
    3     1.616e+00  
    4     5.180e-01  
    5     1.395e-01  
    6     6.597e-02  
    7     1.821e-02  
    8     5.212e-03  
    9     1.944e-03  
   10     1.108e-03  
   11     3.479e-04  
   12     1.231e-04  
   13     2.869e-05  
   14     9.700e-06  
   15     3.796e-06  
   16     1.422e-06  
   17     4.729e-07  Converged.
   ... Converged in 17 steps (norm: 4.72939e-07)
------------------------------------
  Starting TPA DIIS iterations ... 
------------------------------------ 
   It     Res. Norm  Remark
------------------------------------
                       Guess.
    1     7.572e-01  
    2     5.933e-01  
    3     2.363e-01  
    4     1.390e-01  
    5     2.945e-02  
    6     1.186e-02  
    7     2.479e-03  
    8     1.244e-03  
    9     3.856e-04  
   10     5.998e-05  
   11     1.968e-05  
   12     8.797e-06  
   13     6.981e-06  
   14     1.555e-06  
   15     8.461e-07  Converged.
   ... Converged in 15 steps (norm: 8.46108e-07)
------------------------------------
  Starting TPA DIIS iterations ... 
------------------------------------ 
   It     Res. Norm  Remark
------------------------------------
                       Guess.
    1     8.504e+00  
    2     1.401e+01  
    3     2.226e+00  
    4     8.032e-01  
    5     2.192e-01  
    6     1.073e-01  
    7     2.955e-02  
    8     9.470e-03  
    9     4.111e-03  
   10     2.259e-03  
   11     7.547e-04  
   12     2.499e-04  
   13     5.731e-05  
   14     2.318e-05  
   15     9.795e-06  
   16     3.484e-06  
   17     2.039e-06  
   18     5.352e-07  Converged.
   ... Converged in 18 steps (norm: 5.35178e-07)
------------------------------------
  Starting TPA DIIS iterations ... 
------------------------------------ 
   It     Res. Norm  Remark
------------------------------------
                       Guess.
    1     8.084e+00  
    2     1.331e+01  
    3     2.120e+00  
    4     7.879e-01  
    5     2.183e-01  
    6     1.072e-01  
    7     2.890e-02  
    8     9.152e-03  
    9     3.914e-03  
   10     2.160e-03  
   11     7.253e-04  
   12     2.454e-04  
   13     5.471e-05  
   14     2.258e-05  
   15     9.225e-06  
   16     3.270e-06  
   17     1.820e-06  
   18     4.414e-07  Converged.
   ... Converged in 18 steps (norm: 4.41391e-07)
------------------------------------
  Starting TPA DIIS iterations ... 
------------------------------------ 
   It     Res. Norm  Remark
------------------------------------
                       Guess.
    1     8.034e-01  
    2     6.777e-01  
    3     2.912e-01  
    4     2.217e-01  
    5     4.000e-02  
    6     1.744e-02  
    7     4.142e-03  
    8     1.848e-03  
    9     6.024e-04  
   10     8.096e-05  
   11     3.544e-05  
   12     1.755e-05  
   13     1.499e-05  
   14     3.101e-06  
   15     2.142e-06  
   16     8.417e-07  Converged.
   ... Converged in 16 steps (norm: 8.41721e-07)
------------------------------------
  Starting TPA DIIS iterations ... 
------------------------------------ 
   It     Res. Norm  Remark
------------------------------------
                       Guess.
    1     1.025e+01  
    2     1.792e+01  
    3     2.694e+00  
    4     1.081e+00  
    5     2.996e-01  
    6     1.504e-01  
    7     4.086e-02  
    8     1.406e-02  
    9     6.678e-03  
   10     3.561e-03  
   11     1.232e-03  
   12     4.041e-04  
   13     1.318e-04  
   14     4.120e-05  
   15     1.893e-05  
   16     8.137e-06  
   17     2.513e-06  
   18     7.184e-07  Converged.
   ... Converged in 18 steps (norm: 7.18415e-07)
------------------------------------
  Starting TPA DIIS iterations ... 
------------------------------------ 
   It     Res. Norm  Remark
------------------------------------
                       Guess.
    1     9.741e+00  
    2     1.702e+01  
    3     2.564e+00  
    4     1.057e+00  
    5     2.984e-01  
    6     1.504e-01  
    7     3.991e-02  
    8     1.356e-02  
    9     6.352e-03  
   10     3.409e-03  
   11     1.192e-03  
   12     3.965e-04  
   13     1.263e-04  
   14     4.026e-05  
   15     1.788e-05  
   16     7.550e-06  
   17     2.451e-06  
   18     6.912e-07  Converged.
   ... Converged in 18 steps (norm: 6.9119e-07)
------------------------------------
  Starting TPA DIIS iterations ... 
------------------------------------ 
   It     Res. Norm  Remark
------------------------------------
                       Guess.
    1     8.361e-01  
    2     7.452e-01  
    3     3.373e-01  
    4     2.986e-01  
    5     5.025e-02  
    6     2.283e-02  
    7     5.909e-03  
    8     2.170e-03  
    9     7.824e-04  
   10     1.077e-04  
   11     5.343e-05  
   12     2.838e-05  
   13     2.460e-05  
   14     5.105e-06  
   15     4.093e-06  
   16     1.641e-06  
   17     1.026e-06  
   18     3.015e-07  Converged.
   ... Converged in 18 steps (norm: 3.01483e-07)
------------------------------------
  Starting TPA DIIS iterations ... 
------------------------------------ 
   It     Res. Norm  Remark
------------------------------------
                       Guess.
    1     1.124e+01  
    2     2.024e+01  
    3     2.955e+00  
    4     1.248e+00  
    5     3.485e-01  
    6     1.771e-01  
    7     4.783e-02  
    8     1.702e-02  
    9     8.407e-03  
   10     4.427e-03  
   11     1.558e-03  
   12     5.052e-04  
   13     1.805e-04  
   14     5.495e-05  
   15     2.442e-05  
   16     1.062e-05  
   17     2.430e-06  
   18     8.543e-07  Converged.
   ... Converged in 18 steps (norm: 8.54286e-07)
------------------------------------
  Starting TPA DIIS iterations ... 
------------------------------------ 
   It     Res. Norm  Remark
------------------------------------
                       Guess.
    1     1.068e+01  
    2     1.922e+01  
    3     2.812e+00  
    4     1.219e+00  
    5     3.472e-01  
    6     1.771e-01  
    7     4.670e-02  
    8     1.640e-02  
    9     7.999e-03  
   10     4.240e-03  
   11     1.511e-03  
   12     4.972e-04  
   13     1.748e-04  
   14     5.356e-05  
   15     2.316e-05  
   16     1.006e-05  
   17     2.335e-06  
   18     8.374e-07  Converged.
   ... Converged in 18 steps (norm: 8.37385e-07)
------------------------------------
  Starting TPA DIIS iterations ... 
------------------------------------ 
   It     Res. Norm  Remark
------------------------------------
                       Guess.
    1     8.522e-01  
    2     7.809e-01  
    3     3.623e-01  
    4     3.402e-01  
    5     5.629e-02  
    6     2.590e-02  
    7     6.987e-03  
    8     2.281e-03  
    9     8.808e-04  
   10     1.252e-04  
   11     6.514e-05  
   12     3.576e-05  
   13     3.102e-05  
   14     6.547e-06  
   15     5.589e-06  
   16     2.229e-06  
   17     1.377e-06  
   18     4.020e-07  Converged.
   ... Converged in 18 steps (norm: 4.01969e-07)
------------------------------------
  Starting TPA DIIS iterations ... 
------------------------------------ 
   It     Res. Norm  Remark
------------------------------------
                       Guess.
    1     1.193e+01  
    2     2.189e+01  
    3     3.134e+00  
    4     1.367e+00  
    5     3.836e-01  
    6     1.965e-01  
    7     5.289e-02  
    8     1.920e-02  
    9     9.713e-03  
   10     5.077e-03  
   11     1.806e-03  
   12     5.798e-04  
   13     2.152e-04  
   14     6.620e-05  
   15     2.847e-05  
   16     1.209e-05  
   17     3.031e-06  
   18     1.427e-06  
   19     1.492e-06  
   20     5.347e-07  Converged.
   ... Converged in 20 steps (norm: 5.34739e-07)
------------------------------------
  Starting TPA DIIS iterations ... 
------------------------------------ 
   It     Res. Norm  Remark
------------------------------------
                       Guess.
    1     1.134e+01  
    2     2.079e+01  
    3     2.982e+00  
    4     1.333e+00  
    5     3.822e-01  
    6     1.965e-01  
    7     5.161e-02  
    8     1.850e-02  
    9     9.245e-03  
   10     4.865e-03  
   11     1.756e-03  
   12     5.725e-04  
   13     2.098e-04  
   14     6.439e-05  
   15     2.707e-05  
   16     1.161e-05  
   17     2.778e-06  
   18     1.190e-06  
   19     1.265e-06  
   20     4.204e-07  Converged.
   ... Converged in 20 steps (norm: 4.20419e-07)
------------------------------------
  Starting TPA DIIS iterations ... 
------------------------------------ 
   It     Res. Norm  Remark
------------------------------------
                       Guess.
    1     8.625e-01  
    2     8.047e-01  
    3     3.791e-01  
    4     3.675e-01  
    5     6.055e-02  
    6     2.798e-02  
    7     7.755e-03  
    8     2.339e-03  
    9     9.481e-04  
   10     1.381e-04  
   11     7.388e-05  
   12     4.140e-05  
   13     3.587e-05  
   14     7.691e-06  
   15     6.809e-06  
   16     2.691e-06  
   17     1.651e-06  
   18     4.791e-07  Converged.
   ... Converged in 18 steps (norm: 4.79117e-07)
------------------------------------
  Two-photon absorbption ...  CPU 184.79 s  wall 49.53 s
  Transition density matrix of state singlet_A_1 printed to ASCII file 'State_singlet_A_1_Transition.txt'
  Transition density matrix of state singlet_A_2 printed to ASCII file 'State_singlet_A_2_Transition.txt'
  Transition density matrix of state singlet_A_3 printed to ASCII file 'State_singlet_A_3_Transition.txt'
  Transition density matrix of state singlet_A_4 printed to ASCII file 'State_singlet_A_4_Transition.txt'
  Transition density matrix of state singlet_A_5 printed to ASCII file 'State_singlet_A_5_Transition.txt'
  Transition density matrix of state singlet_A_6 printed to ASCII file 'State_singlet_A_6_Transition.txt'
  Transition density matrix of state singlet_A_7 printed to ASCII file 'State_singlet_A_7_Transition.txt'
  Transition density matrix of state singlet_A_8 printed to ASCII file 'State_singlet_A_8_Transition.txt'
  Transition density matrix of state singlet_A_9 printed to ASCII file 'State_singlet_A_9_Transition.txt'
  Transition density matrix of state singlet_A_10 printed to ASCII file 'State_singlet_A_10_Transition.txt'
  Transition properties ...  CPU 0.35 s  wall 0.60 s
  Difference density matrix of state singlet_A_1 printed to ASCII file 'State_singlet_A_1_Difference.txt'
  Total density matrix of state singlet_A_1 printed to ASCII file 'State_singlet_A_1_Total.txt'
  Difference density matrix of state singlet_A_2 printed to ASCII file 'State_singlet_A_2_Difference.txt'
  Total density matrix of state singlet_A_2 printed to ASCII file 'State_singlet_A_2_Total.txt'
  Difference density matrix of state singlet_A_3 printed to ASCII file 'State_singlet_A_3_Difference.txt'
  Total density matrix of state singlet_A_3 printed to ASCII file 'State_singlet_A_3_Total.txt'
  Difference density matrix of state singlet_A_4 printed to ASCII file 'State_singlet_A_4_Difference.txt'
  Total density matrix of state singlet_A_4 printed to ASCII file 'State_singlet_A_4_Total.txt'
  Difference density matrix of state singlet_A_5 printed to ASCII file 'State_singlet_A_5_Difference.txt'
  Total density matrix of state singlet_A_5 printed to ASCII file 'State_singlet_A_5_Total.txt'
  Difference density matrix of state singlet_A_6 printed to ASCII file 'State_singlet_A_6_Difference.txt'
  Total density matrix of state singlet_A_6 printed to ASCII file 'State_singlet_A_6_Total.txt'
  Difference density matrix of state singlet_A_7 printed to ASCII file 'State_singlet_A_7_Difference.txt'
  Total density matrix of state singlet_A_7 printed to ASCII file 'State_singlet_A_7_Total.txt'
  Difference density matrix of state singlet_A_8 printed to ASCII file 'State_singlet_A_8_Difference.txt'
  Total density matrix of state singlet_A_8 printed to ASCII file 'State_singlet_A_8_Total.txt'
  Difference density matrix of state singlet_A_9 printed to ASCII file 'State_singlet_A_9_Difference.txt'
  Total density matrix of state singlet_A_9 printed to ASCII file 'State_singlet_A_9_Total.txt'
  Difference density matrix of state singlet_A_10 printed to ASCII file 'State_singlet_A_10_Difference.txt'
  Total density matrix of state singlet_A_10 printed to ASCII file 'State_singlet_A_10_Total.txt'
  Properties ...  CPU 0.64 s  wall 1.12 s
  ISR TDMS ...  CPU 27.90 s  wall 9.09 s
  ISR transition properties ...  CPU 0.49 s  wall 0.23 s
  Sum-over-states TPA ...  CPU 0.00 s  wall 0.00 s

--------------------------------------------------------------------------------
                   State-averaged natural transition orbitals
--------------------------------------------------------------------------------
--------------------------------------------------------------------------------
  SA-NTO decomposition ...  CPU 0.01 s  wall 0.04 s

--------------------------------------------------------------------------------
                             Excited State Summary
--------------------------------------------------------------------------------
--------------------------------------------------------------------------------

  Excited state 1 (singlet, A)                                     [converged]
  ----------------------------------------------------------------------------
  Term symbol:  2 (1) A                                     R^2 =  2.55595e-13

  Total energy:                                            -78.0037716783 a.u.
  Excitation energy:                                               8.595126 eV

  Osc. strength:                                                      0.321190
  Trans. dip. moment [a.u.]:           [   0.895449,   -0.850523,   -0.008290]
  <i|r^2|0> [a.u.]:                    [   5.252695,   -0.251093,    0.072801]
  Two-photon absorption cross-section (SoS) [a.u.]:                   0.009103
  Two-photon absorption matrix (SoS) [a.u.]:
                                       |    0.002005    0.002490   -0.023145 |
                                       |    0.002490    0.002860   -0.024007 |
                                       |   -0.023145   -0.024007   -0.005195 |
  Two-photon absorption cross-section [a.u.]:                         1.178924
  Two-photon absorption matrix [a.u.]:
                                       |    0.025373    0.029158   -0.261701 |
                                       |    0.029158    0.033718   -0.274621 |
                                       |   -0.261701   -0.274621   -0.058665 |

  Dip. moment [a.u.]:                  [   0.000101,   -0.000125,    0.000263]
  Total dipole [Debye]:                                               0.000783
  <r^2> [a.u.]:                        [ 176.126566,   35.535562,   12.287817]
  Total <r^2> [a.u.]:                                               223.949945

  V1^2 = 0.9674, V2^2 = 0.0326

  Important amplitudes:
      occ i     occ j     vir a      vir b          v   
    -----------------------------------------------------
     8 (A) A              9 (A) A                 0.6173
     7 (A) A              9 (A) A                 0.2906
     6 (A) A             14 (A) A                -0.0530
     4 (A) A             10 (A) A                -0.0530
     7 (A) A             16 (A) A                 0.0494
     5 (A) A             13 (A) A                 0.0450
     6 (A) A             23 (A) A                -0.0424
     7 (A) A             20 (A) A                 0.0332
     8 (A) A             20 (A) A                 0.0328
     6 (A) A             19 (A) A                -0.0261
     3 (A) A             12 (A) A                -0.0247
     7 (A) A             11 (A) A                 0.0226
     5 (A) A             22 (A) A                -0.0190
     8 (A) A   8 (A) B   17 (A) A   20 (A) B     -0.0166
     4 (A) A             24 (A) A                -0.0165
     3 (A) A             27 (A) A                -0.0164
     5 (A) A   8 (A) B    9 (A) A    9 (A) B     -0.0163
     7 (A) A             21 (A) A                 0.0150
     6 (A) A             27 (A) A                -0.0143
     3 (A) A             14 (A) A                -0.0125
     8 (A) A   8 (A) B    9 (A) A   28 (A) B     -0.0122
     6 (A) A             12 (A) A                 0.0118
     8 (A) A             11 (A) A                 0.0118
     3 (A) A   4 (A) B    9 (A) A    9 (A) B      0.0113
     3 (A) A             19 (A) A                -0.0108
     8 (A) A   8 (A) B   18 (A) A   19 (A) B      0.0099
     5 (A) A             26 (A) A                 0.0088
     7 (A) A             32 (A) A                 0.0085
     8 (A) A   8 (A) B    9 (A) A   26 (A) B      0.0084
     3 (A) A             23 (A) A                -0.0072
     7 (A) A             36 (A) A                 0.0071
     8 (A) A   8 (A) B   25 (A) A   29 (A) B     -0.0068
     5 (A) A   7 (A) B    9 (A) A   16 (A) B      0.0067
     6 (A) A             34 (A) A                 0.0065
     4 (A) A   7 (A) B    9 (A) A   19 (A) B     -0.0064
     6 (A) A             40 (A) A                -0.0060
     5 (A) A   8 (A) B   11 (A) A   20 (A) B     -0.0055
     7 (A) A   8 (A) B   13 (A) A   20 (A) B     -0.0054
     7 (A) A   8 (A) B   22 (A) A   20 (A) B      0.0053
     3 (A) A   6 (A) B    9 (A) A   28 (A) B     -0.0052
    -----------------------------------------------------

  Density matrix analysis:
  ------------------------
  NOs
    Occupation of frontier NOs:
       0.9624   1.0156
    Number of electrons: 16.000000
    Number of unpaired electrons: n_u =  2.32583, n_u,nl =  2.03408
    NO participation ratio (PR_NO):  2.839797
  
  
  Mulliken Population Analysis
  Atom      Charge (e)              h+              e-           Del q
  --------------------------------------------------------------------
   1 H        0.087873        0.044097       -0.011536        0.032561
   2 C       -0.175773        0.431729       -0.496811       -0.065083
   3 H        0.087862        0.044078       -0.011536        0.032542
   4 C       -0.175652        0.431717       -0.496787       -0.065071
   5 H        0.087844        0.044061       -0.011538        0.032523
   6 H        0.087847        0.044068       -0.011540        0.032528
  --------------------------------------------------------------------
  Sum:        0.000000        1.039749       -1.039749       -0.000000
  
  Multipole moment analysis of the density matrix
    Molecular charge:                      0.000000
    Number of electrons:                   16.000000
      Center of electronic charge [Ang]: [ -1.561349,  -0.065268,   0.002102]
    Total nuclear charge:                  16.000000
      Center of nuclear charge [Ang]:    [ -1.561345,  -0.065272,   0.002111]
    Dipole moment [D]:                     0.000783
      Cartesian components [D]:          [  0.000257,  -0.000317,   0.000668]
    RMS size of the density [Ang]:         1.215504
      Cartesian components [Ang]:        [  0.802944,   0.785924,   0.463739]
  
  Exciton analysis of the difference density matrix
    <r_h> [Ang]:                  [ -1.561300,  -0.065302,   0.002048]
    <r_e> [Ang]:                  [ -1.561345,  -0.065252,   0.002001]
    |<r_e - r_h>| [Ang]:            0.000081
    Hole size [Ang]:                1.341095
      Cartesian components [Ang]: [  0.808299,   0.793970,   0.717495]
    Electron size [Ang]:            1.457944
      Cartesian components [Ang]: [  0.849884,   0.826790,   0.848361]

  Transition density matrix analysis:
  -----------------------------------
  
  CT numbers (Mulliken)
    omega =     0.9460
    <Phe> =    -0.1311
  
  Exciton analysis of the transition density matrix
    Trans. dipole moment [D]:             1.569560
      Cartesian components [D]:         [  1.138002,  -1.080906,  -0.010536]
    <r_h> [Ang]:                        [ -1.561296,  -0.065313,   0.002069]
    <r_e> [Ang]:                        [ -1.561346,  -0.065253,   0.001986]
    |<r_e - r_h>| [Ang]:                  0.000114
    Hole size [Ang]:                      1.298626
      Cartesian components [Ang]:       [  0.765412,   0.752948,   0.730508]
    Electron size [Ang]:                  1.471157
      Cartesian components [Ang]:       [  0.855267,   0.830841,   0.861699]
    RMS electron-hole separation [Ang]:   1.972793
      Cartesian components [Ang]:       [  1.163277,   1.134491,   1.118763]
    Covariance(r_h, r_e) [Ang^2]:        -0.020590
    Correlation coefficient:             -0.010778
    Center-of-mass size [Ang]:            0.975904
      Cartesian components [Ang]:       [  0.566008,   0.553937,   0.570242]

  Decomposition into state-averaged NTOs
    H- 0 -> L+ 0:  0.6118 ( 74.9%)
    H- 1 -> L+ 0: -0.2780 ( 15.5%)
    H- 2 -> L+ 5:  0.0717 (  1.0%)
                   omega =  94.6%
  ----------------------------------------------------------------------------


  Excited state 2 (singlet, A)                                     [converged]
  ----------------------------------------------------------------------------
  Term symbol:  3 (1) A                                     R^2 =  7.36500e-13

  Total energy:                                            -77.9877144671 a.u.
  Excitation energy:                                               9.032065 eV

  Osc. strength:                                                      0.100304
  Trans. dip. moment [a.u.]:           [   0.488264,   -0.463531,   -0.004841]
  <i|r^2|0> [a.u.]:                    [   2.939455,   -0.036971,   -0.135544]
  Two-photon absorption cross-section (SoS) [a.u.]:                   8.082202
  Two-photon absorption matrix (SoS) [a.u.]:
                                       |    0.064109    0.076295   -0.684777 |
                                       |    0.076295    0.089172   -0.719510 |
                                       |   -0.684777   -0.719510   -0.153679 |
  Two-photon absorption cross-section [a.u.]:                         0.159935
  Two-photon absorption matrix [a.u.]:
                                       |    0.008575    0.010847   -0.096597 |
                                       |    0.010847    0.012944   -0.100942 |
                                       |   -0.096597   -0.100942   -0.021604 |

  Dip. moment [a.u.]:                  [   0.001047,    0.000399,    0.000386]
  Total dipole [Debye]:                                               0.003012
  <r^2> [a.u.]:                        [ 175.668590,   35.080721,   12.805293]
  Total <r^2> [a.u.]:                                               223.554603

  V1^2 = 0.9579, V2^2 = 0.0421

  Important amplitudes:
      occ i     occ j     vir a      vir b          v   
    -----------------------------------------------------
     7 (A) A              9 (A) A                -0.5949
     8 (A) A              9 (A) A                 0.2793
     8 (A) A             11 (A) A                -0.1893
     7 (A) A             20 (A) A                -0.0670
     8 (A) A             16 (A) A                 0.0361
     6 (A) A             14 (A) A                -0.0291
     4 (A) A             10 (A) A                -0.0285
     5 (A) A   8 (A) B    9 (A) A    9 (A) B      0.0266
     7 (A) A             16 (A) A                 0.0254
     5 (A) A             13 (A) A                 0.0252
     8 (A) A             21 (A) A                -0.0228
     6 (A) A             23 (A) A                -0.0220
     6 (A) A             19 (A) A                -0.0141
     3 (A) A             12 (A) A                -0.0132
     8 (A) A             20 (A) A                 0.0125
     5 (A) A             28 (A) A                 0.0119
     4 (A) A   7 (A) B    9 (A) A   19 (A) B      0.0118
     5 (A) A   7 (A) B    9 (A) A   16 (A) B     -0.0114
     5 (A) A             22 (A) A                -0.0100
     7 (A) A   8 (A) B   20 (A) A   17 (A) B      0.0094
     4 (A) A             24 (A) A                -0.0085
     3 (A) A             27 (A) A                -0.0084
     5 (A) A   8 (A) B    9 (A) A   20 (A) B      0.0084
     4 (A) A   6 (A) B    9 (A) A   16 (A) B     -0.0078
     5 (A) A   6 (A) A    9 (A) A   23 (A) A      0.0077
     5 (A) A   6 (A) A    9 (A) A   14 (A) A      0.0076
     6 (A) A   7 (A) B    9 (A) A   18 (A) B      0.0074
     5 (A) A   6 (A) B    9 (A) A   19 (A) B      0.0074
     8 (A) A   8 (A) B   17 (A) A   20 (A) B     -0.0074
     4 (A) A   5 (A) A    9 (A) A   10 (A) A     -0.0073
     6 (A) A             27 (A) A                -0.0072
     5 (A) A   6 (A) B    9 (A) A   23 (A) B      0.0069
     5 (A) A   7 (A) A    9 (A) A   16 (A) A     -0.0068
     3 (A) A   7 (A) B    9 (A) A   18 (A) B     -0.0068
     7 (A) A   8 (A) B   17 (A) A   20 (A) B      0.0068
     7 (A) A   8 (A) B   19 (A) A   18 (A) B     -0.0067
     4 (A) A   8 (A) B    9 (A) A   25 (A) B     -0.0065
     3 (A) A             14 (A) A                -0.0065
     7 (A) A   8 (A) A    9 (A) A   28 (A) A     -0.0064
     6 (A) A             12 (A) A                 0.0064
    -----------------------------------------------------

  Density matrix analysis:
  ------------------------
  NOs
    Occupation of frontier NOs:
       0.9270   1.0708
    Number of electrons: 16.000000
    Number of unpaired electrons: n_u =  2.34911, n_u,nl =  2.07149
    NO participation ratio (PR_NO):  3.157475
  
  
  Mulliken Population Analysis
  Atom      Charge (e)              h+              e-           Del q
  --------------------------------------------------------------------
   1 H        0.121366        0.096779       -0.030724        0.066055
   2 C       -0.242465        0.313411       -0.445186       -0.131775
   3 H        0.121129        0.096832       -0.031023        0.065809
   4 C       -0.242370        0.313305       -0.445093       -0.131789
   5 H        0.121317        0.096698       -0.030703        0.065995
   6 H        0.121024        0.096754       -0.031049        0.065705
  --------------------------------------------------------------------
  Sum:        0.000000        1.013779       -1.013779       -0.000000
  
  Multipole moment analysis of the density matrix
    Molecular charge:                      0.000000
    Number of electrons:                   16.000000
      Center of electronic charge [Ang]: [ -1.561380,  -0.065285,   0.002098]
    Total nuclear charge:                  16.000000
      Center of nuclear charge [Ang]:    [ -1.561345,  -0.065272,   0.002111]
    Dipole moment [D]:                     0.003012
      Cartesian components [D]:          [  0.002661,   0.001014,   0.000981]
    RMS size of the density [Ang]:         1.212613
      Cartesian components [Ang]:        [  0.797876,   0.780841,   0.473404]
  
  Exciton analysis of the difference density matrix
    <r_h> [Ang]:                  [ -1.561224,  -0.065552,   0.002089]
    <r_e> [Ang]:                  [ -1.561763,  -0.065775,   0.001977]
    |<r_e - r_h>| [Ang]:            0.000594
    Hole size [Ang]:                1.450867
      Cartesian components [Ang]: [  0.948167,   0.935316,   0.575480]
    Electron size [Ang]:            1.526328
      Cartesian components [Ang]: [  0.917441,   0.896491,   0.827214]

  Transition density matrix analysis:
  -----------------------------------
  
  CT numbers (Mulliken)
    omega =     0.9280
    <Phe> =    -0.0381
  
  Exciton analysis of the transition density matrix
    Trans. dipole moment [D]:             0.855635
      Cartesian components [D]:         [  0.620521,  -0.589089,  -0.006152]
    <r_h> [Ang]:                        [ -1.561170,  -0.065555,   0.002110]
    <r_e> [Ang]:                        [ -1.561796,  -0.065768,   0.001959]
    |<r_e - r_h>| [Ang]:                  0.000678
    Hole size [Ang]:                      1.449058
      Cartesian components [Ang]:       [  0.947924,   0.935445,   0.571098]
    Electron size [Ang]:                  1.527665
      Cartesian components [Ang]:       [  0.916300,   0.894747,   0.832815]
    RMS electron-hole separation [Ang]:   2.092818
      Cartesian components [Ang]:       [  1.309950,   1.286211,   1.004779]
    Covariance(r_h, r_e) [Ang^2]:         0.026820
    Correlation coefficient:              0.012115
    Center-of-mass size [Ang]:            1.059147
      Cartesian components [Ang]:       [  0.663393,   0.651329,   0.507417]

  Decomposition into state-averaged NTOs
    H- 1 -> L+ 0:  0.5921 ( 70.1%)
    H- 0 -> L+ 0:  0.2605 ( 13.6%)
    H- 0 -> L+ 2: -0.1958 (  7.7%)
                   omega =  92.8%
  ----------------------------------------------------------------------------


  Excited state 3 (singlet, A)                                     [converged]
  ----------------------------------------------------------------------------
  Term symbol:  4 (1) A                                     R^2 =  2.58206e-13

  Total energy:                                            -77.9845183232 a.u.
  Excitation energy:                                               9.119036 eV

  Osc. strength:                                                      0.022733
  Trans. dip. moment [a.u.]:           [   0.014644,    0.019838,   -0.318037]
  <i|r^2|0> [a.u.]:                    [  -0.256065,    0.346647,    0.003086]
  Two-photon absorption cross-section (SoS) [a.u.]:                  41.695954
  Two-photon absorption matrix (SoS) [a.u.]:
                                       |   -2.274097   -0.116202   -0.116145 |
                                       |   -0.116202    2.272429    0.131400 |
                                       |   -0.116145    0.131400    0.003891 |
  Two-photon absorption cross-section [a.u.]:                        21.909010
  Two-photon absorption matrix [a.u.]:
                                       |   -1.647782   -0.084473   -0.084381 |
                                       |   -0.084473    1.647901    0.094782 |
                                       |   -0.084381    0.094782    0.002551 |

  Dip. moment [a.u.]:                  [  -0.000150,    0.000090,   -0.000230]
  Total dipole [Debye]:                                               0.000734
  <r^2> [a.u.]:                        [ 181.368092,   40.988104,   11.104399]
  Total <r^2> [a.u.]:                                               233.460594

  V1^2 = 0.9579, V2^2 = 0.0421

  Important amplitudes:
      occ i     occ j     vir a      vir b          v   
    -----------------------------------------------------
     8 (A) A             10 (A) A                 0.6885
     8 (A) A             24 (A) A                 0.0508
     8 (A) A             18 (A) A                -0.0332
     4 (A) A              9 (A) A                -0.0246
     8 (A) A   8 (A) B    9 (A) A   12 (A) B     -0.0222
     8 (A) A   8 (A) B   10 (A) A   17 (A) B      0.0171
     5 (A) A   8 (A) B   11 (A) A   10 (A) B      0.0168
     7 (A) A             10 (A) A                 0.0159
     8 (A) A             15 (A) A                -0.0149
     7 (A) A   8 (A) B   13 (A) A   10 (A) B      0.0143
     4 (A) A   8 (A) B   12 (A) A   10 (A) B      0.0112
     6 (A) A   8 (A) A   10 (A) A   15 (A) A      0.0111
     6 (A) A   8 (A) B   15 (A) A   10 (A) B     -0.0108
     7 (A) A   8 (A) B   22 (A) A   10 (A) B     -0.0108
     4 (A) A   8 (A) A   10 (A) A   12 (A) A     -0.0108
     7 (A) A   8 (A) A   10 (A) A   22 (A) A      0.0099
     7 (A) A   8 (A) A   10 (A) A   13 (A) A     -0.0098
     5 (A) A   8 (A) A   10 (A) A   11 (A) A     -0.0098
     5 (A) A   8 (A) B   21 (A) A   10 (A) B      0.0093
     6 (A) A   8 (A) B   10 (A) A   10 (A) B     -0.0089
     6 (A) A   8 (A) A   10 (A) A   18 (A) A     -0.0086
     7 (A) A   8 (A) A   12 (A) A   16 (A) A     -0.0083
     3 (A) A   4 (A) B   10 (A) A    9 (A) B      0.0079
     5 (A) A   8 (A) A   10 (A) A   21 (A) A     -0.0079
     8 (A) A   8 (A) B    9 (A) A   23 (A) B      0.0075
     4 (A) A   8 (A) B   19 (A) A   10 (A) B      0.0075
     3 (A) A   8 (A) A   10 (A) A   24 (A) A     -0.0071
     7 (A) A   8 (A) B   16 (A) A   12 (A) B      0.0071
     3 (A) A   8 (A) B   10 (A) A   10 (A) B      0.0071
     5 (A) A   8 (A) B   10 (A) A   11 (A) B      0.0070
     8 (A) A   8 (A) B    9 (A) A   19 (A) B     -0.0069
     3 (A) A   8 (A) B   10 (A) A   18 (A) B     -0.0067
     6 (A) A   8 (A) B   18 (A) A   10 (A) B      0.0065
     8 (A) A   8 (A) B   10 (A) A   28 (A) B     -0.0061
     7 (A) A   8 (A) B   12 (A) A   11 (A) B     -0.0059
     5 (A) A   8 (A) A   10 (A) A   16 (A) A      0.0058
     3 (A) A   5 (A) B   10 (A) A   25 (A) B     -0.0056
     4 (A) A   8 (A) A   10 (A) A   23 (A) A      0.0055
     6 (A) A   8 (A) A   11 (A) A   16 (A) A     -0.0055
     4 (A) A             20 (A) A                -0.0053
    -----------------------------------------------------

  Density matrix analysis:
  ------------------------
  NOs
    Occupation of frontier NOs:
       0.9813   0.9846
    Number of electrons: 16.000000
    Number of unpaired electrons: n_u =  2.28979, n_u,nl =  2.02527
    NO participation ratio (PR_NO):  2.703676
  
  
  Mulliken Population Analysis
  Atom      Charge (e)              h+              e-           Del q
  --------------------------------------------------------------------
   1 H       -0.153855        0.055078       -0.264245       -0.209167
   2 C        0.307596        0.535938       -0.117651        0.418286
   3 H       -0.153798        0.055066       -0.264184       -0.209118
   4 C        0.307673        0.535939       -0.117684        0.418255
   5 H       -0.153825        0.055074       -0.264221       -0.209147
   6 H       -0.153790        0.055061       -0.264170       -0.209109
  --------------------------------------------------------------------
  Sum:        0.000000        1.292156       -1.292156       -0.000000
  
  Multipole moment analysis of the density matrix
    Molecular charge:                      0.000000
    Number of electrons:                   16.000000
      Center of electronic charge [Ang]: [ -1.561340,  -0.065275,   0.002118]
    Total nuclear charge:                  16.000000
      Center of nuclear charge [Ang]:    [ -1.561345,  -0.065272,   0.002111]
    Dipole moment [D]:                     0.000734
      Cartesian components [D]:          [ -0.000382,   0.000228,  -0.000583]
    RMS size of the density [Ang]:         1.282157
      Cartesian components [Ang]:        [  0.858185,   0.844455,   0.440843]
  
  Exciton analysis of the difference density matrix
    <r_h> [Ang]:                  [ -1.561332,  -0.065258,   0.002061]
    <r_e> [Ang]:                  [ -1.561265,  -0.065306,   0.002225]
    |<r_e - r_h>| [Ang]:            0.000184
    Hole size [Ang]:                1.414932
      Cartesian components [Ang]: [  0.839321,   0.825480,   0.784955]
    Electron size [Ang]:            2.080051
      Cartesian components [Ang]: [  1.377019,   1.380525,   0.724279]

  Transition density matrix analysis:
  -----------------------------------
  
  CT numbers (Mulliken)
    omega =     0.9250
    <Phe> =    -0.0110
  
  Exciton analysis of the transition density matrix
    Trans. dipole moment [D]:             0.405397
      Cartesian components [D]:         [  0.018611,   0.025211,  -0.404184]
    <r_h> [Ang]:                        [ -1.561335,  -0.065213,   0.002017]
    <r_e> [Ang]:                        [ -1.561231,  -0.065301,   0.002271]
    |<r_e - r_h>| [Ang]:                  0.000289
    Hole size [Ang]:                      1.216533
      Cartesian components [Ang]:       [  0.642171,   0.629679,   0.819190]
    Electron size [Ang]:                  2.301662
      Cartesian components [Ang]:       [  1.522838,   1.529015,   0.800451]
    RMS electron-hole separation [Ang]:   2.592481
      Cartesian components [Ang]:       [  1.644406,   1.645820,   1.143750]
    Covariance(r_h, r_e) [Ang^2]:         0.028321
    Correlation coefficient:              0.010114
    Center-of-mass size [Ang]:            1.307119
      Cartesian components [Ang]:       [  0.830477,   0.830669,   0.573460]

  Decomposition into state-averaged NTOs
    H- 0 -> L+ 1:  0.6794 ( 92.3%)
                   omega =  92.5%
  ----------------------------------------------------------------------------


  Excited state 4 (singlet, A)                                     [converged]
  ----------------------------------------------------------------------------
  Term symbol:  5 (1) A                                     R^2 =  8.20420e-13

  Total energy:                                            -77.9614969333 a.u.
  Excitation energy:                                               9.745480 eV

  Osc. strength:                                                      0.032554
  Trans. dip. moment [a.u.]:           [  -0.267743,    0.254270,    0.002578]
  <i|r^2|0> [a.u.]:                    [  -1.568472,    0.077736,   -0.026454]
  Two-photon absorption cross-section (SoS) [a.u.]:                 125.380921
  Two-photon absorption matrix (SoS) [a.u.]:
                                       |    0.262087    0.300983   -2.695899 |
                                       |    0.300983    0.343478   -2.835099 |
                                       |   -2.695899   -2.835099   -0.605034 |
  Two-photon absorption cross-section [a.u.]:                        75.128074
  Two-photon absorption matrix [a.u.]:
                                       |    0.203334    0.233030   -2.086712 |
                                       |    0.233030    0.265315   -2.194718 |
                                       |   -2.086712   -2.194718   -0.468367 |

  Dip. moment [a.u.]:                  [  -0.000741,   -0.000760,   -0.000263]
  Total dipole [Debye]:                                               0.002779
  <r^2> [a.u.]:                        [ 181.272025,   40.786876,   10.898989]
  Total <r^2> [a.u.]:                                               232.957890

  V1^2 = 0.9633, V2^2 = 0.0367

  Important amplitudes:
      occ i     occ j     vir a      vir b          v   
    -----------------------------------------------------
     8 (A) A             11 (A) A                -0.6589
     7 (A) A              9 (A) A                 0.1784
     8 (A) A             21 (A) A                -0.0764
     8 (A) A              9 (A) A                -0.0683
     8 (A) A             16 (A) A                 0.0636
     7 (A) A             20 (A) A                 0.0167
     8 (A) A   8 (A) B    9 (A) A   13 (A) B     -0.0161
     5 (A) A   8 (A) B   11 (A) A   11 (A) B     -0.0152
     4 (A) A             10 (A) A                 0.0137
     8 (A) A   8 (A) B   11 (A) A   17 (A) B     -0.0135
     5 (A) A             13 (A) A                -0.0127
     6 (A) A             14 (A) A                 0.0124
     7 (A) A   8 (A) B   13 (A) A   11 (A) B     -0.0124
     7 (A) A             16 (A) A                -0.0121
     4 (A) A   8 (A) B   12 (A) A   11 (A) B     -0.0108
     5 (A) A   8 (A) A   11 (A) A   21 (A) A      0.0108
     8 (A) A   8 (A) B    9 (A) A   22 (A) B      0.0106
     7 (A) A   8 (A) A   11 (A) A   22 (A) A     -0.0094
     6 (A) A   8 (A) B   10 (A) A   11 (A) B      0.0089
     6 (A) A   8 (A) B   15 (A) A   11 (A) B      0.0088
     7 (A) A   8 (A) B   22 (A) A   11 (A) B      0.0086
     3 (A) A   4 (A) B   11 (A) A    9 (A) B     -0.0083
     6 (A) A   8 (A) A   11 (A) A   15 (A) A     -0.0078
     3 (A) A   8 (A) B   11 (A) A   18 (A) B      0.0078
     7 (A) A   8 (A) A   13 (A) A   16 (A) A     -0.0077
     5 (A) A   8 (A) B    9 (A) A    9 (A) B     -0.0077
     6 (A) A             23 (A) A                 0.0075
     7 (A) A   8 (A) A   11 (A) A   13 (A) A      0.0074
     4 (A) A   8 (A) B   19 (A) A   11 (A) B     -0.0068
     5 (A) A   8 (A) B   21 (A) A   11 (A) B     -0.0068
     7 (A) A             11 (A) A                -0.0065
     4 (A) A   8 (A) A   11 (A) A   12 (A) A      0.0061
     6 (A) A             19 (A) A                 0.0059
     6 (A) A   8 (A) A   11 (A) A   18 (A) A      0.0059
     6 (A) A   8 (A) B   18 (A) A   11 (A) B     -0.0057
     3 (A) A   8 (A) B   11 (A) A   30 (A) B      0.0055
     7 (A) A   8 (A) B   16 (A) A   13 (A) B      0.0055
     5 (A) A   8 (A) B   10 (A) A   10 (A) B     -0.0054
     6 (A) A   8 (A) B   11 (A) A   10 (A) B      0.0053
     3 (A) A   5 (A) B   11 (A) A   25 (A) B      0.0053
    -----------------------------------------------------

  Density matrix analysis:
  ------------------------
  NOs
    Occupation of frontier NOs:
       0.9204   1.0478
    Number of electrons: 16.000000
    Number of unpaired electrons: n_u =  2.32387, n_u,nl =  2.06346
    NO participation ratio (PR_NO):  3.041562
  
  
  Mulliken Population Analysis
  Atom      Charge (e)              h+              e-           Del q
  --------------------------------------------------------------------
   1 H       -0.115702        0.047594       -0.218609       -0.171014
   2 C        0.231350        0.485627       -0.143587        0.342040
   3 H       -0.115691        0.047582       -0.218592       -0.171010
   4 C        0.231502        0.485617       -0.143534        0.342083
   5 H       -0.116001        0.047577       -0.218899       -0.171322
   6 H       -0.115458        0.047584       -0.218360       -0.170777
  --------------------------------------------------------------------
  Sum:        0.000000        1.161581       -1.161581       -0.000000
  
  Multipole moment analysis of the density matrix
    Molecular charge:                      -0.000000
    Number of electrons:                   16.000000
      Center of electronic charge [Ang]: [ -1.561321,  -0.065247,   0.002119]
    Total nuclear charge:                  16.000000
      Center of nuclear charge [Ang]:    [ -1.561345,  -0.065272,   0.002111]
    Dipole moment [D]:                     0.002779
      Cartesian components [D]:          [ -0.001883,  -0.001932,  -0.000668]
    RMS size of the density [Ang]:         1.278747
      Cartesian components [Ang]:        [  0.857240,   0.842369,   0.436746]
  
  Exciton analysis of the difference density matrix
    <r_h> [Ang]:                  [ -1.561311,  -0.065251,   0.002054]
    <r_e> [Ang]:                  [ -1.560967,  -0.064918,   0.002252]
    |<r_e - r_h>| [Ang]:            0.000518
    Hole size [Ang]:                1.400032
      Cartesian components [Ang]: [  0.825676,   0.812393,   0.786363]
    Electron size [Ang]:            2.103730
      Cartesian components [Ang]: [  1.408938,   1.404847,   0.683358]

  Transition density matrix analysis:
  -----------------------------------
  
  CT numbers (Mulliken)
    omega =     0.9298
    <Phe> =    -0.0192
  
  Exciton analysis of the transition density matrix
    Trans. dipole moment [D]:             0.469271
      Cartesian components [D]:         [ -0.340268,   0.323145,   0.003276]
    <r_h> [Ang]:                        [ -1.561337,  -0.065270,   0.002026]
    <r_e> [Ang]:                        [ -1.560893,  -0.064868,   0.002274]
    |<r_e - r_h>| [Ang]:                  0.000649
    Hole size [Ang]:                      1.236880
      Cartesian components [Ang]:       [  0.673438,   0.661030,   0.799621]
    Electron size [Ang]:                  2.224636
      Cartesian components [Ang]:       [  1.489543,   1.486418,   0.721684]
    RMS electron-hole separation [Ang]:   2.532135
      Cartesian components [Ang]:       [  1.624297,   1.616971,   1.076463]
    Covariance(r_h, r_e) [Ang^2]:         0.033586
    Correlation coefficient:              0.012206
    Center-of-mass size [Ang]:            1.279262
      Cartesian components [Ang]:       [  0.822523,   0.818261,   0.538904]

  Decomposition into state-averaged NTOs
    H- 0 -> L+ 2: -0.6523 ( 85.1%)
    H- 1 -> L+ 0: -0.1771 (  6.3%)
    H- 0 -> L+ 0: -0.0802 (  1.3%)
                   omega =  93.0%
  ----------------------------------------------------------------------------


  Excited state 5 (singlet, A)                                     [converged]
  ----------------------------------------------------------------------------
  Term symbol:  6 (1) A                                     R^2 =  1.84488e-11

  Total energy:                                            -77.9471147511 a.u.
  Excitation energy:                                              10.136839 eV

  Osc. strength:                                                      0.001004
  Trans. dip. moment [a.u.]:           [  -0.043816,   -0.045807,   -0.004932]
  <i|r^2|0> [a.u.]:                    [  -0.178720,   -0.106560,    0.015545]
  Two-photon absorption cross-section (SoS) [a.u.]:                 219.147302
  Two-photon absorption matrix (SoS) [a.u.]:
                                       |    0.364971    0.055404   -3.786151 |
                                       |    0.055404   -0.433658    3.590584 |
[...]
    16   -2.812838117071e-03
    17   -3.184978523351e-03
    18    1.116888057775e-04
    19   -2.726755573618e-03
    20    1.157822989128e-02
    21    9.275418101552e-01
    22   -5.571907175391e-04
    23    1.367782435234e-02
    24    1.454475266498e-03
    25    7.036969905792e-02
    26   -5.232490772688e-02
    27   -1.382563610225e+00
    28    9.998118648307e-02
    29   -9.489359139715e-02
    30   -9.926705193955e-04
    31    3.846898062103e-01
    32   -3.651653480990e-01
    33   -3.816207093908e-03
    34    1.524658141994e-02
    35   -2.559463296764e-05
    36   -2.692561153359e-04
    37    1.594755360308e-04
    38   -3.042198160641e-03
    39    1.157354915231e-02
    40    9.270680288558e-01
    41    5.026939466126e-04
    42   -1.375414898436e-02
    43   -1.555585258154e-04
    44    1.159644715026e-02
    45    9.273129401223e-01
    46    1.376369365981e-02
    47    2.110358922129e-04
    48    1.540917813814e-05
Sym=X
Ene= 0.231152
Spin=Alpha
Occup=0
     1    2.929822215906e-02
     2    1.166238797405e+00
     3   -1.286319908998e-02
     4   -3.368334802902e-03
     5   -2.086664931299e-03
     6   -4.823619714899e-05
     7    5.591719984872e-05
     8    6.449054587133e-04
     9   -1.529408811107e-01
    10   -1.606760803027e-01
    11   -3.993255056545e-02
    12   -5.241614712263e-01
    13   -5.506371699551e-01
    14   -1.493034273953e-01
    15    6.793466001585e-06
    16   -1.025265500247e-03
    17    9.641756556448e-04
    18    1.401840354945e-03
    19    8.822063161913e-05
    20   -2.933196363047e-02
    21   -1.167258870779e+00
    22   -2.732025179427e-03
    23   -1.301236001637e-02
    24   -2.183412059934e-03
    25    6.919764268136e-05
    26   -7.123115480452e-05
    27   -1.201444763575e-03
    28   -1.550672489745e-01
    29   -1.634549899577e-01
    30    5.560002679313e-03
    31   -5.328502097241e-01
    32   -5.619693673349e-01
    33    3.133756827113e-02
    34    3.186425813354e-05
    35   -1.164472450913e-03
    36    1.106204608379e-03
    37   -1.183463986250e-03
    38   -5.822737377532e-05
    39    2.933285327109e-02
    40    1.167932107427e+00
    41   -2.856100787598e-03
    42   -1.317149419177e-02
    43    3.325870755327e-04
    44   -2.929955111849e-02
    45   -1.166216536046e+00
    46   -1.298028512614e-02
    47   -3.521258315095e-03
    48    4.300321230557e-04
Sym=X
Ene= 0.236288
Spin=Alpha
Occup=0
     1    1.964117787028e-02
     2    1.071913688187e+00
     3   -1.580198805166e-02
     4   -9.146582932879e-03
     5   -1.692819110127e-03
     6    8.713170986790e-02
     7   -8.241608672703e-02
     8   -1.541908024282e+00
     9   -5.904655600188e-02
    10    5.588164170868e-02
    11    4.618198721511e-04
    12   -2.429216301497e-01
    13    2.298967920577e-01
    14    1.889854861009e-03
    15    2.094596241846e-02
    16   -3.254765891873e-03
    17   -3.646425451761e-03
    18    5.967889997551e-04
    19   -1.231508248134e-02
    20    1.960923915433e-02
    21    1.070131799624e+00
    22    8.336645235121e-03
    23    1.621233463353e-02
    24    1.751293518722e-03
    25   -8.714841608914e-02
    26    8.244851168022e-02
    27    1.542163484085e+00
    28   -5.903880361428e-02
    29    5.586971801111e-02
    30    6.403055978247e-04
    31   -2.427683705582e-01
    32    2.299591877509e-01
    33    2.628966090569e-03
    34   -2.124472866876e-02
    35    1.722403944923e-03
    36    2.067883263489e-03
    37   -6.312996448787e-04
    38    1.248881951673e-02
    39   -1.961632137776e-02
    40   -1.070540738423e+00
    41    8.364538365080e-03
    42    1.626770253233e-02
    43    1.014389464304e-03
    44   -1.963716637381e-02
    45   -1.071848387878e+00
    46   -1.583656703302e-02
    47   -9.189515445921e-03
    48   -9.328016708210e-04
Sym=X
Ene= 0.302781
Spin=Alpha
Occup=0
     1    2.107752347014e-02
     2   -1.654568602094e+00
     3    2.339603573466e-02
     4   -4.642722528194e-04
     5    1.977285149578e-03
     6    6.728326405728e-06
     7    6.062066331979e-06
     8   -2.628511935398e-04
     9    1.349319368387e-01
    10    1.418237595473e-01
    11    2.721426470066e-02
    12    1.120962921002e+00
    13    1.178484552646e+00
    14    1.651336235810e-01
    15   -3.548654503480e-05
    16    2.359972809361e-03
    17   -2.538784418622e-03
    18    3.384429028860e-02
    19    1.719774915548e-03
    20   -2.106700949555e-02
    21    1.654674454276e+00
    22   -1.646405519874e-03
    23    2.332693701376e-02
    24    2.203537329760e-03
    25   -8.181499209941e-06
    26   -4.173558494431e-07
    27    2.648455441163e-04
    28   -1.360710752283e-01
    29   -1.432500217671e-01
    30   -3.032378713422e-03
    31   -1.124647481730e+00
    32   -1.183612954183e+00
    33   -8.543449644523e-02
    34   -2.781990015230e-05
    35    1.106521921819e-03
    36   -1.394441053847e-03
    37    3.398816044300e-02
    38    1.746531429158e-03
    39   -2.111850197342e-02
    40    1.654576716143e+00
    41    1.559614262692e-03
    42   -2.342815876791e-02
    43   -4.663347174275e-04
    44    2.110801556530e-02
    45   -1.654680364524e+00
    46   -2.348536402057e-02
    47    3.507993912314e-04
    48   -2.262719792568e-04
Sym=X
Ene= 0.462394
Spin=Alpha
Occup=0
     1   -1.147544610771e-01
     2   -6.956866878295e-01
     3   -1.484535188537e-02
     4   -1.020344817418e-02
     5   -2.655875076072e-03
     6    6.251650272376e-02
     7    1.644597713137e-02
     8   -3.640523097300e+00
     9    1.041560401384e-01
    10   -9.893339293026e-02
    11   -9.534119025848e-04
    12    2.430271200751e+00
    13   -2.308147472176e+00
    14   -2.238574630621e-02
    15    5.221562966873e-02
    16   -6.831436764332e-03
    17   -8.294150790543e-03
    18   -1.146442326500e-03
    19    2.072363124670e-02
    20   -1.147603884556e-01
    21   -6.955884727454e-01
    22    9.449407659714e-03
    23    1.532253993517e-02
    24    2.708838466227e-03
    25   -6.250645480993e-02
    26   -1.650569512148e-02
    27    3.640417288162e+00
    28    1.040763574623e-01
    29   -9.881958804273e-02
    30   -1.036198691400e-03
    31    2.430542305634e+00
    32   -2.308337381291e+00
    33   -2.276445026206e-02
    34   -5.365478184336e-02
    35   -3.327406683252e-04
    36    7.515628969707e-04
    37    1.024849040184e-03
    38   -1.986877169868e-02
    39    1.149764058194e-01
    40    6.955416813288e-01
    41    9.595346494338e-03
    42    1.549481160903e-02
    43    6.586219547172e-05
    44    1.150532038967e-01
    45    6.953396126941e-01
    46   -1.497929021991e-02
    47   -1.036894401909e-02
    48   -1.938293730871e-05
Sym=X
Ene= 0.579779
Spin=Alpha
Occup=0
     1   -2.377571752647e-01
     2   -4.765771161673e-02
     3    2.212832465962e-02
     4   -2.702049984063e-02
     5   -7.092444866570e-04
     6    6.286678143186e-03
     7    1.692880060288e-01
     8    4.142462779157e-01
     9   -3.054337258832e-01
    10    2.900967551479e-01
    11    2.842993440841e-03
    12    7.488946381688e-01
    13   -7.112728090719e-01
    14   -6.981739375745e-03
    15    1.946699477401e-03
    16   -3.814166441788e-03
    17   -3.463299026554e-03
    18    3.069350370584e-03
    19   -5.977952410631e-02
    20   -2.379735430082e-01
    21   -4.748623662359e-02
    22    2.810780513951e-02
    23   -2.069240662767e-02
    24    2.458571313916e-04
    25    6.221612803364e-03
    26    1.692507254951e-01
    27    4.172458090599e-01
    28    3.055869117641e-01
    29   -2.901570681354e-01
    30   -2.827882594568e-03
    31   -7.469721976027e-01
    32    7.091864940196e-01
    33    7.033481404186e-03
    34    2.013436886210e-03
    35   -3.483160631785e-03
    36   -3.110561612898e-03
    37    3.020941995770e-03
    38   -5.982008772832e-02
    39   -2.377992849193e-01
    40   -4.684662823962e-02
    41   -2.811244658946e-02
    42    2.067745450211e-02
    43    4.573187226116e-05
    44   -2.381017551271e-01
    45   -4.657235420154e-02
    46   -2.206820665902e-02
    47    2.698497355660e-02
    48    4.336538681341e-04
Sym=X
Ene= 0.609518
Spin=Alpha
Occup=0
     1   -5.197160223032e-01
     2    2.461459252749e-01
     3   -5.972915309490e-02
     4    3.694464036203e-02
     5    8.126863444495e-04
     6    1.028841954498e-06
     7   -2.679924900273e-05
     8    4.410348599242e-04
     9   -3.570814776530e-02
    10   -3.753432331844e-02
    11    2.800088764211e-03
    12    2.578135993500e-01
    13    2.704806796330e-01
    14    7.824271406460e-02
    15    1.411648686683e-04
    16   -8.789477336137e-03
    17    9.689717354273e-03
    18   -1.488292225735e-01
    19   -7.605029876679e-03
    20    5.196126952606e-01
    21   -2.462571565302e-01
    22    3.999922059538e-02
    23   -5.776568961404e-02
    24   -1.004084368955e-04
    25   -9.181377837196e-06
    26    1.306183328498e-06
    27    8.604429099905e-05
    28   -3.494881104379e-02
    29   -3.682597512821e-02
    30   -1.069801377239e-02
    31    2.620651221159e-01
    32    2.768358677649e-01
    33   -2.020700466733e-02
    34   -9.341986420579e-05
    35    6.430829483510e-03
    36   -7.576369643604e-03
    37    1.489969854787e-01
    38    7.624486495771e-03
    39   -5.196384073271e-01
    40    2.457753213901e-01
    41    4.012833286103e-02
    42   -5.757325668122e-02
    43   -3.021987879300e-03
    44    5.193083619492e-01
    45   -2.458219852234e-01
    46   -5.958809285609e-02
    47    3.716398964060e-02
    48   -2.065449253605e-03
Sym=X
Ene= 0.688769
Spin=Alpha
Occup=0
     1    4.762726324895e-03
     2   -2.139485716527e-02
     3    3.044107670054e-03
     4    4.655262938123e-03
     5   -1.820277742899e-02
     6    1.263263148831e-05
     7    1.489939373272e-04
     8   -5.401464287207e-05
     9    5.327559124117e-02
    10    6.275435944954e-02
    11   -6.675484664558e-01
    12   -5.699969537720e-02
    13   -6.584447076512e-02
    14    6.093555235579e-01
    15   -1.398516205935e-03
    16    8.302356386001e-02
    17   -7.881530291157e-02
    18   -1.201319306028e-03
    19   -8.033480923266e-04
    20   -4.402680105692e-03
    21    2.129831223196e-02
    22    4.281162521008e-03
    23    3.369757974917e-03
    24   -1.821729291538e-02
    25    9.714786250305e-06
    26    1.849510514531e-04
    27   -2.021883928753e-04
    28    1.107448997222e-02
    29    1.817815630531e-02
    30   -6.722715792190e-01
    31   -2.048367408576e-03
    32   -7.931299386069e-03
    33    6.155124089705e-01
    34    1.256968602470e-03
    35   -8.223857755406e-02
    36    7.796160510202e-02
    37    1.620570854178e-02
    38    1.617664824740e-03
    39   -4.456009186646e-03
    40    2.117939829072e-02
    41   -2.511790268184e-03
    42   -1.123030231031e-03
    43   -1.882632855630e-02
    44    4.703039041166e-03
    45   -2.149565551613e-02
    46   -1.269016864184e-03
    47   -2.411084965272e-03
    48   -1.883736609713e-02
Sym=X
Ene= 0.704493
Spin=Alpha
Occup=0
     1   -4.882430007153e-01
     2    1.650123651001e-01
     3   -7.795844752511e-02
     4   -4.406407412118e-02
     5   -9.573984038834e-03
     6   -4.590930872195e-02
     7   -2.997975318896e-01
     8    4.588605164511e-01
     9    1.961889308993e-01
    10   -1.863537857689e-01
    11   -2.065155272831e-03
    12   -5.784750411537e-02
    13    5.502751229748e-02
    14    7.275104827323e-04
    15    1.889970182122e-01
    16   -2.849632153556e-02
    17   -3.248896651023e-02
    18    3.635449495726e-03
    19   -7.554319455758e-02
    20   -4.883814501537e-01
    21    1.652887405467e-01
    22    4.008451445999e-02
    23    8.006349267663e-02
    24    9.905084499699e-03
    25   -4.594168290825e-02
    26   -2.998443630082e-01
    27    4.611344947347e-01
    28   -1.962219221567e-01
    29    1.863422597010e-01
    30    1.596459645792e-03
    31    5.924712389805e-02
    32   -5.638865575585e-02
    33   -2.218662736831e-04
    34    1.921042098586e-01
    35   -1.232871974604e-02
    36   -1.547266124908e-02
    37    3.858468656190e-03
    38   -7.743489695715e-02
    39   -4.882418005871e-01
    40    1.655336666235e-01
    41   -4.039009604613e-02
    42   -8.042240952538e-02
    43   -3.647101586076e-03
    44   -4.883542843622e-01
    45    1.655222148770e-01
    46    7.827007958926e-02
    47    4.445509120567e-02
    48    3.286848315445e-03
Sym=X
Ene= 0.775282
Spin=Alpha
Occup=0
     1    5.387866409942e-01
     2   -4.834791961065e-01
     3    1.071299249905e-01
     4    2.607800333086e-02
     5    1.136922226314e-02
     6    8.888754684424e-02
     7   -2.266708348969e-01
     8   -5.725258892232e-01
     9    1.033327460643e-01
    10   -9.816528866165e-02
    11   -7.639435021315e-04
    12    2.995513452011e-01
    13   -2.845256037129e-01
    14   -3.204733553582e-03
    15   -1.994113165299e-01
    16    3.171221542922e-02
    17    3.666988876602e-02
    18    4.913892717596e-05
    19    5.888743653414e-03
    20    5.386936644087e-01
    21   -4.835081547864e-01
    22   -2.066081629585e-02
    23   -1.081936351697e-01
    24   -1.216977389312e-02
    25   -8.888878446291e-02
    26    2.265380152648e-01
    27    5.722903729815e-01
    28    1.033026598743e-01
    29   -9.804164518360e-02
    30   -1.124108113470e-03
    31    2.997725047885e-01
    32   -2.849166574524e-01
    33   -2.388863194133e-03
    34    2.049875463081e-01
    35   -3.014815141142e-03
    36   -6.651231593331e-03
    37    4.311916784112e-04
    38   -9.117608521682e-03
    39   -5.385506127488e-01
    40    4.835927119089e-01
    41   -2.107255064233e-02
    42   -1.087948885094e-01
    43   -2.939547548397e-03
    44   -5.386499198014e-01
    45    4.835064557339e-01
    46    1.075744314466e-01
    47    2.663766098528e-02
    48    2.128890253464e-03
Sym=X
Ene= 0.807062
Spin=Alpha
Occup=0
     1   -1.347978086122e-03
     2    5.956958816701e-02
     3   -4.421714597270e-03
     4   -2.323281668334e-03
     5   -3.215721126393e-02
     6    2.278365892586e-05
     7   -7.804809079201e-05
     8    4.141734305655e-05
     9    7.577854193294e-02
    10    8.702441239840e-02
    11   -7.569950327554e-01
    12   -1.185552148958e-01
    13   -1.357224158233e-01
    14    1.110188929973e+00
    15    9.962084110586e-04
    16   -6.626140125471e-02
    17    6.302864737324e-02
    18   -8.822212521794e-03
    19    1.348431095222e-04
    20    1.570946666192e-03
    21   -5.986724407933e-02
    22   -2.385236239899e-03
    23   -4.316490401139e-03
    24   -3.217567494020e-02
    25   -2.053136704687e-05
    26    1.637941371317e-05
    27   -1.332870202972e-05
    28    2.605643309386e-03
    29   -4.948968707008e-03
    30    7.657061176020e-01
    31   -1.112159064359e-02
    32   -7.289480737776e-04
    33   -1.124663647990e+00
    34    1.115638778689e-03
    35   -6.466357353702e-02
    36    6.119625048467e-02
    37    2.261503131872e-02
    38    1.789453953979e-03
    39   -1.579216653124e-03
    40    5.987353416704e-02
    41   -5.421057876964e-03
    42   -8.147131181004e-03
    43    3.106338023062e-02
    44    1.354176801715e-03
    45   -5.953770955607e-02
    46   -7.440400682799e-03
    47   -6.151742179614e-03
    48    3.109787595526e-02
Sym=X
Ene= 0.858545
Spin=Alpha
Occup=0
     1    1.395974340363e-02
     2   -1.073445313676e+00
     3    1.457727224759e-01
     4    5.571514700400e-02
     5    1.502402752495e-02
     6    7.109676873416e-06
     7    5.269032014681e-05
     8    1.055943225438e-05
     9   -4.071737059041e-01
    10   -4.276200908698e-01
    11   -1.117260254501e-01
    12    9.279777470348e-01
    13    9.745391981550e-01
    14    2.484410228792e-01
    15   -2.339085345850e-04
    16    1.165453870673e-02
    17   -1.320683165810e-02
    18    2.291584202982e-01
    19    1.170185651540e-02
    20   -1.389524342951e-02
    21    1.073339864605e+00
    22    4.829235569187e-02
    23    1.482874359649e-01
    24    1.592534195940e-02
    25    7.824833953653e-07
    26    5.497765339641e-05
    27   -5.236795598248e-05
    28   -4.133218651680e-01
    29   -4.354413380443e-01
    30    2.017976006102e-02
    31    9.413857137644e-01
    32    9.917505066212e-01
    33   -3.987290951837e-02
    34    2.019956687519e-04
    35   -1.177297275070e-02
    36    1.334652532260e-02
    37   -2.290726273911e-01
    38   -1.173115726881e-02
    39    1.391463904155e-02
    40   -1.073206918082e+00
    41    4.877567920174e-02
    42    1.487923774208e-01
    43    6.699674714759e-03
    44   -1.393408642497e-02
    45    1.073288575354e+00
    46    1.461569374416e-01
    47    5.634694118747e-02
    48    5.754657407542e-03
Sym=X
Ene= 0.927476
Spin=Alpha
Occup=0
     1    1.426789652658e-01
     2   -1.228078922234e+00
     3    1.820850642452e-01
     4   -6.192560460669e-03
     5    1.497547618073e-02
     6    7.271292938584e-06
     7    1.219780121961e-04
     8    9.018927489802e-06
     9   -4.725691698509e-01
    10   -4.970961092879e-01
    11   -7.240652944928e-02
    12    1.375280272030e+00
    13    1.446747664701e+00
    14    2.088305731864e-01
    15   -2.758776460790e-04
    16    1.618760700613e-02
    17   -1.645957439438e-02
    18    1.241963136625e-01
    19    6.167761695853e-03
    20   -1.427276411822e-01
    21    1.228608678492e+00
    22   -1.535660853543e-02
    23    1.814358197198e-01
    24    1.677540075284e-02
    25   -4.846598624610e-06
    26   -2.528970869755e-05
    27   -1.864800993814e-04
    28    4.747576788307e-01
    29    4.993677561368e-01
    30    3.328742016172e-02
    31   -1.381579881511e+00
    32   -1.453211477386e+00
    33   -9.874648158466e-02
    34    3.341098705307e-05
    35   -3.369936020661e-03
    36    1.952540145732e-03
    37    1.263273320988e-01
    38    6.658669272265e-03
    39   -1.426557738441e-01
    40    1.228494273625e+00
    41    1.474317954797e-02
    42   -1.822275282510e-01
    43   -3.737441361574e-03
    44    1.427342615110e-01
    45   -1.228920973123e+00
    46   -1.828267637921e-01
    47    5.278672103156e-03
    48   -1.861457139596e-03
Sym=X
Ene= 0.970127
Spin=Alpha
Occup=0
     1   -5.987663940560e-02
     2    8.943743551360e-01
     3   -8.750416437767e-02
     4   -9.639821446029e-02
     5   -1.167733123849e-02
     6    2.714346143454e-02
     7    2.538164620055e-01
     8    5.076378092792e-01
     9    4.831387078714e-01
    10   -4.586386115948e-01
    11   -4.390140029835e-03
    12   -1.469782496174e+00
    13    1.394995824186e+00
    14    1.335217154494e-02
    15   -5.786025909756e-02
    16   -1.157268898524e-02
    17   -8.300188612394e-03
    18    1.515685057437e-02
    19   -2.963077615540e-01
    20   -5.991901803620e-02
    21    8.936266993831e-01
    22    9.188600513440e-02
    23    9.214978902271e-02
    24    1.160361453076e-02
    25   -2.714630581950e-02
    26   -2.541506607341e-01
    27   -5.071105292991e-01
    28    4.829178076465e-01
    29   -4.588680485410e-01
    30   -4.621551276883e-03
    31   -1.468771664007e+00
    32    1.395860519463e+00
    33    1.402775951839e-02
    34    5.820559890632e-02
    35    1.317646749105e-02
    36    1.001904882596e-02
    37   -1.522189735816e-02
    38    2.962062030180e-01
    39    5.985727009009e-02
    40   -8.945389411971e-01
    41    9.205048077749e-02
    42    9.246091317546e-02
    43    8.397009823194e-03
    44    5.985909015477e-02
    45   -8.937208431355e-01
    46   -8.756206393289e-02
    47   -9.663480352148e-02
    48   -8.374264037754e-03
[5D]

======= END OF MOLDEN-FORMATTED INPUT FILE =======


        *************************************************************
        *                                                           *
        *  Thank you very much for using Q-Chem.  Have a nice day.  *
        *                                                           *
        *************************************************************


