                  Welcome to Q-Chem
     A Quantum Leap Into The Future Of Chemistry


 Q-Chem 5.4 (devel), Q-Chem, Inc., Pleasanton, CA (2021)

 E. Epifanovsky,  A. T. B. Gilbert,  Xintian Feng,  Joonho Lee,  Yuezhi Mao,  
 N. Mardirossian,  P. Pokhilko,  A. White,  M. Wormit,  M. P. Coons,  
 A. L. Dempwolff,  Zhengting Gan,  D. Hait,  P. R. Horn,  L. D. Jacobson,  
 I. Kaliman,  J. Kussmann,  A. W. Lange,  Ka Un Lao,  D. S. Levine,  Jie Liu,  
 S. C. McKenzie,  A. F. Morrison,  K. Nanda,  F. Plasser,  D. R. Rehn,  
 M. L. Vidal,  Zhi-Qiang You,  Ying Zhu,  B. Alam,  B. Albrecht,  
 A. Aldossary,  E. Alguire,  J. H. Andersen,  D. Barton,  K. Begam,  A. Behn,  
 Y. A. Bernard,  E. J. Berquist,  H. Burton,  A. Carreras,  K. Carter-Fenk,  
 R. Chakraborty,  A. D. Chien,  K. D. Closser,  V. Cofer-Shabica,  
 S. Dasgupta,  Jia Deng,  M. de Wergifosse,  M. Diedenhofen,  Hainam Do,  
 S. Ehlert,  Po-Tung Fang,  S. Fatehi,  Qingguo Feng,  T. Friedhoff,  
 J. Gayvert,  Qinghui Ge,  G. Gidofalvi,  M. Goldey,  J. Gomes,  
 C. Gonzalez-Espinoza,  S. Gulania,  A. Gunina,  M. W. D. Hanson-Heine,  
 P. H. P. Harbach,  A. W. Hauser,  M. F. Herbst,  M. Hernandez Vera,  
 M. Hodecker,  Z. C. Holden,  S. Houck,  Xunkun Huang,  Kerwin Hui,  
 B. C. Huynh,  M. Ivanov,  Hyunjun Ji,  Hanjie Jiang,  B. Kaduk,  S. Kaehler,  
 K. Khistyaev,  Jaehoon Kim,  P. Klunzinger,  Z. Koczor-Benda,  
 Joong Hoon Koh,  D. Kosenkov,  L. Koulias,  T. Kowalczyk,  C. M. Krauter,  
 K. Kue,  A. Kunitsa,  T. Kus,  A. Landau,  K. V. Lawler,  D. Lefrancois,  
 S. Lehtola,  Rain Li,  Yi-Pei Li,  Jiashu Liang,  M. Liebenthal,  
 Hung-Hsuan Lin,  You-Sheng Lin,  Fenglai Liu,  Kuan-Yu Liu,  
 M. Loipersberger,  A. Luenser,  A. Manjanath,  P. Manohar,  E. Mansoor,  
 S. F. Manzer,  Shan-Ping Mao,  A. V. Marenich,  T. Markovich,  S. Mason,  
 S. A. Maurer,  P. F. McLaughlin,  M. F. S. J. Menger,  J.-M. Mewes,  
 S. A. Mewes,  P. Morgante,  J. W. Mullinax,  K. J. Oosterbaan,  G. Paran,  
 Alexander C. Paul,  Suranjan K. Paul,  F. Pavosevic,  Zheng Pei,  S. Prager,  
 E. I. Proynov,  E. Ramos,  B. Rana,  A. E. Rask,  A. Rettig,  R. M. Richard,  
 F. Rob,  E. Rossomme,  T. Scheele,  M. Scheurer,  M. Schneider,  
 N. Sergueev,  S. M. Sharada,  W. Skomorowski,  D. W. Small,  C. J. Stein,  
 Yu-Chuan Su,  E. J. Sundstrom,  Zhen Tao,  J. Thirman,  T. Tsuchimochi,  
 N. M. Tubman,  S. P. Veccham,  O. Vydrov,  J. Wenzel,  J. Witte,  A. Yamada,  
 Kun Yao,  S. Yeganeh,  S. R. Yost,  A. Zech,  Igor Ying Zhang,  Xing Zhang,  
 Yu Zhang,  D. Zuev,  A. Aspuru-Guzik,  A. T. Bell,  N. A. Besley,  
 K. B. Bravaya,  B. R. Brooks,  D. Casanova,  Jeng-Da Chai,  S. Coriani,  
 C. J. Cramer,  A. E. DePrince, III,  R. A. DiStasio Jr.,  A. Dreuw,  
 B. D. Dunietz,  T. R. Furlani,  W. A. Goddard III,  S. Grimme,  
 S. Hammes-Schiffer,  T. Head-Gordon,  W. J. Hehre,  Chao-Ping Hsu,  
 T.-C. Jagau,  Yousung Jung,  A. Klamt,  Jing Kong,  D. S. Lambrecht,  
 WanZhen Liang,  N. J. Mayhall,  C. W. McCurdy,  J. B. Neaton,  
 C. Ochsenfeld,  J. A. Parkhill,  R. Peverati,  V. A. Rassolov,  Yihan Shao,  
 L. V. Slipchenko,  T. Stauch,  R. P. Steele,  J. E. Subotnik,  
 A. J. W. Thom,  A. Tkatchenko,  D. G. Truhlar,  T. Van Voorhis,  
 T. A. Wesolowski,  K. B. Whaley,  H. L. Woodcock III,  P. M. Zimmerman,  
 S. Faraji,  P. M. W. Gill,  M. Head-Gordon,  J. M. Herbert,  A. I. Krylov

 Additional authors for Version 5.4.1: 
 S. Kotaru,  Shaozhi Li,  Xiangyuan Li,  F. Matz,  A. Molle,  Haisheng Ren,  
 Yingli Su,  Hung-Yi Tsai,  C. Utku,  Fang Wang

 Contributors to earlier versions of Q-Chem not listed above: 
 R. D. Adamson,  B. Austin,  R. Baer,  J. Baker,  G. J. O. Beran,  
 K. Brandhorst,  S. T. Brown,  E. F. C. Byrd,  A. K. Chakraborty,  
 G. K. L. Chan,  Chun-Min Chang,  Yunqing Chen,  C.-L. Cheng,  
 Siu Hung Chien,  D. M. Chipman,  D. L. Crittenden,  H. Dachsel,  
 R. J. Doerksen,  A. D. Dutoi,  R. G. Edgar,  J. Fosso-Tande,  
 L. Fusti-Molnar,  D. Ghosh,  A. Ghysels,  A. Golubeva-Zadorozhnaya,  
 J. Gonthier,  M. S. Gordon,  S. R. Gwaltney,  G. Hawkins,  J. E. Herr,  
 A. Heyden,  S. Hirata,  E. G. Hohenstein,  G. Kedziora,  F. J. Keil,  
 C. Kelley,  Jihan Kim,  R. A. King,  R. Z. Khaliullin,  P. P. Korambath,  
 W. Kurlancheek,  A. Laurent,  A. M. Lee,  M. S. Lee,  S. V. Levchenko,  
 Ching Yeh Lin,  D. Liotard,  E. Livshits,  R. C. Lochan,  I. Lotan,  
 L. A. Martinez-Martinez,  P. E. Maslen,  N. Nair,  D. P. O'Neill,  
 D. Neuhauser,  E. Neuscamman,  C. M. Oana,  R. Olivares-Amaya,  R. Olson,  
 T. M. Perrine,  B. Peters,  P. A. Pieniazek,  A. Prociuk,  Y. M. Rhee,  
 J. Ritchie,  M. A. Rohrdanz,  E. Rosta,  N. J. Russ,  H. F. Schaefer III,  
 M. W. Schmidt,  N. E. Schultz,  S. Sharma,  N. Shenvi,  C. D. Sherrill,  
 A. C. Simmonett,  A. Sodt,  T. Stein,  D. Stuck,  K. S. Thanthiriwatte,  
 V. Vanovschi,  L. Vogt,  Tao Wang,  A. Warshel,  M. A. Watson,  
 C. F. Williams,  Q. Wu,  X. Xu,  Jun Yang,  W. Zhang,  Yan Zhao

 Please cite Q-Chem as follows:
 Y. Shao et al., Mol. Phys. 113, 184-215 (2015)
 DOI: 10.1080/00268976.2014.952696

 Q-Chem 5.4.1 for Intel X86 EM64T Linux

 Parts of Q-Chem use Armadillo 9.800.1 (Horizon Scraper).
 http://arma.sourceforge.net/

 Q-Chem begins on Thu Nov 17 15:43:00 2022  

 Host: cpu184.baobab
0

     Scratch files written to /scratch/fum/qchem28356//
 Processing $rem in /home/share/wesolowski/qc5.aug2021.FDE/config/preferences:
 Processing $rem in /home/fum/.qchemrc:

 Checking the input file for inconsistencies... 	...done.

--------------------------------------------------------------
User input:
--------------------------------------------------------------
$comment
generated from CCJob.Templates
$end

$rem
sym_ignore = true
method = adc(2)
ee_states = 10
basis = cc-pVDZ
mem_static = 1024
mem_total = 40000
adc_davidson_maxiter = 900
adc_davidson_conv = 6
adc_print = 3
adc_prop_es = true
adc_prop_es2es = true
adc_prop_tpa = true
molden_format = True
state_analysis = true
print_orbitals = 15
gen_scfman = false
fde_export_density = true
fde_details = 3
$end

$molecule
0 1
H -0.0348278765 -0.2442097827 0.0636489606
C -1.0765972949 -0.5242748755 -0.0023551776
H -1.313264467 -1.5767591607 -0.0757276926
C -2.043634118 0.3926884087 0.0061254933
H -1.8137616575 1.4459188338 0.0804456828
H -3.085977293 0.104931858 -0.0593381042                     
$end
--------------------------------------------------------------
 ----------------------------------------------------------------
             Standard Nuclear Orientation (Angstroms)
    I     Atom           X                Y                Z
 ----------------------------------------------------------------
    1      H      -0.0348278765    -0.2442097827     0.0636489606
    2      C      -1.0765972949    -0.5242748755    -0.0023551776
    3      H      -1.3132644670    -1.5767591607    -0.0757276926
    4      C      -2.0436341180     0.3926884087     0.0061254933
    5      H      -1.8137616575     1.4459188338     0.0804456828
    6      H      -3.0859772930     0.1049318580    -0.0593381042
 ----------------------------------------------------------------
 Nuclear Repulsion Energy =          33.41827131 hartrees
 There are        8 alpha and        8 beta electrons
 Requested basis set is cc-pVDZ
 There are 24 shells and 48 basis functions
 Total memory of 40000 MB is distributed as follows: 
   MEM_STATIC is set to 1024 MB
   QALLOC/CCMAN JOB total memory use is  38976 MB
 Warning: actual memory use might exceed 40000 MB

 Total QAlloc Memory Limit  40000 MB
 Mega-Array Size      1001 MB
 MEM_STATIC part      1024 MB

                       Distance Matrix (Angstroms)
             H (  1)   C (  2)   H (  3)   C (  4)   H (  5)
   C (  2)  1.080776
   H (  3)  1.851895  1.081258
   C (  4)  2.108139  1.332687  2.102109
   H (  5)  2.453859  2.105215  3.067812  1.080583
   H (  6)  3.073522  2.106361  2.443535  1.083314  1.853731

 A cutoff of  1.0D-11 yielded    300 shell pairs
 There are      1220 function pairs (      1329 Cartesian)
 Smallest overlap matrix eigenvalue = 4.80E-03

 Scale SEOQF with 1.000000e-01/1.000000e-01/1.000000e+00

 Standard Electronic Orientation quadrupole field applied
 Nucleus-field energy     =     0.0000000022 hartrees
 Guess from superposition of atomic densities
 Warning:  Energy on first SCF cycle will be non-variational
 SAD guess density has 16.000000 electrons
 A restricted Hartree-Fock SCF calculation will be
 performed using Pulay DIIS extrapolation
 SCF converges when DIIS error is below 1.0E-08
 using 10 threads for integral computing
 -------------------------------------------------------
 OpenMP Integral computing Module                
 Release: version 1.0, May 2013, Q-Chem Inc. Pittsburgh 
 -------------------------------------------------------
 ---------------------------------------
  Cycle       Energy         DIIS Error
 ---------------------------------------
    1     -78.4373027145      1.01E-01
    2     -78.0176791369      7.21E-03
    3     -78.0383081124      1.84E-03
    4     -78.0397911703      5.73E-04
    5     -78.0399129775      5.79E-05
    6     -78.0399148500      9.26E-06
    7     -78.0399149104      2.14E-06
    8     -78.0399149132      7.66E-07
    9     -78.0399149134      1.01E-07
   10     -78.0399149134      1.37E-08
   11     -78.0399149134      4.07E-09 Convergence criterion met
 ---------------------------------------
 SCF time:  CPU 1.50 s  wall 1.71 s
 SCF   energy in the final basis set = -78.03991491
 Total energy in the final basis set = -78.03991491
Exporting Density Matrix to file 'Densmat_SCF.txt'.
Export successful
================================================================================
|                                                                              |
|                                 A D C  M A N                                 |
|                                                                              |
 ------------------------------------------------------------------------------ 
|                                                                              |
| Components:                                                                  |
|                                                                              |
| - libvmm - 1.3-trunk                                                         |
|   Authors:                                                                   |
|   Evgeny Epifanovsky, Ilya Kaliman                                           |
|                                                                              |
| - libtensor - 2.5-trunk                                                      |
|   Authors:                                                                   |
|   Evgeny Epifanovsky, Michael Wormit, Dmitry Zuev, Sam Manzer,               |
|   Ilya Kaliman                                                               |
|                                                                              |
| - libwfa - 1.1-trunk                                                         |
|   Authors:                                                                   |
|   Felix Plasser, Stefanie Mewes (Baeppler), Benjamin Thomitzni,              |
|   Michael Wormit, Feng Chen, Anna I. Krylov, Pavel Pokhilko                  |
|                                                                              |
| - libadc - 1.1-trunk                                                         |
|   Authors:                                                                   |
|   Michael Wormit, Adrian L. Dempwolff, Philipp H. P. Harbach,                |
|   Caroline Krauter, Dirk Rehn, Matthias Schneider, Jan Wenzel                |
|                                                                              |
| - adcman - 2.6-trunk                                                         |
|   Authors:                                                                   |
|   Michael Wormit, Adrian L. Dempwolff, Philipp H. P. Harbach,                |
|   Caroline Krauter, Daniel Lefrancois, Jan-Michael Mewes, Dirk Rehn,         |
|   Matthias Schneider, Jan Wenzel, Andreas Dreuw                              |
|                                                                              |
| Authors of earlier versions of ADCMAN:                                       |
| Andreas Dreuw, Jan Hendrik Starcke, Dirk Rehn, Michael Wormit                |
|                                                                              |
================================================================================

 Created directory /scratch/fum/qchem28356/plots
  Import QC data ...  CPU 0.00 s  wall 0.00 s

 Alpha MOs, Restricted
 -- Occupied --                  
-11.235 -11.233  -1.032  -0.789  -0.641  -0.581  -0.505  -0.374
  1 A     2 A     3 A     4 A     5 A     6 A     7 A     8 A                  
 -- Virtual --                   
  0.168   0.204   0.233   0.240   0.303   0.461   0.577   0.616
  9 A    10 A    11 A    12 A    13 A    14 A    15 A    16 A                  
  0.689   0.708   0.784   0.808   0.862   0.936   0.972   1.009
 17 A    18 A    19 A    20 A    21 A    22 A    23 A    24 A                  
  1.130   1.235   1.257   1.266   1.293   1.601   1.723   1.748
 25 A    26 A    27 A    28 A    29 A    30 A    31 A    32 A                  
  1.819   1.861   1.867   1.923   1.976   1.978   2.219   2.257
 33 A    34 A    35 A    36 A    37 A    38 A    39 A    40 A                  
  2.376   2.454   2.503   2.629   2.721   2.819   3.141   3.395
 41 A    42 A    43 A    44 A    45 A    46 A    47 A    48 A                  

 Beta MOs, Restricted
 -- Occupied --                  
-11.235 -11.233  -1.032  -0.789  -0.641  -0.581  -0.505  -0.374
  1 A     2 A     3 A     4 A     5 A     6 A     7 A     8 A                  
 -- Virtual --                   
  0.168   0.204   0.233   0.240   0.303   0.461   0.577   0.616
  9 A    10 A    11 A    12 A    13 A    14 A    15 A    16 A                  
  0.689   0.708   0.784   0.808   0.862   0.936   0.972   1.009
 17 A    18 A    19 A    20 A    21 A    22 A    23 A    24 A                  
  1.130   1.235   1.257   1.266   1.293   1.601   1.723   1.748
 25 A    26 A    27 A    28 A    29 A    30 A    31 A    32 A                  
  1.819   1.861   1.867   1.923   1.976   1.978   2.219   2.257
 33 A    34 A    35 A    36 A    37 A    38 A    39 A    40 A                  
  2.376   2.454   2.503   2.629   2.721   2.819   3.141   3.395
 41 A    42 A    43 A    44 A    45 A    46 A    47 A    48 A                  
  Import AO data ...  CPU 0.00 s  wall 0.00 s
  Using point group: C1
  Irreducible representations in point group: A
  Molecular orbitals: 
  Occupied MOs:
  Block   0:   1 (  A) A   2 (  A) A   3 (  A) A   4 (  A) A   5 (  A) A
                  -11.24      -11.23      -1.032     -0.7892     -0.6414
               6 (  A) A   7 (  A) A   8 (  A) A
                 -0.5812     -0.5047      -0.374
  Block   1:   1 (  A) B   2 (  A) B   3 (  A) B   4 (  A) B   5 (  A) B
                  -11.24      -11.23      -1.032     -0.7892     -0.6414
               6 (  A) B   7 (  A) B   8 (  A) B
                 -0.5812     -0.5047      -0.374
  Virtual MOs:
  Block   0:   9 (  A) A  10 (  A) A  11 (  A) A  12 (  A) A  13 (  A) A
                  0.1685      0.2035      0.2328      0.2395      0.3032
              14 (  A) A  15 (  A) A  16 (  A) A  17 (  A) A  18 (  A) A
                  0.4615       0.577      0.6162      0.6892      0.7082
              19 (  A) A  20 (  A) A  21 (  A) A  22 (  A) A
                  0.7844       0.808      0.8622      0.9357
  Block   1:  23 (  A) A  24 (  A) A  25 (  A) A  26 (  A) A  27 (  A) A
                  0.9721       1.009        1.13       1.235       1.257
              28 (  A) A  29 (  A) A  30 (  A) A  31 (  A) A  32 (  A) A
                   1.266       1.293       1.601       1.723       1.748
              33 (  A) A  34 (  A) A  35 (  A) A  36 (  A) A
                   1.819       1.861       1.867       1.923
  Block   2:  37 (  A) A  38 (  A) A  39 (  A) A  40 (  A) A  41 (  A) A
                   1.976       1.978       2.219       2.257       2.376
              42 (  A) A  43 (  A) A  44 (  A) A  45 (  A) A  46 (  A) A
                   2.454       2.503       2.629       2.721       2.819
              47 (  A) A  48 (  A) A
                   3.141       3.395
  Block   3:   9 (  A) B  10 (  A) B  11 (  A) B  12 (  A) B  13 (  A) B
                  0.1685      0.2035      0.2328      0.2395      0.3032
              14 (  A) B  15 (  A) B  16 (  A) B  17 (  A) B  18 (  A) B
                  0.4615       0.577      0.6162      0.6892      0.7082
              19 (  A) B  20 (  A) B  21 (  A) B  22 (  A) B
                  0.7844       0.808      0.8622      0.9357
  Block   4:  23 (  A) B  24 (  A) B  25 (  A) B  26 (  A) B  27 (  A) B
                  0.9721       1.009        1.13       1.235       1.257
              28 (  A) B  29 (  A) B  30 (  A) B  31 (  A) B  32 (  A) B
                   1.266       1.293       1.601       1.723       1.748
              33 (  A) B  34 (  A) B  35 (  A) B  36 (  A) B
                   1.819       1.861       1.867       1.923
  Block   5:  37 (  A) B  38 (  A) B  39 (  A) B  40 (  A) B  41 (  A) B
                   1.976       1.978       2.219       2.257       2.376
              42 (  A) B  43 (  A) B  44 (  A) B  45 (  A) B  46 (  A) B
                   2.454       2.503       2.629       2.721       2.819
              47 (  A) B  48 (  A) B
                   3.141       3.395
  Import MO data ...  CPU 0.01 s  wall 0.00 s
  Import HF data ...  CPU 0.08 s  wall 0.03 s
  Import 2e integrals ...  CPU 0.70 s  wall 0.15 s

--------------------------------------------------------------------------------
                                   HF Summary                                   
--------------------------------------------------------------------------------
  Energy:                                                  -78.0399149134 a.u.
  Dip. moment [a.u.]:                  [   0.000377,   -0.000035,    0.000635]
  Total dipole [Debye]:                                               0.001880
  <r^2> [a.u.]:                        [ 175.337394,   34.905761,   11.628757]
  Total <r^2> [a.u.]:                                               221.871912
--------------------------------------------------------------------------------
  HF properties ...  CPU 0.01 s  wall 0.01 s
  MP(1) calculation ...  CPU 0.01 s  wall 0.00 s
  N^6 prerequesite intermediates ...  CPU 0.52 s  wall 0.07 s
  Difference density matrix of state mp2_gs printed to ASCII file 'State_mp2_gs_Difference.txt'
Exporting MP density matrix to file 'Densmat_MP.txt'.
Export successful
  Total density matrix of state mp2_gs printed to ASCII file 'State_mp2_gs_Total.txt'
Exporting MP density matrix to file 'Densmat_MP.txt'.
Export successful

--------------------------------------------------------------------------------
                                 MP(2) Summary                                  
--------------------------------------------------------------------------------
  MP energy contribution:                                   -0.2797481370 a.u.
  Total energy:                                            -78.3196630504 a.u.
  Dip. moment [a.u.]:                  [   0.000202,   -0.000201,    0.000609]
  Total dipole [Debye]:                                               0.001709
  <r^2> [a.u.]:                        [ 175.382331,   34.946761,   11.460394]
  Total <r^2> [a.u.]:                                               221.789487

  Density matrix analysis:
  ------------------------
  NOs
    Occupation of frontier NOs:
       0.0453   1.9383
    Number of electrons: 16.000000
    Number of unpaired electrons: n_u =  0.40359, n_u,nl =  0.04511
    NO participation ratio (PR_NO): 13.859930
  
  
  Mulliken Population Analysis
  Atom      Charge (e)              h+              e-           Del q
  --------------------------------------------------------------------
   1 H        0.050762        0.014046       -0.011202        0.002844
   2 C       -0.100929        0.093118       -0.098874       -0.005756
   3 H        0.050440        0.014080       -0.011191        0.002889
   4 C       -0.102020        0.093271       -0.098928       -0.005657
   5 H        0.050545        0.014061       -0.011202        0.002859
   6 H        0.051202        0.014024       -0.011204        0.002821
  --------------------------------------------------------------------
  Sum:        0.000000        0.242601       -0.242601       -0.000000
  
  Multipole moment analysis of the density matrix
    Molecular charge:                      0.000000
    Number of electrons:                   16.000000
      Center of electronic charge [Ang]: [ -1.560583,  -0.066221,   0.001958]
    Total nuclear charge:                  16.000000
      Center of nuclear charge [Ang]:    [ -1.560576,  -0.066227,   0.001978]
    Dipole moment [D]:                     0.001709
      Cartesian components [D]:          [  0.000513,  -0.000511,   0.001548]
    RMS size of the density [Ang]:         1.200793
      Cartesian components [Ang]:        [  0.796294,   0.779260,   0.447854]
  
  Exciton analysis of the difference density matrix
    <r_h> [Ang]:                  [ -1.561064,  -0.066332,   0.001829]
    <r_e> [Ang]:                  [ -1.560681,  -0.065969,   0.001887]
    |<r_e - r_h>| [Ang]:            0.000530
    Hole size [Ang]:                1.393783
      Cartesian components [Ang]: [  0.847094,   0.833789,   0.727914]
    Electron size [Ang]:            1.359680
      Cartesian components [Ang]: [  0.877856,   0.861729,   0.579242]
--------------------------------------------------------------------------------
  MP(2) calculation ...  CPU 0.13 s  wall 0.11 s
  Start ADC(2)-s ...  CPU 0.01 s  wall 0.00 s
  ADC(2) intermediates ...  CPU 0.02 s  wall 0.01 s
  Starting Davidson for singlet states of irrep A ... 
--------------------------------------------------------------------------------
   It NVec Conv  Avg. Norm  Max. Norm  Conv. states           Remark
--------------------------------------------------------------------------------
        10    0  1.330e-01  4.683e-01  0.4116 n n n n n n n n Guess.
    1   20    0  2.298e-02  1.106e-01  0.3263 n n n n n n n n 
    2   30    0  5.805e-03  2.449e-02  0.3215 n n n n n n n n 
    3   40    0  1.796e-03  1.037e-02  0.3211 n n n n n n n n 
    4   50    0  5.614e-04  3.750e-03  0.3211 n n n n n n n n 
    5   20    0  2.670e-04  1.903e-03  0.3211 n n n n n n n n Subspace collapsed.
    6   30    0  1.322e-04  1.044e-03  0.3211 n n n n n n n n 
    7   40    0  9.034e-05  7.267e-04  0.3211 n n n n n n n n 
    8   50    0  5.872e-05  4.916e-04  0.3211 n n n n n n n n 
    9   20    2  3.665e-05  3.238e-04  0.3211 n y n y n n n n Subspace collapsed.
   10   30    4  4.216e-05  3.848e-04  0.3211 n y y y y n n n 
   11   40    5  3.860e-05  3.777e-04  0.3211 n y y y y y n n 
   12   50    6  2.914e-05  2.897e-04  0.3211 y y y y y y n n 
   13   20    6  1.331e-05  1.320e-04  0.3211 y y y y y y n n Subspace collapsed.
   14   30    6  8.892e-06  8.763e-05  0.3211 y y y y y y n n 
   15   40    6  3.888e-06  3.681e-05  0.3211 y y y y y y n n 
   16   50    7  4.362e-06  4.311e-05  0.3211 y y y y y y n y 
   17   20    7  2.600e-06  2.555e-05  0.3211 y y y y y y n y Subspace collapsed.
   18   30    7  4.423e-06  4.412e-05  0.3211 y y y y y y n y 
   19   40    7  4.564e-06  4.561e-05  0.3211 y y y y y y n y 
   20   50    9  3.127e-06  3.126e-05  0.3211 y y y y y y y y 
   21   20    9  1.535e-06  1.535e-05  0.3211 y y y y y y y y Subspace collapsed.
   22   30    9  8.827e-07  8.823e-06  0.3211 y y y y y y y y 
   23   32    9  8.802e-07  8.798e-06  0.3211 y y y y y y y y 
   24   40    9  4.797e-07  4.796e-06  0.3211 y y y y y y y y 
   25   48    9  4.183e-07  4.182e-06  0.3211 y y y y y y y y 
   26   50    9  3.952e-07  3.952e-06  0.3211 y y y y y y y y 
   27   16    9  3.232e-07  3.231e-06  0.3211 y y y y y y y y Subspace collapsed.
   28   21    9  4.651e-07  4.651e-06  0.3211 y y y y y y y y 
   29   26    9  5.050e-07  5.050e-06  0.3211 y y y y y y y y 
   30   26    9  5.050e-07  5.050e-06  0.3211 y y y y y y y y 
   31   36    9  3.766e-07  3.766e-06  0.3211 y y y y y y y y 
   32   40    9  2.562e-07  2.562e-06  0.3211 y y y y y y y y 
   33   44    9  1.273e-07  1.273e-06  0.3211 y y y y y y y y 
   34   48   10  5.069e-08  5.069e-07  0.3211 y y y y y y y y Converged.
--------------------------------------------------------------------------------
  Davidson Summary: 
 ------------------------------------------------------------
  State  0: excitation energy =   0.3211 a.u.   (converged)
  State  1: excitation energy =   0.3329 a.u.   (converged)
  State  2: excitation energy =   0.3367 a.u.   (converged)
  State  3: excitation energy =   0.3612 a.u.   (converged)
  State  4: excitation energy =   0.3750 a.u.   (converged)
  State  5: excitation energy =   0.3870 a.u.   (converged)
  State  6: excitation energy =   0.4245 a.u.   (converged)
  State  7: excitation energy =   0.4472 a.u.   (converged)
  State  8: excitation energy =   0.4565 a.u.   (converged)
  State  9: excitation energy =   0.4647 a.u.   (converged)
 ------------------------------------------------------------

  Singlet states of irrep A ...  CPU 86.60 s  wall 29.87 s
  TDMs ...  CPU 0.67 s  wall 0.28 s
  SDMs ...  CPU 1.48 s  wall 0.52 s
  Starting TPA DIIS iterations ... 
------------------------------------ 
   It     Res. Norm  Remark
------------------------------------
                       Guess.
    1     4.402e+00  
    2     5.836e+00  
    3     1.078e+00  
    4     2.574e-01  
    5     6.578e-02  
    6     2.679e-02  
    7     8.243e-03  
    8     1.446e-03  
    9     5.352e-04  
   10     9.022e-05  
   11     2.828e-05  
   12     4.369e-06  
   13     1.408e-06  
   14     4.230e-07  Converged.
   ... Converged in 14 steps (norm: 4.23032e-07)
------------------------------------
  Starting TPA DIIS iterations ... 
------------------------------------ 
   It     Res. Norm  Remark
------------------------------------
                       Guess.
    1     4.184e+00  
    2     5.539e+00  
    3     1.028e+00  
    4     2.552e-01  
    5     6.539e-02  
    6     2.667e-02  
    7     8.099e-03  
    8     1.451e-03  
    9     5.366e-04  
   10     8.959e-05  
   11     2.829e-05  
   12     4.306e-06  
   13     1.415e-06  
   14     4.146e-07  Converged.
   ... Converged in 14 steps (norm: 4.14575e-07)
------------------------------------
  Starting TPA DIIS iterations ... 
------------------------------------ 
   It     Res. Norm  Remark
------------------------------------
                       Guess.
    1     6.891e-01  
    2     4.834e-01  
    3     1.703e-01  
    4     5.937e-02  
    5     1.843e-02  
    6     6.674e-03  
    7     1.044e-03  
    8     4.504e-04  
    9     1.246e-04  
   10     3.004e-05  
   11     5.686e-06  
   12     1.735e-06  
   13     1.073e-06  
   14     4.302e-07  Converged.
   ... Converged in 14 steps (norm: 4.30243e-07)
------------------------------------
  Starting TPA DIIS iterations ... 
------------------------------------ 
   It     Res. Norm  Remark
------------------------------------
                       Guess.
    1     4.693e+00  
    2     6.359e+00  
    3     1.160e+00  
    4     2.864e-01  
    5     7.423e-02  
    6     3.049e-02  
    7     9.365e-03  
    8     1.640e-03  
    9     6.116e-04  
   10     1.037e-04  
   11     3.283e-05  
   12     5.115e-06  
   13     1.660e-06  
   14     4.976e-07  Converged.
   ... Converged in 14 steps (norm: 4.97646e-07)
------------------------------------
  Starting TPA DIIS iterations ... 
------------------------------------ 
   It     Res. Norm  Remark
------------------------------------
                       Guess.
    1     4.460e+00  
    2     6.034e+00  
    3     1.106e+00  
    4     2.838e-01  
    5     7.381e-02  
    6     3.037e-02  
    7     9.204e-03  
    8     1.647e-03  
    9     6.134e-04  
   10     1.030e-04  
   11     3.282e-05  
   12     5.037e-06  
   13     1.668e-06  
   14     4.874e-07  Converged.
   ... Converged in 14 steps (norm: 4.87428e-07)
------------------------------------
  Starting TPA DIIS iterations ... 
------------------------------------ 
   It     Res. Norm  Remark
------------------------------------
                       Guess.
    1     7.014e-01  
    2     5.010e-01  
    3     1.803e-01  
    4     6.726e-02  
    5     1.988e-02  
    6     7.302e-03  
    7     1.180e-03  
    8     5.323e-04  
    9     1.511e-04  
   10     3.456e-05  
   11     6.514e-06  
   12     2.060e-06  
   13     1.357e-06  
   14     5.350e-07  Converged.
   ... Converged in 14 steps (norm: 5.34995e-07)
------------------------------------
  Starting TPA DIIS iterations ... 
------------------------------------ 
   It     Res. Norm  Remark
------------------------------------
                       Guess.
    1     4.792e+00  
    2     6.540e+00  
    3     1.188e+00  
    4     2.966e-01  
    5     7.720e-02  
    6     3.180e-02  
    7     9.759e-03  
    8     1.708e-03  
    9     6.386e-04  
   10     1.084e-04  
   11     3.446e-05  
   12     5.381e-06  
   13     1.751e-06  
   14     5.243e-07  Converged.
   ... Converged in 14 steps (norm: 5.24307e-07)
------------------------------------
  Starting TPA DIIS iterations ... 
------------------------------------ 
   It     Res. Norm  Remark
------------------------------------
                       Guess.
    1     4.554e+00  
    2     6.206e+00  
    3     1.133e+00  
    4     2.938e-01  
    5     7.676e-02  
    6     3.168e-02  
    7     9.592e-03  
    8     1.715e-03  
    9     6.404e-04  
   10     1.077e-04  
   11     3.443e-05  
   12     5.298e-06  
   13     1.759e-06  
   14     5.135e-07  Converged.
   ... Converged in 14 steps (norm: 5.13473e-07)
------------------------------------
  Starting TPA DIIS iterations ... 
------------------------------------ 
   It     Res. Norm  Remark
------------------------------------
                       Guess.
    1     7.054e-01  
    2     5.068e-01  
    3     1.836e-01  
    4     7.007e-02  
    5     2.036e-02  
    6     7.523e-03  
    7     1.229e-03  
    8     5.619e-04  
    9     1.607e-04  
   10     3.587e-05  
   11     6.803e-06  
   12     2.178e-06  
   13     1.465e-06  
   14     5.745e-07  Converged.
   ... Converged in 14 steps (norm: 5.74474e-07)
------------------------------------
  Starting TPA DIIS iterations ... 
------------------------------------ 
   It     Res. Norm  Remark
------------------------------------
                       Guess.
    1     5.536e+00  
    2     7.926e+00  
    3     1.397e+00  
    4     3.773e-01  
    5     1.007e-01  
    6     4.224e-02  
    7     1.288e-02  
    8     2.245e-03  
    9     8.539e-04  
   10     1.465e-04  
   11     4.769e-05  
   12     7.552e-06  
   13     2.508e-06  
   14     7.433e-07  Converged.
   ... Converged in 14 steps (norm: 7.43295e-07)
------------------------------------
  Starting TPA DIIS iterations ... 
------------------------------------ 
   It     Res. Norm  Remark
------------------------------------
                       Guess.
    1     5.258e+00  
    2     7.520e+00  
    3     1.331e+00  
    4     3.730e-01  
    5     1.001e-01  
    6     4.214e-02  
    7     1.267e-02  
    8     2.258e-03  
    9     8.566e-04  
   10     1.455e-04  
   11     4.758e-05  
   12     7.425e-06  
   13     2.519e-06  
   14     7.278e-07  Converged.
   ... Converged in 14 steps (norm: 7.2781e-07)
------------------------------------
  Starting TPA DIIS iterations ... 
------------------------------------ 
   It     Res. Norm  Remark
------------------------------------
                       Guess.
    1     7.325e-01  
    2     5.485e-01  
    3     2.082e-01  
    4     9.306e-02  
    5     2.395e-02  
    6     9.273e-03  
    7     1.631e-03  
    8     8.038e-04  
    9     2.377e-04  
   10     4.174e-05  
   11     9.105e-06  
   12     3.176e-06  
   13     2.451e-06  
   14     9.344e-07  Converged.
   ... Converged in 14 steps (norm: 9.34435e-07)
------------------------------------
  Starting TPA DIIS iterations ... 
------------------------------------ 
   It     Res. Norm  Remark
------------------------------------
                       Guess.
    1     6.040e+00  
    2     8.898e+00  
    3     1.538e+00  
    4     4.361e-01  
    5     1.178e-01  
    6     4.994e-02  
    7     1.516e-02  
    8     2.635e-03  
    9     1.013e-03  
   10     1.745e-04  
   11     5.766e-05  
   12     9.186e-06  
   13     3.095e-06  
   14     9.114e-07  Converged.
   ... Converged in 14 steps (norm: 9.11358e-07)
------------------------------------
  Starting TPA DIIS iterations ... 
------------------------------------ 
   It     Res. Norm  Remark
------------------------------------
                       Guess.
    1     5.736e+00  
    2     8.442e+00  
    3     1.464e+00  
    4     4.307e-01  
    5     1.172e-01  
    6     4.987e-02  
    7     1.491e-02  
    8     2.652e-03  
    9     1.016e-03  
   10     1.734e-04  
   11     5.745e-05  
   12     9.025e-06  
   13     3.104e-06  
   14     8.929e-07  Converged.
   ... Converged in 14 steps (norm: 8.92927e-07)
------------------------------------
  Starting TPA DIIS iterations ... 
------------------------------------ 
   It     Res. Norm  Remark
------------------------------------
                       Guess.
    1     7.487e-01  
    2     5.748e-01  
    3     2.243e-01  
    4     1.104e-01  
    5     2.641e-02  
    6     1.056e-02  
    7     1.940e-03  
    8     9.763e-04  
    9     2.915e-04  
   10     4.296e-05  
   11     1.084e-05  
   12     3.961e-06  
   13     3.303e-06  
   14     1.247e-06  
   15     4.242e-07  Converged.
   ... Converged in 15 steps (norm: 4.24178e-07)
------------------------------------
  Starting TPA DIIS iterations ... 
------------------------------------ 
   It     Res. Norm  Remark
------------------------------------
                       Guess.
    1     6.539e+00  
    2     9.885e+00  
    3     1.676e+00  
    4     4.974e-01  
    5     1.355e-01  
    6     5.803e-02  
    7     1.753e-02  
    8     3.040e-03  
    9     1.179e-03  
   10     2.040e-04  
   11     6.821e-05  
   12     1.092e-05  
   13     3.726e-06  
   14     1.094e-06  
   15     3.891e-07  Converged.
   ... Converged in 15 steps (norm: 3.89052e-07)
------------------------------------
  Starting TPA DIIS iterations ... 
------------------------------------ 
   It     Res. Norm  Remark
------------------------------------
                       Guess.
    1     6.209e+00  
    2     9.377e+00  
    3     1.596e+00  
    4     4.905e-01  
    5     1.349e-01  
    6     5.798e-02  
    7     1.724e-02  
    8     3.061e-03  
    9     1.183e-03  
   10     2.026e-04  
   11     6.789e-05  
   12     1.072e-05  
   13     3.734e-06  
   14     1.073e-06  
   15     3.577e-07  Converged.
   ... Converged in 15 steps (norm: 3.57675e-07)
------------------------------------
  Starting TPA DIIS iterations ... 
------------------------------------ 
   It     Res. Norm  Remark
------------------------------------
                       Guess.
    1     7.633e-01  
    2     5.995e-01  
    3     2.397e-01  
    4     1.289e-01  
    5     2.890e-02  
    6     1.191e-02  
    7     2.275e-03  
    8     1.143e-03  
    9     3.439e-04  
   10     4.345e-05  
   11     1.274e-05  
   12     4.818e-06  
   13     4.290e-06  
   14     1.613e-06  
   15     5.389e-07  Converged.
   ... Converged in 15 steps (norm: 5.38936e-07)
------------------------------------
  Starting TPA DIIS iterations ... 
------------------------------------ 
   It     Res. Norm  Remark
------------------------------------
                       Guess.
    1     8.640e+00  
    2     1.428e+01  
    3     2.249e+00  
    4     7.827e-01  
    5     2.185e-01  
    6     9.652e-02  
    7     2.859e-02  
    8     4.918e-03  
    9     1.968e-03  
   10     3.430e-04  
   11     1.181e-04  
   12     1.914e-05  
   13     6.784e-06  
   14     2.057e-06  
   15     7.849e-07  Converged.
   ... Converged in 15 steps (norm: 7.8492e-07)
------------------------------------
  Starting TPA DIIS iterations ... 
------------------------------------ 
   It     Res. Norm  Remark
------------------------------------
                       Guess.
    1     8.200e+00  
    2     1.355e+01  
    3     2.139e+00  
    4     7.688e-01  
    5     2.176e-01  
    6     9.666e-02  
    7     2.813e-02  
    8     4.960e-03  
    9     1.973e-03  
   10     3.406e-04  
   11     1.171e-04  
   12     1.879e-05  
   13     6.764e-06  
   14     2.030e-06  
   15     6.759e-07  Converged.
   ... Converged in 15 steps (norm: 6.75887e-07)
------------------------------------
  Starting TPA DIIS iterations ... 
------------------------------------ 
   It     Res. Norm  Remark
------------------------------------
                       Guess.
    1     8.135e-01  
    2     6.930e-01  
    3     3.012e-01  
    4     2.168e-01  
    5     4.022e-02  
    6     1.816e-02  
    7     3.952e-03  
    8     1.677e-03  
    9     5.459e-04  
   10     5.320e-05  
   11     2.261e-05  
   12     9.167e-06  
   13     9.851e-06  
   14     3.808e-06  
   15     1.416e-06  
   16     9.060e-07  Converged.
   ... Converged in 16 steps (norm: 9.05996e-07)
------------------------------------
  Starting TPA DIIS iterations ... 
------------------------------------ 
   It     Res. Norm  Remark
------------------------------------
                       Guess.
    1     1.049e+01  
    2     1.843e+01  
    3     2.739e+00  
    4     1.062e+00  
    5     3.005e-01  
    6     1.355e-01  
    7     3.952e-02  
    8     6.759e-03  
    9     2.762e-03  
   10     4.816e-04  
   11     1.660e-04  
   12     2.740e-05  
   13     9.815e-06  
   14     3.177e-06  
   15     1.291e-06  
   16     3.443e-07  Converged.
   ... Converged in 16 steps (norm: 3.44294e-07)
------------------------------------
  Starting TPA DIIS iterations ... 
------------------------------------ 
   It     Res. Norm  Remark
------------------------------------
                       Guess.
    1     9.951e+00  
    2     1.748e+01  
    3     2.605e+00  
    4     1.040e+00  
    5     2.994e-01  
    6     1.358e-01  
    7     3.889e-02  
    8     6.823e-03  
    9     2.768e-03  
   10     4.779e-04  
   11     1.645e-04  
   12     2.696e-05  
   13     9.746e-06  
   14     3.142e-06  
   15     1.050e-06  
   16     2.625e-07  Converged.
   ... Converged in 16 steps (norm: 2.62454e-07)
------------------------------------
  Starting TPA DIIS iterations ... 
------------------------------------ 
   It     Res. Norm  Remark
------------------------------------
                       Guess.
    1     8.476e-01  
    2     7.648e-01  
    3     3.510e-01  
    4     2.997e-01  
    5     5.110e-02  
    6     2.400e-02  
    7     5.678e-03  
    8     1.899e-03  
    9     7.035e-04  
   10     7.360e-05  
   11     3.368e-05  
   12     1.378e-05  
   13     1.631e-05  
   14     6.615e-06  
   15     2.985e-06  
   16     1.692e-06  
   17     5.707e-07  Converged.
   ... Converged in 17 steps (norm: 5.70708e-07)
------------------------------------
  Starting TPA DIIS iterations ... 
------------------------------------ 
   It     Res. Norm  Remark
------------------------------------
                       Guess.
    1     1.142e+01  
    2     2.063e+01  
    3     2.983e+00  
    4     1.211e+00  
    5     3.448e-01  
    6     1.568e-01  
    7     4.541e-02  
    8     7.751e-03  
    9     3.195e-03  
   10     5.566e-04  
   11     1.910e-04  
   12     3.196e-05  
   13     1.150e-05  
   14     3.840e-06  
   15     1.639e-06  
   16     4.638e-07  Converged.
   ... Converged in 16 steps (norm: 4.63783e-07)
------------------------------------
  Starting TPA DIIS iterations ... 
------------------------------------ 
   It     Res. Norm  Remark
------------------------------------
                       Guess.
    1     1.084e+01  
    2     1.956e+01  
    3     2.836e+00  
    4     1.185e+00  
    5     3.435e-01  
    6     1.573e-01  
    7     4.470e-02  
    8     7.826e-03  
    9     3.201e-03  
   10     5.523e-04  
   11     1.893e-04  
   12     3.149e-05  
   13     1.139e-05  
   14     3.795e-06  
   15     1.307e-06  
   16     3.291e-07  Converged.
   ... Converged in 16 steps (norm: 3.2912e-07)
------------------------------------
  Starting TPA DIIS iterations ... 
------------------------------------ 
   It     Res. Norm  Remark
------------------------------------
                       Guess.
    1     8.624e-01  
    2     7.986e-01  
    3     3.750e-01  
    4     3.409e-01  
    5     5.685e-02  
    6     2.693e-02  
    7     6.607e-03  
    8     1.958e-03  
    9     7.792e-04  
   10     8.575e-05  
   11     4.006e-05  
   12     1.640e-05  
   13     2.011e-05  
   14     8.349e-06  
   15     4.082e-06  
   16     2.189e-06  
   17     7.797e-07  Converged.
   ... Converged in 17 steps (norm: 7.79732e-07)
------------------------------------
  Starting TPA DIIS iterations ... 
------------------------------------ 
   It     Res. Norm  Remark
------------------------------------
                       Guess.
    1     1.237e+01  
    2     2.291e+01  
    3     3.227e+00  
    4     1.366e+00  
    5     3.912e-01  
    6     1.793e-01  
    7     5.160e-02  
    8     8.790e-03  
    9     3.652e-03  
   10     6.353e-04  
   11     2.169e-04  
   12     3.684e-05  
   13     1.334e-05  
   14     4.575e-06  
   15     2.073e-06  
   16     6.223e-07  Converged.
   ... Converged in 16 steps (norm: 6.22339e-07)
------------------------------------
  Starting TPA DIIS iterations ... 
------------------------------------ 
   It     Res. Norm  Remark
------------------------------------
                       Guess.
    1     1.174e+01  
    2     2.173e+01  
    3     3.068e+00  
    4     1.335e+00  
    5     3.899e-01  
    6     1.800e-01  
    7     5.079e-02  
    8     8.876e-03  
    9     3.659e-03  
   10     6.302e-04  
   11     2.150e-04  
   12     3.636e-05  
   13     1.317e-05  
   14     4.512e-06  
   15     1.630e-06  
   16     4.069e-07  Converged.
   ... Converged in 16 steps (norm: 4.06897e-07)
------------------------------------
  Starting TPA DIIS iterations ... 
------------------------------------ 
   It     Res. Norm  Remark
------------------------------------
                       Guess.
    1     8.762e-01  
    2     8.313e-01  
    3     3.987e-01  
    4     3.809e-01  
    5     6.278e-02  
    6     2.980e-02  
    7     7.570e-03  
    8     2.000e-03  
    9     8.537e-04  
   10     9.854e-05  
   11     4.703e-05  
   12     1.930e-05  
   13     2.438e-05  
   14     1.031e-05  
   15     5.380e-06  
   16     2.751e-06  
   17     1.029e-06  
   18     4.067e-07  Converged.
   ... Converged in 18 steps (norm: 4.06719e-07)
------------------------------------
  Two-photon absorbption ...  CPU 70.71 s  wall 17.96 s
  Transition density matrix of state singlet_A_1 printed to ASCII file 'State_singlet_A_1_Transition.txt'
  Transition density matrix of state singlet_A_2 printed to ASCII file 'State_singlet_A_2_Transition.txt'
  Transition density matrix of state singlet_A_3 printed to ASCII file 'State_singlet_A_3_Transition.txt'
  Transition density matrix of state singlet_A_4 printed to ASCII file 'State_singlet_A_4_Transition.txt'
  Transition density matrix of state singlet_A_5 printed to ASCII file 'State_singlet_A_5_Transition.txt'
  Transition density matrix of state singlet_A_6 printed to ASCII file 'State_singlet_A_6_Transition.txt'
  Transition density matrix of state singlet_A_7 printed to ASCII file 'State_singlet_A_7_Transition.txt'
  Transition density matrix of state singlet_A_8 printed to ASCII file 'State_singlet_A_8_Transition.txt'
  Transition density matrix of state singlet_A_9 printed to ASCII file 'State_singlet_A_9_Transition.txt'
  Transition density matrix of state singlet_A_10 printed to ASCII file 'State_singlet_A_10_Transition.txt'
  Transition properties ...  CPU 0.16 s  wall 0.40 s
  Difference density matrix of state singlet_A_1 printed to ASCII file 'State_singlet_A_1_Difference.txt'
  Total density matrix of state singlet_A_1 printed to ASCII file 'State_singlet_A_1_Total.txt'
  Difference density matrix of state singlet_A_2 printed to ASCII file 'State_singlet_A_2_Difference.txt'
  Total density matrix of state singlet_A_2 printed to ASCII file 'State_singlet_A_2_Total.txt'
  Difference density matrix of state singlet_A_3 printed to ASCII file 'State_singlet_A_3_Difference.txt'
  Total density matrix of state singlet_A_3 printed to ASCII file 'State_singlet_A_3_Total.txt'
  Difference density matrix of state singlet_A_4 printed to ASCII file 'State_singlet_A_4_Difference.txt'
  Total density matrix of state singlet_A_4 printed to ASCII file 'State_singlet_A_4_Total.txt'
  Difference density matrix of state singlet_A_5 printed to ASCII file 'State_singlet_A_5_Difference.txt'
  Total density matrix of state singlet_A_5 printed to ASCII file 'State_singlet_A_5_Total.txt'
  Difference density matrix of state singlet_A_6 printed to ASCII file 'State_singlet_A_6_Difference.txt'
  Total density matrix of state singlet_A_6 printed to ASCII file 'State_singlet_A_6_Total.txt'
  Difference density matrix of state singlet_A_7 printed to ASCII file 'State_singlet_A_7_Difference.txt'
  Total density matrix of state singlet_A_7 printed to ASCII file 'State_singlet_A_7_Total.txt'
  Difference density matrix of state singlet_A_8 printed to ASCII file 'State_singlet_A_8_Difference.txt'
  Total density matrix of state singlet_A_8 printed to ASCII file 'State_singlet_A_8_Total.txt'
  Difference density matrix of state singlet_A_9 printed to ASCII file 'State_singlet_A_9_Difference.txt'
  Total density matrix of state singlet_A_9 printed to ASCII file 'State_singlet_A_9_Total.txt'
  Difference density matrix of state singlet_A_10 printed to ASCII file 'State_singlet_A_10_Difference.txt'
  Total density matrix of state singlet_A_10 printed to ASCII file 'State_singlet_A_10_Total.txt'
  Properties ...  CPU 0.31 s  wall 0.56 s
  ISR TDMS ...  CPU 8.91 s  wall 3.17 s
  ISR transition properties ...  CPU 0.17 s  wall 0.08 s
  Sum-over-states TPA ...  CPU 0.00 s  wall 0.00 s

--------------------------------------------------------------------------------
                   State-averaged natural transition orbitals
--------------------------------------------------------------------------------
--------------------------------------------------------------------------------
  SA-NTO decomposition ...  CPU 0.01 s  wall 0.02 s

--------------------------------------------------------------------------------
                             Excited State Summary
--------------------------------------------------------------------------------
--------------------------------------------------------------------------------

  Excited state 1 (singlet, A)                                     [converged]
  ----------------------------------------------------------------------------
  Term symbol:  2 (1) A                                     R^2 =  1.83631e-13

  Total energy:                                            -77.9985507195 a.u.
  Excitation energy:                                               8.737911 eV

  Osc. strength:                                                      0.445773
  Trans. dip. moment [a.u.]:           [  -1.046688,    0.993319,    0.009141]
  <i|r^2|0> [a.u.]:                    [  -6.175790,    0.249687,    0.000046]
  Two-photon absorption cross-section (SoS) [a.u.]:                   0.000420
  Two-photon absorption matrix (SoS) [a.u.]:
                                       |   -0.007345   -0.002843   -0.000160 |
                                       |   -0.002843    0.005362   -0.000283 |
                                       |   -0.000160   -0.000283    0.002408 |
  Two-photon absorption cross-section [a.u.]:                         0.000881
  Two-photon absorption matrix [a.u.]:
                                       |   -0.010200   -0.002104   -0.000108 |
                                       |   -0.002104    0.009849   -0.000991 |
                                       |   -0.000108   -0.000991    0.002466 |

  Dip. moment [a.u.]:                  [  -0.000000,   -0.000380,    0.000733]
  Total dipole [Debye]:                                               0.002099
  <r^2> [a.u.]:                        [ 176.134770,   35.637592,   11.869972]
  Total <r^2> [a.u.]:                                               223.642334

  V1^2 = 0.9715, V2^2 = 0.0285

  Important amplitudes:
      occ i     occ j     vir a      vir b          v   
    -----------------------------------------------------
     8 (A) A              9 (A) A                -0.6811
     6 (A) A             14 (A) A                 0.0624
     4 (A) A             10 (A) A                -0.0609
     7 (A) A             16 (A) A                -0.0568
     5 (A) A             13 (A) A                -0.0513
     6 (A) A             23 (A) A                 0.0487
     8 (A) A             20 (A) A                 0.0350
     6 (A) A             19 (A) A                -0.0308
     3 (A) A             12 (A) A                -0.0281
     5 (A) A             22 (A) A                -0.0215
     7 (A) A             11 (A) A                -0.0213
     4 (A) A             24 (A) A                -0.0188
     3 (A) A             26 (A) A                 0.0185
     8 (A) A   8 (A) B   17 (A) A   20 (A) B     -0.0184
     8 (A) A   8 (A) B    9 (A) A   28 (A) B      0.0168
     6 (A) A             26 (A) A                 0.0163
     7 (A) A             21 (A) A                -0.0149
     3 (A) A             14 (A) A                 0.0139
     6 (A) A             12 (A) A                 0.0133
     3 (A) A   4 (A) B    9 (A) A    9 (A) B      0.0129
     3 (A) A             19 (A) A                -0.0119
     8 (A) A   8 (A) B   18 (A) A   19 (A) B      0.0113
     7 (A) A             32 (A) A                -0.0097
     7 (A) A             36 (A) A                 0.0085
     3 (A) A             23 (A) A                 0.0081
     8 (A) A   8 (A) B   25 (A) A   29 (A) B     -0.0076
     6 (A) A             35 (A) A                 0.0073
     6 (A) A             40 (A) A                 0.0068
     3 (A) A   6 (A) B    9 (A) A   28 (A) B      0.0065
     6 (A) A   8 (A) A   19 (A) A   28 (A) A     -0.0061
     5 (A) A   7 (A) B    9 (A) A    9 (A) B      0.0060
     5 (A) A   8 (A) B   11 (A) A   20 (A) B     -0.0059
     7 (A) A   8 (A) B   13 (A) A   20 (A) B     -0.0059
     5 (A) A   8 (A) B   16 (A) A    9 (A) B      0.0059
     5 (A) A   8 (A) B   11 (A) A    9 (A) B     -0.0058
     3 (A) A   5 (A) B    9 (A) A   25 (A) B      0.0058
     3 (A) A             40 (A) A                 0.0057
     7 (A) A   8 (A) B   22 (A) A   20 (A) B     -0.0057
     6 (A) A   8 (A) A    9 (A) A   18 (A) A      0.0057
     8 (A) A   8 (A) B   19 (A) A   30 (A) B      0.0056
    -----------------------------------------------------

  Density matrix analysis:
  ------------------------
  NOs
    Occupation of frontier NOs:
       0.9494   1.0218
    Number of electrons: 16.000000
    Number of unpaired electrons: n_u =  2.31353, n_u,nl =  2.03268
    NO participation ratio (PR_NO):  2.864687
  
  
  Mulliken Population Analysis
  Atom      Charge (e)              h+              e-           Del q
  --------------------------------------------------------------------
   1 H        0.058461        0.020250       -0.012552        0.007699
   2 C       -0.116205        0.490811       -0.506087       -0.015276
   3 H        0.058027        0.020190       -0.012603        0.007586
   4 C       -0.117312        0.490829       -0.506121       -0.015292
   5 H        0.058137        0.020168       -0.012575        0.007593
   6 H        0.058892        0.020267       -0.012576        0.007691
  --------------------------------------------------------------------
  Sum:        0.000000        1.062514       -1.062514       -0.000000
  
  Multipole moment analysis of the density matrix
    Molecular charge:                      0.000000
    Number of electrons:                   16.000000
      Center of electronic charge [Ang]: [ -1.560576,  -0.066215,   0.001954]
    Total nuclear charge:                  16.000000
      Center of nuclear charge [Ang]:    [ -1.560576,  -0.066227,   0.001978]
    Dipole moment [D]:                     0.002099
      Cartesian components [D]:          [ -0.000001,  -0.000967,   0.001863]
    RMS size of the density [Ang]:         1.214229
      Cartesian components [Ang]:        [  0.804534,   0.786980,   0.455787]
  
  Exciton analysis of the difference density matrix
    <r_h> [Ang]:                  [ -1.560322,  -0.065971,   0.001676]
    <r_e> [Ang]:                  [ -1.560221,  -0.065882,   0.001614]
    |<r_e - r_h>| [Ang]:            0.000148
    Hole size [Ang]:                1.285423
      Cartesian components [Ang]: [  0.728512,   0.712526,   0.783511]
    Electron size [Ang]:            1.463203
      Cartesian components [Ang]: [  0.854021,   0.830527,   0.849609]

  Transition density matrix analysis:
  -----------------------------------
  
  CT numbers (Mulliken)
    omega =     0.9535
    <Phe> =    -0.1606
  
  Exciton analysis of the transition density matrix
    Trans. dipole moment [D]:             1.833902
      Cartesian components [D]:         [ -1.330208,   1.262383,   0.011617]
    <r_h> [Ang]:                        [ -1.560251,  -0.065934,   0.001739]
    <r_e> [Ang]:                        [ -1.560245,  -0.065898,   0.001564]
    |<r_e - r_h>| [Ang]:                  0.000179
    Hole size [Ang]:                      1.214164
      Cartesian components [Ang]:       [  0.649645,   0.636394,   0.804462]
    Electron size [Ang]:                  1.486021
      Cartesian components [Ang]:       [  0.864467,   0.839385,   0.869705]
    RMS electron-hole separation [Ang]:   1.936539
      Cartesian components [Ang]:       [  1.106578,   1.075047,   1.170445]
    Covariance(r_h, r_e) [Ang^2]:        -0.033865
    Correlation coefficient:             -0.018769
    Center-of-mass size [Ang]:            0.950621
      Cartesian components [Ang]:       [  0.527771,   0.515607,   0.599406]

  Decomposition into state-averaged NTOs
    H- 0 -> L+ 0: -0.6699 ( 89.7%)
    H- 2 -> L+ 5: -0.0837 (  1.4%)
                   omega =  95.4%
  ----------------------------------------------------------------------------


  Excited state 2 (singlet, A)                                     [converged]
  ----------------------------------------------------------------------------
  Term symbol:  3 (1) A                                     R^2 =  1.79580e-13

  Total energy:                                            -77.9867333685 a.u.
  Excitation energy:                                               9.059477 eV

  Osc. strength:                                                      0.000028
  Trans. dip. moment [a.u.]:           [  -0.000063,    0.001802,   -0.011006]
  <i|r^2|0> [a.u.]:                    [   0.064835,    0.085349,   -0.150043]
  Two-photon absorption cross-section (SoS) [a.u.]:                   5.027808
  Two-photon absorption matrix (SoS) [a.u.]:
                                       |    0.053893    0.059406   -0.548288 |
                                       |    0.059406    0.065263   -0.560080 |
                                       |   -0.548288   -0.560080   -0.118787 |
  Two-photon absorption cross-section [a.u.]:                         0.072137
  Two-photon absorption matrix [a.u.]:
                                       |   -0.001484   -0.006879    0.064596 |
                                       |   -0.006879   -0.012610    0.067923 |
                                       |    0.064596    0.067923    0.014349 |

  Dip. moment [a.u.]:                  [   0.012205,    0.014868,    0.002848]
  Total dipole [Debye]:                                               0.049425
  <r^2> [a.u.]:                        [ 174.607488,   34.009190,   13.170405]
  Total <r^2> [a.u.]:                                               221.787083

  V1^2 = 0.9542, V2^2 = 0.0458

  Important amplitudes:
      occ i     occ j     vir a      vir b          v   
    -----------------------------------------------------
     7 (A) A              9 (A) A                -0.6685
     8 (A) A             11 (A) A                -0.1500
     7 (A) A             20 (A) A                 0.0758
     5 (A) A   8 (A) B    9 (A) A    9 (A) B      0.0316
     8 (A) A             16 (A) A                 0.0275
     8 (A) A             10 (A) A                 0.0224
     8 (A) A             21 (A) A                -0.0178
     5 (A) A             28 (A) A                 0.0150
     4 (A) A   7 (A) B    9 (A) A   19 (A) B      0.0135
     5 (A) A   7 (A) B    9 (A) A   16 (A) B     -0.0133
     7 (A) A   8 (A) B   20 (A) A   17 (A) B     -0.0105
     7 (A) A   8 (A) A    9 (A) A   28 (A) A     -0.0098
     5 (A) A   8 (A) B    9 (A) A   20 (A) B     -0.0095
     4 (A) A   6 (A) B    9 (A) A   16 (A) B      0.0091
     5 (A) A   6 (A) A    9 (A) A   23 (A) A      0.0091
     5 (A) A   6 (A) A    9 (A) A   14 (A) A      0.0089
     5 (A) A   6 (A) B    9 (A) A   19 (A) B     -0.0086
     8 (A) A   7 (A) B    9 (A) A   28 (A) B      0.0085
     4 (A) A   5 (A) A    9 (A) A   10 (A) A      0.0085
     6 (A) A   7 (A) B    9 (A) A   18 (A) B      0.0083
     5 (A) A   6 (A) B    9 (A) A   23 (A) B      0.0080
     3 (A) A   7 (A) B    9 (A) A   18 (A) B     -0.0079
     5 (A) A   7 (A) A    9 (A) A   16 (A) A     -0.0079
     4 (A) A   8 (A) B    9 (A) A   25 (A) B      0.0077
     7 (A) A   8 (A) B   17 (A) A   20 (A) B     -0.0074
     4 (A) A   7 (A) B   19 (A) A    9 (A) B      0.0074
     5 (A) A   5 (A) B    9 (A) A   13 (A) B     -0.0072
     7 (A) A   8 (A) B   19 (A) A   18 (A) B      0.0072
     5 (A) A   8 (A) A    9 (A) A   20 (A) A     -0.0069
     4 (A) A   5 (A) B    9 (A) A   18 (A) B     -0.0067
     7 (A) A   7 (A) B   20 (A) A   22 (A) B     -0.0065
     7 (A) A   8 (A) B   17 (A) A    9 (A) B      0.0065
     5 (A) A   6 (A) B    9 (A) A   14 (A) B      0.0063
     4 (A) A   7 (A) A    9 (A) A   19 (A) A      0.0061
     4 (A) A   5 (A) B   10 (A) A    9 (A) B     -0.0061
     4 (A) A   7 (A) B    9 (A) A   14 (A) B      0.0060
     5 (A) A   7 (A) B   11 (A) A   20 (A) B     -0.0060
     4 (A) A   8 (A) A    9 (A) A   25 (A) A      0.0057
     5 (A) A             37 (A) A                 0.0057
     6 (A) A   7 (A) A   19 (A) A   28 (A) A     -0.0057
    -----------------------------------------------------

  Density matrix analysis:
  ------------------------
  NOs
    Occupation of frontier NOs:
       0.9559   1.0557
    Number of electrons: 16.000000
    Number of unpaired electrons: n_u =  2.35548, n_u,nl =  2.06420
    NO participation ratio (PR_NO):  3.039671
  
  
  Mulliken Population Analysis
  Atom      Charge (e)              h+              e-           Del q
  --------------------------------------------------------------------
   1 H        0.152336        0.122674       -0.021100        0.101574
   2 C       -0.300800        0.271581       -0.471452       -0.199871
   3 H        0.148347        0.126673       -0.028767        0.097906
   4 C       -0.301717        0.272077       -0.471775       -0.199698
   5 H        0.154330        0.124777       -0.020991        0.103786
   6 H        0.147505        0.125263       -0.028960        0.096303
  --------------------------------------------------------------------
  Sum:        0.000000        1.043045       -1.043045        0.000000
  
  Multipole moment analysis of the density matrix
    Molecular charge:                      0.000000
    Number of electrons:                   16.000000
      Center of electronic charge [Ang]: [ -1.560980,  -0.066719,   0.001884]
    Total nuclear charge:                  16.000000
      Center of nuclear charge [Ang]:    [ -1.560576,  -0.066227,   0.001978]
    Dipole moment [D]:                     0.049425
      Cartesian components [D]:          [  0.031022,   0.037789,   0.007240]
    RMS size of the density [Ang]:         1.200232
      Cartesian components [Ang]:        [  0.786946,   0.768616,   0.480106]
  
  Exciton analysis of the difference density matrix
    <r_h> [Ang]:                  [ -1.564778,  -0.068970,   0.001688]
    <r_e> [Ang]:                  [ -1.570867,  -0.076615,   0.000552]
    |<r_e - r_h>| [Ang]:            0.009840
    Hole size [Ang]:                1.486223
      Cartesian components [Ang]: [  1.004132,   0.996511,   0.455569]
    Electron size [Ang]:            1.479191
      Cartesian components [Ang]: [  0.883834,   0.860354,   0.816478]

  Transition density matrix analysis:
  -----------------------------------
  
  CT numbers (Mulliken)
    omega =     0.9218
    <Phe> =    -0.0121
  
  Exciton analysis of the transition density matrix
    Trans. dipole moment [D]:             0.014173
      Cartesian components [D]:         [ -0.000080,   0.002290,  -0.013987]
    <r_h> [Ang]:                        [ -1.564869,  -0.068838,   0.001779]
    <r_e> [Ang]:                        [ -1.571310,  -0.077260,   0.000401]
    |<r_e - r_h>| [Ang]:                  0.010692
    Hole size [Ang]:                      1.514322
      Cartesian components [Ang]:       [  1.026937,   1.019988,   0.445194]
    Electron size [Ang]:                  1.476341
      Cartesian components [Ang]:       [  0.874512,   0.849991,   0.832061]
    RMS electron-hole separation [Ang]:   2.095201
      Cartesian components [Ang]:       [  1.333034,   1.312928,   0.942926]
    Covariance(r_h, r_e) [Ang^2]:         0.041500
    Correlation coefficient:              0.018563
    Center-of-mass size [Ang]:            1.067211
      Cartesian components [Ang]:       [  0.682240,   0.671195,   0.472212]

  Decomposition into state-averaged NTOs
    H- 1 -> L+ 0: -0.6609 ( 87.3%)
    H- 0 -> L+ 2:  0.1496 (  4.5%)
                   omega =  92.2%
  ----------------------------------------------------------------------------


  Excited state 3 (singlet, A)                                     [converged]
  ----------------------------------------------------------------------------
  Term symbol:  4 (1) A                                     R^2 =  1.95302e-13

  Total energy:                                            -77.9829760831 a.u.
  Excitation energy:                                               9.161718 eV

  Osc. strength:                                                      0.024901
  Trans. dip. moment [a.u.]:           [   0.014926,    0.020416,   -0.332115]
  <i|r^2|0> [a.u.]:                    [   0.086187,    0.001693,    0.007066]
  Two-photon absorption cross-section (SoS) [a.u.]:                   0.012456
  Two-photon absorption matrix (SoS) [a.u.]:
                                       |    0.006241    0.003101   -0.027475 |
                                       |    0.003101    0.001088   -0.027563 |
                                       |   -0.027475   -0.027563   -0.000203 |
  Two-photon absorption cross-section [a.u.]:                         0.017432
  Two-photon absorption matrix [a.u.]:
                                       |    0.007798    0.002761   -0.031655 |
                                       |    0.002761    0.004550   -0.033210 |
                                       |   -0.031655   -0.033210   -0.003462 |

  Dip. moment [a.u.]:                  [   0.031373,    0.021383,    0.001928]
  Total dipole [Debye]:                                               0.096626
  <r^2> [a.u.]:                        [ 181.038526,   40.576212,   11.028458]
  Total <r^2> [a.u.]:                                               232.643196

  V1^2 = 0.9587, V2^2 = 0.0413

  Important amplitudes:
      occ i     occ j     vir a      vir b          v   
    -----------------------------------------------------
     8 (A) A             10 (A) A                 0.6887
     8 (A) A             24 (A) A                 0.0507
     8 (A) A             18 (A) A                -0.0313
     4 (A) A              9 (A) A                 0.0239
     7 (A) A              9 (A) A                 0.0229
     8 (A) A   8 (A) B    9 (A) A   12 (A) B      0.0219
     8 (A) A             15 (A) A                 0.0173
     8 (A) A   8 (A) B   10 (A) A   17 (A) B      0.0172
     5 (A) A   8 (A) B   11 (A) A   10 (A) B      0.0165
     7 (A) A   8 (A) B   13 (A) A   10 (A) B      0.0141
     4 (A) A   8 (A) B   12 (A) A   10 (A) B      0.0111
     6 (A) A   8 (A) A   10 (A) A   15 (A) A     -0.0109
     7 (A) A   8 (A) B   22 (A) A   10 (A) B      0.0108
     6 (A) A   8 (A) B   15 (A) A   10 (A) B      0.0107
     4 (A) A   8 (A) A   10 (A) A   12 (A) A     -0.0106
     7 (A) A   8 (A) A   10 (A) A   22 (A) A     -0.0099
     7 (A) A   8 (A) A   10 (A) A   13 (A) A     -0.0097
     5 (A) A   8 (A) B   21 (A) A   10 (A) B      0.0094
     5 (A) A   8 (A) A   10 (A) A   11 (A) A     -0.0094
     6 (A) A   8 (A) A   10 (A) A   18 (A) A     -0.0088
     6 (A) A   8 (A) B   10 (A) A   10 (A) B     -0.0087
     7 (A) A   8 (A) A   12 (A) A   16 (A) A      0.0081
     3 (A) A   4 (A) B   10 (A) A    9 (A) B     -0.0079
     5 (A) A   8 (A) A   10 (A) A   21 (A) A     -0.0079
     4 (A) A   8 (A) B   19 (A) A   10 (A) B      0.0075
     8 (A) A   8 (A) B    9 (A) A   23 (A) B      0.0075
     8 (A) A   8 (A) B   10 (A) A   28 (A) B     -0.0073
     3 (A) A   8 (A) B   10 (A) A   10 (A) B      0.0072
     5 (A) A   8 (A) B   10 (A) A   11 (A) B      0.0072
     3 (A) A   8 (A) A   10 (A) A   24 (A) A     -0.0071
     7 (A) A   8 (A) B   16 (A) A   12 (A) B     -0.0070
     3 (A) A   8 (A) B   10 (A) A   18 (A) B     -0.0069
     8 (A) A   8 (A) B    9 (A) A   19 (A) B      0.0068
     6 (A) A   8 (A) B   18 (A) A   10 (A) B      0.0067
     3 (A) A   6 (A) B   10 (A) A   28 (A) B     -0.0062
     7 (A) A   8 (A) B   12 (A) A   11 (A) B      0.0058
     6 (A) A             28 (A) A                 0.0057
     3 (A) A   5 (A) B   10 (A) A   25 (A) B     -0.0056
     5 (A) A   8 (A) A   10 (A) A   16 (A) A      0.0056
     3 (A) A   8 (A) A   10 (A) A   18 (A) A     -0.0056
    -----------------------------------------------------

  Density matrix analysis:
  ------------------------
  NOs
    Occupation of frontier NOs:
       0.9825   0.9839
    Number of electrons: 16.000000
    Number of unpaired electrons: n_u =  2.28757, n_u,nl =  2.02491
    NO participation ratio (PR_NO):  2.697275
  
  
  Mulliken Population Analysis
  Atom      Charge (e)              h+              e-           Del q
  --------------------------------------------------------------------
   1 H       -0.157203        0.054260       -0.262225       -0.207965
   2 C        0.324672        0.536505       -0.110903        0.425601
   3 H       -0.165883        0.053592       -0.269915       -0.216324
   4 C        0.324295        0.537502       -0.111187        0.426315
   5 H       -0.159460        0.054171       -0.264176       -0.210005
   6 H       -0.166421        0.053631       -0.271254       -0.217623
  --------------------------------------------------------------------
  Sum:        0.000000        1.289660       -1.289660       -0.000000
  
  Multipole moment analysis of the density matrix
    Molecular charge:                      0.000000
    Number of electrons:                   16.000000
      Center of electronic charge [Ang]: [ -1.561614,  -0.066935,   0.001914]
    Total nuclear charge:                  16.000000
      Center of nuclear charge [Ang]:    [ -1.560576,  -0.066227,   0.001978]
    Dipole moment [D]:                     0.096626
      Cartesian components [D]:          [  0.079741,   0.054349,   0.004901]
    RMS size of the density [Ang]:         1.276146
      Cartesian components [Ang]:        [  0.854318,   0.840045,   0.439334]
  
  Exciton analysis of the difference density matrix
    <r_h> [Ang]:                  [ -1.560818,  -0.065742,   0.001806]
    <r_e> [Ang]:                  [ -1.573608,  -0.074599,   0.001264]
    |<r_e - r_h>| [Ang]:            0.015566
    Hole size [Ang]:                1.410248
      Cartesian components [Ang]: [  0.834167,   0.819737,   0.788034]
    Electron size [Ang]:            2.074650
      Cartesian components [Ang]: [  1.372550,   1.375888,   0.726093]

  Transition density matrix analysis:
  -----------------------------------
  
  CT numbers (Mulliken)
    omega =     0.9259
    <Phe> =    -0.0109
  
  Exciton analysis of the transition density matrix
    Trans. dipole moment [D]:             0.423298
      Cartesian components [D]:         [  0.018969,   0.025946,  -0.422076]
    <r_h> [Ang]:                        [ -1.559148,  -0.064656,   0.001782]
    <r_e> [Ang]:                        [ -1.577801,  -0.077242,   0.001064]
    |<r_e - r_h>| [Ang]:                  0.022514
    Hole size [Ang]:                      1.213315
      Cartesian components [Ang]:       [  0.636980,   0.624130,   0.822710]
    Electron size [Ang]:                  2.293439
      Cartesian components [Ang]:       [  1.516134,   1.522221,   0.802523]
    RMS electron-hole separation [Ang]:   2.584775
      Cartesian components [Ang]:       [  1.637098,   1.638244,   1.147662]
    Covariance(r_h, r_e) [Ang^2]:         0.025720
    Correlation coefficient:              0.009243
    Center-of-mass size [Ang]:            1.302251
      Cartesian components [Ang]:       [  0.825995,   0.826091,   0.575469]

  Decomposition into state-averaged NTOs
    H- 0 -> L+ 1: -0.6793 ( 92.3%)
                   omega =  92.6%
  ----------------------------------------------------------------------------


  Excited state 4 (singlet, A)                                     [converged]
  ----------------------------------------------------------------------------
  Term symbol:  5 (1) A                                     R^2 =  2.26135e-13

  Total energy:                                            -77.9584233790 a.u.
  Excitation energy:                                               9.829831 eV

  Osc. strength:                                                      0.000008
  Trans. dip. moment [a.u.]:           [   0.000015,    0.000688,   -0.005885]
  <i|r^2|0> [a.u.]:                    [  -0.016918,   -0.018953,    0.036151]
  Two-photon absorption cross-section (SoS) [a.u.]:                 148.918532
  Two-photon absorption matrix (SoS) [a.u.]:
                                       |   -0.289854   -0.323218    2.992893 |
                                       |   -0.323218   -0.357607    3.039320 |
                                       |    2.992893    3.039320    0.647336 |
  Two-photon absorption cross-section [a.u.]:                        91.760673
  Two-photon absorption matrix [a.u.]:
                                       |   -0.230876   -0.253967    2.349836 |
                                       |   -0.253967   -0.277358    2.385298 |
                                       |    2.349836    2.385298    0.508120 |

  Dip. moment [a.u.]:                  [  -0.041648,   -0.046574,   -0.005625]
  Total dipole [Debye]:                                               0.159449
  <r^2> [a.u.]:                        [ 181.057589,   40.506211,   10.772175]
  Total <r^2> [a.u.]:                                               232.335975

  V1^2 = 0.9635, V2^2 = 0.0365

  Important amplitudes:
      occ i     occ j     vir a      vir b          v   
    -----------------------------------------------------
     8 (A) A             11 (A) A                 0.6694
     7 (A) A              9 (A) A                -0.1519
     8 (A) A             21 (A) A                 0.0780
     8 (A) A             16 (A) A                -0.0643
     8 (A) A   8 (A) B    9 (A) A   13 (A) B      0.0166
     5 (A) A   8 (A) B   11 (A) A   11 (A) B      0.0155
     8 (A) A   8 (A) B   11 (A) A   17 (A) B      0.0140
     7 (A) A             20 (A) A                 0.0139
     7 (A) A   8 (A) B   13 (A) A   11 (A) B      0.0127
     5 (A) A   8 (A) A   11 (A) A   21 (A) A     -0.0110
     4 (A) A   8 (A) B   12 (A) A   11 (A) B      0.0110
     8 (A) A   8 (A) B    9 (A) A   22 (A) B      0.0107
     7 (A) A   8 (A) A   11 (A) A   22 (A) A     -0.0097
     6 (A) A   8 (A) B   10 (A) A   11 (A) B     -0.0090
     6 (A) A   8 (A) B   15 (A) A   11 (A) B      0.0090
     7 (A) A   8 (A) B   22 (A) A   11 (A) B      0.0089
     8 (A) A             12 (A) A                 0.0088
     3 (A) A   4 (A) B   11 (A) A    9 (A) B     -0.0083
     3 (A) A   8 (A) B   11 (A) A   18 (A) B     -0.0081
     6 (A) A   8 (A) A   11 (A) A   15 (A) A     -0.0080
     7 (A) A   8 (A) A   13 (A) A   16 (A) A      0.0078
     7 (A) A   8 (A) A   11 (A) A   13 (A) A     -0.0077
     5 (A) A   8 (A) B   21 (A) A   11 (A) B      0.0071
     4 (A) A   8 (A) B   19 (A) A   11 (A) B      0.0070
     5 (A) A   8 (A) B    9 (A) A    9 (A) B      0.0068
     4 (A) A   8 (A) A   11 (A) A   12 (A) A     -0.0063
     6 (A) A   8 (A) A   11 (A) A   18 (A) A     -0.0063
     3 (A) A   6 (A) B   11 (A) A   28 (A) B     -0.0060
     6 (A) A   8 (A) B   18 (A) A   11 (A) B      0.0060
     7 (A) A   8 (A) B   16 (A) A   13 (A) B     -0.0057
     3 (A) A   8 (A) A   11 (A) A   18 (A) A     -0.0056
     5 (A) A   8 (A) B   10 (A) A   10 (A) B      0.0056
     3 (A) A   8 (A) B   11 (A) A   30 (A) B     -0.0055
     3 (A) A   5 (A) B   11 (A) A   25 (A) B     -0.0054
     6 (A) A   8 (A) B   11 (A) A   10 (A) B     -0.0054
     7 (A) A   8 (A) B   12 (A) A   10 (A) B      0.0054
     6 (A) A              9 (A) A                 0.0054
     8 (A) A   8 (A) B   20 (A) A   22 (A) B     -0.0053
     3 (A) A   8 (A) A   11 (A) A   24 (A) A     -0.0053
     8 (A) A             10 (A) A                 0.0052
    -----------------------------------------------------

  Density matrix analysis:
  ------------------------
  NOs
    Occupation of frontier NOs:
       0.9397   1.0288
    Number of electrons: 16.000000
    Number of unpaired electrons: n_u =  2.31939, n_u,nl =  2.04982
    NO participation ratio (PR_NO):  2.920528
  
  
  Mulliken Population Analysis
  Atom      Charge (e)              h+              e-           Del q
  --------------------------------------------------------------------
   1 H       -0.152147        0.046253       -0.249162       -0.202909
   2 C        0.274100        0.496324       -0.121295        0.375029
   3 H       -0.121346        0.046923       -0.218710       -0.171787
   4 C        0.272889        0.496539       -0.121630        0.374909
   5 H       -0.137971        0.047053       -0.235569       -0.188515
   6 H       -0.135525        0.046122       -0.232848       -0.186726
  --------------------------------------------------------------------
  Sum:        0.000000        1.179214       -1.179214       -0.000000
  
  Multipole moment analysis of the density matrix
    Molecular charge:                      0.000000
    Number of electrons:                   16.000000
      Center of electronic charge [Ang]: [ -1.559199,  -0.064687,   0.002164]
    Total nuclear charge:                  16.000000
      Center of nuclear charge [Ang]:    [ -1.560576,  -0.066227,   0.001978]
    Dipole moment [D]:                     0.159449
      Cartesian components [D]:          [ -0.105859,  -0.118378,  -0.014298]
    RMS size of the density [Ang]:         1.277108
      Cartesian components [Ang]:        [  0.858912,   0.839492,   0.434198]
  
  Exciton analysis of the difference density matrix
    <r_h> [Ang]:                  [ -1.559261,  -0.064714,   0.001913]
    <r_e> [Ang]:                  [ -1.540481,  -0.043905,   0.004710]
    |<r_e - r_h>| [Ang]:            0.028171
    Hole size [Ang]:                1.395294
      Cartesian components [Ang]: [  0.819429,   0.806618,   0.790411]
    Electron size [Ang]:            2.124096
      Cartesian components [Ang]: [  1.441313,   1.404670,   0.679190]

  Transition density matrix analysis:
  -----------------------------------
  
  CT numbers (Mulliken)
    omega =     0.9298
    <Phe> =    -0.0135
  
  Exciton analysis of the transition density matrix
    Trans. dipole moment [D]:             0.007530
      Cartesian components [D]:         [  0.000019,   0.000874,  -0.007479]
    <r_h> [Ang]:                        [ -1.560398,  -0.066052,   0.001664]
    <r_e> [Ang]:                        [ -1.536751,  -0.039634,   0.005235]
    |<r_e - r_h>| [Ang]:                  0.035636
    Hole size [Ang]:                      1.228333
      Cartesian components [Ang]:       [  0.659305,   0.649884,   0.807323]
    Electron size [Ang]:                  2.261762
      Cartesian components [Ang]:       [  1.535336,   1.495935,   0.721448]
    RMS electron-hole separation [Ang]:   2.563359
      Cartesian components [Ang]:       [  1.662509,   1.623456,   1.082249]
    Covariance(r_h, r_e) [Ang^2]:         0.027416
    Correlation coefficient:              0.009868
    Center-of-mass size [Ang]:            1.292207
      Cartesian components [Ang]:       [  0.839718,   0.819364,   0.541587]

  Decomposition into state-averaged NTOs
    H- 0 -> L+ 2: -0.6646 ( 88.3%)
    H- 1 -> L+ 0: -0.1499 (  4.5%)
                   omega =  93.0%
  ----------------------------------------------------------------------------


  Excited state 5 (singlet, A)                                     [converged]
  ----------------------------------------------------------------------------
  Term symbol:  6 (1) A                                     R^2 =  1.90712e-13

  Total energy:                                            -77.9446366397 a.u.
  Excitation energy:                                              10.204988 eV

  Osc. strength:                                                      0.000000
  Trans. dip. moment [a.u.]:           [  -0.000061,    0.000031,   -0.000571]
  <i|r^2|0> [a.u.]:                    [  -0.088085,    0.104752,   -0.017336]
  Two-photon absorption cross-section (SoS) [a.u.]:                 166.642392
  Two-photon absorption matrix (SoS) [a.u.]:
                                       |   -0.310513   -0.039196    3.242265 |
                                       |   -0.039196    0.375013   -3.192998 |
                                       |    3.242265   -3.192998   -0.073418 |
  Two-photon absorption cross-section [a.u.]:                        71.486191
  Two-photon absorption matrix [a.u.]:
                                       |   -0.205312   -0.026381    2.113522 |
                                       |   -0.026381    0.243653   -2.101448 |
                                       |    2.113522   -2.101448   -0.049525 |

  Dip. moment [a.u.]:                  [  -0.007139,   -0.000163,    0.000011]
  Total dipole [Debye]:                                               0.018150
  <r^2> [a.u.]:                        [ 178.191250,   38.080632,   11.983120]
  Total <r^2> [a.u.]:                                               228.255002

  V1^2 = 0.9575, V2^2 = 0.0425

  Important amplitudes:
      occ i     occ j     vir a      vir b          v   
    -----------------------------------------------------
[...]
    16   -1.464347651440e-03
    17   -1.753777898717e-03
    18   -9.858956170748e-05
    19   -3.224774040596e-03
    20    1.126523632483e-02
    21    9.398935051531e-01
    22   -2.599060862982e-04
    23    1.402804701619e-02
    24    8.220908604245e-04
    25    7.052799815074e-02
    26   -5.267441142927e-02
    27   -1.400003827971e+00
    28    9.968992316673e-02
    29   -9.136072997793e-02
    30   -9.922909693405e-04
    31    3.861082562200e-01
    32   -3.554681968985e-01
    33   -3.961142794988e-03
    34    1.549376206743e-02
    35   -1.433840062767e-03
    36   -1.797527264876e-03
    37    1.787495078318e-04
    38   -3.268242963953e-03
    39    1.024960259164e-02
    40    9.262509038099e-01
    41    4.614597757013e-04
    42   -1.391072158524e-02
    43   -8.206879975318e-04
    44    1.133801155502e-02
    45    9.430849180526e-01
    46    1.410339256642e-02
    47    3.898713803069e-04
    48    6.741026128730e-04
Sym=X
Ene= 0.232763
Spin=Alpha
Occup=0
     1    2.600505478403e-02
     2    1.232641161369e+00
     3   -1.440716237742e-02
     4   -3.785602721342e-03
     5   -9.009825579589e-04
     6    3.101587191178e-03
     7   -3.170458355041e-03
     8   -5.560873627399e-02
     9   -1.552383830043e-01
    10   -1.576257677053e-01
    11   -1.666710277371e-02
    12   -5.548945532422e-01
    13   -5.549903123932e-01
    14   -5.906233029030e-02
    15    6.064671659531e-04
    16   -7.978859580084e-05
    17   -5.202423426973e-05
    18   -3.468814910546e-04
    19   -3.639740269712e-04
    20   -2.496958915567e-02
    21   -1.153535044813e+00
    22   -2.514949989045e-03
    23   -1.348717022036e-02
    24   -9.212404092144e-04
    25   -1.932022789684e-03
    26    2.268844976697e-03
    27    2.376590554411e-02
    28   -1.530357931645e-01
    29   -1.602948665252e-01
    30   -1.676051624601e-02
    31   -5.439460146810e-01
    32   -5.665778884749e-01
    33   -5.940292859973e-02
    34   -3.593389395190e-04
    35    3.976278293866e-05
    36    6.720947160372e-07
    37    3.804937734741e-04
    38    2.607328724126e-04
    39    2.471716883483e-02
    40    1.173450754706e+00
    41   -2.584661399527e-03
    42   -1.379276610374e-02
    43   -9.471583003530e-04
    44   -2.614662669033e-02
    45   -1.212391583484e+00
    46   -1.406911100489e-02
    47   -3.716306023359e-03
    48   -8.805437961700e-04
Sym=X
Ene= 0.239544
Spin=Alpha
Occup=0
     1   -1.617748270568e-02
     2   -1.062663605422e+00
     3    1.672191019025e-02
     4    9.118731756805e-03
     5    1.341122141789e-03
     6   -8.662852231979e-02
     7    7.959676052944e-02
     8    1.599796773380e+00
     9    5.446247913374e-02
    10   -5.994514357096e-02
    11   -8.145829428408e-04
    12    2.162350308960e-01
    13   -2.290038180331e-01
    14   -2.585113547834e-03
    15   -2.261894451223e-02
    16    2.637939244055e-03
    17    2.956147577490e-03
    18   -3.801010667930e-04
    19    1.296743877989e-02
    20   -1.674115340483e-02
    21   -1.117689539805e+00
    22   -8.549622608682e-03
    23   -1.768025509682e-02
    24   -1.442535303972e-03
    25    8.648414935761e-02
    26   -7.951330059702e-02
    27   -1.594773971643e+00
    28    5.392980074571e-02
    29   -6.032732648288e-02
    30   -1.369938294405e-03
    31    2.066300548059e-01
    32   -2.371499897825e-01
    33   -5.646533926921e-03
    34    2.250914394482e-02
    35   -2.548391601649e-03
    36   -3.030527113851e-03
    37    1.052401558715e-03
    38   -1.290408806438e-02
    39    1.724719796000e-02
    40    1.129193087324e+00
    41   -8.386888956761e-03
    42   -1.795575218172e-02
    43   -1.486609290067e-03
    44    1.602494812124e-02
    45    1.044920592676e+00
    46    1.628416814213e-02
    47    9.213030503111e-03
    48    1.293059978206e-03
Sym=X
Ene= 0.303204
Spin=Alpha
Occup=0
     1    2.045797372690e-02
     2   -1.690632106798e+00
     3    2.274407637171e-02
     4   -3.129811949624e-04
     5    1.068241433475e-03
     6    5.167507044160e-04
     7   -1.560639335045e-05
     8   -1.667298872131e-02
     9    1.338220707224e-01
    10    1.404149742650e-01
    11    1.463899126304e-02
    12    1.148068748476e+00
    13    1.192493749665e+00
    14    1.249530325339e-01
    15    3.414740711421e-04
    16    1.614307237023e-03
    17   -1.856799282177e-03
    18    3.236079537225e-02
    19    1.462824272720e-03
    20   -1.986522897524e-02
    21    1.697797028538e+00
    22   -1.354354982494e-03
    23    2.298408636752e-02
    24    1.285145342159e-03
    25   -4.149453680498e-04
    26   -2.693030729130e-04
    27    1.568422232552e-02
    28   -1.339739601860e-01
    29   -1.399882272979e-01
    30   -1.465082704129e-02
    31   -1.133344576433e+00
    32   -1.204288984099e+00
    33   -1.250578524492e-01
    34   -2.271195505171e-04
    35    1.591779097370e-03
    36   -1.869648453263e-03
    37    3.226984578589e-02
    38    1.782530027500e-03
    39   -2.021600116167e-02
    40    1.687396977312e+00
    41    1.462288629310e-03
    42   -2.264941015305e-02
    43   -1.287723725714e-03
    44    1.983377301651e-02
    45   -1.694120257984e+00
    46   -2.303155220437e-02
    47    1.330252546041e-04
    48   -1.069388973961e-03
Sym=X
Ene= 0.461498
Spin=Alpha
Occup=0
     1   -1.145664048107e-01
     2   -7.121340704404e-01
     3   -1.580209456266e-02
     4   -1.011090550439e-02
     5   -1.341184501322e-03
     6    6.058809509422e-02
     7    1.735865445728e-02
     8   -3.583549473550e+00
     9    1.037740065641e-01
    10   -9.997157184018e-02
    11   -1.034828958611e-03
    12    2.417039331305e+00
    13   -2.295141510807e+00
    14   -2.085097381537e-02
    15    5.336311090684e-02
    16   -3.325006093577e-03
    17   -4.592072685217e-03
    18   -1.140783830486e-03
    19    1.834603451555e-02
    20   -1.187385372357e-01
    21   -7.026738708341e-01
    22    8.571981409404e-03
    23    1.625761800623e-02
    24    1.371456065720e-03
    25   -6.062125412128e-02
    26   -1.736657774213e-02
    27    3.585683401665e+00
    28    1.048468271490e-01
    29   -9.891852010328e-02
    30   -1.225533737081e-03
    31    2.418023816717e+00
    32   -2.293428545220e+00
    33   -2.207907995694e-02
    34   -5.346604303201e-02
    35    3.348911552504e-03
    36    4.612697653900e-03
    37    6.731184527909e-04
    38   -1.836366061159e-02
    39    1.172377354867e-01
    40    7.080550125084e-01
    41    8.972489932655e-03
    42    1.641713730347e-02
    43    1.391415246503e-03
    44    1.171356529754e-01
    45    7.038573010690e-01
    46   -1.565119200212e-02
    47   -9.759040521252e-03
    48   -1.328895707687e-03
Sym=X
Ene= 0.577008
Spin=Alpha
Occup=0
     1    2.465326559927e-01
     2    4.739082176277e-02
     3   -1.836620228832e-02
     4    2.629125370717e-02
     5    6.860820200572e-04
     6   -4.876607546905e-03
     7   -1.555606064136e-01
     8   -4.361439653759e-01
     9    2.967984392798e-01
    10   -2.855901421664e-01
    11   -2.887772066955e-03
    12   -7.390973208642e-01
    13    7.142406243311e-01
    14    7.539349983783e-03
    15   -6.783666935154e-03
    16    3.953751584684e-03
    17    3.838621413127e-03
    18   -4.506342104180e-03
    19    6.044768245062e-02
    20    2.596350957236e-01
    21    3.497727628535e-02
    22   -2.623643471211e-02
    23    1.581153868372e-02
    24   -3.067885768918e-04
    25   -4.854307838191e-03
    26   -1.556688077278e-01
    27   -4.363636400570e-01
    28   -2.989710525355e-01
    29    2.834869348018e-01
    30    2.619585345081e-03
    31    7.428626908332e-01
    32   -7.068727009717e-01
    33   -7.240721612761e-03
    34   -6.867770358046e-03
    35    4.051153447142e-03
    36    3.743368747925e-03
    37   -2.613981784675e-03
    38    6.053945728684e-02
    39    2.492369725391e-01
    40    4.329757281001e-02
    41    2.724793098872e-02
    42   -1.677467879815e-02
    43    2.694538049542e-04
    44    2.571057916305e-01
    45    3.604092873014e-02
    46    1.748992633474e-02
    47   -2.545822567985e-02
    48   -7.073640762232e-04
Sym=X
Ene= 0.616178
Spin=Alpha
Occup=0
     1   -5.252768302422e-01
     2    2.013582712429e-01
     3   -6.150060344923e-02
     4    3.732249923163e-02
     5   -7.157103042511e-04
     6   -5.566655803264e-04
     7   -7.176965229869e-04
     8    2.752844470573e-03
     9   -4.082754427622e-02
    10   -3.780083024007e-02
    11   -4.179801121391e-03
    12    3.043141786670e-01
    13    2.860362877598e-01
    14    3.128657356131e-02
    15    1.635418732663e-03
    16   -7.674002132314e-03
    17    8.260811216966e-03
    18   -1.490174824075e-01
    19   -7.383948842077e-03
    20    5.085278725326e-01
    21   -2.037727737593e-01
    22    4.211563617855e-02
    23   -5.899618548302e-02
    24   -1.489418375740e-03
    25    3.690685281453e-05
    26   -2.236810394092e-03
    27    2.418735000788e-02
    28   -3.654782313768e-02
    29   -4.088198944622e-02
    30   -4.146310589627e-03
    31    2.817593011352e-01
    32    3.016939319341e-01
    33    3.129051115409e-02
    34   -5.506391969651e-04
    35    7.341739114042e-03
    36   -8.648858854037e-03
    37    1.492107122677e-01
    38    6.977843880375e-03
    39   -5.189240235764e-01
    40    2.023555803240e-01
    41    4.088653868046e-02
    42   -5.896597051597e-02
    43   -1.620116848809e-03
    44    5.154694275432e-01
    45   -2.088635598145e-01
    46   -6.170151827009e-02
    47    3.869246464801e-02
    48   -5.622927159667e-04
Sym=X
Ene= 0.689153
Spin=Alpha
Occup=0
     1    5.316842285758e-04
     2    7.521328480872e-05
     3    1.089053357959e-03
     4    1.302718138443e-03
     5   -2.100266123199e-02
     6    3.602580479265e-05
     7    3.854092984425e-04
     8    4.041455218544e-05
     9    3.149309494872e-02
    10    3.988535255179e-02
    11   -6.702422968899e-01
    12   -2.945871183338e-02
    13   -3.586496406877e-02
    14    6.134016379186e-01
    15   -1.425856004212e-03
    16    8.272895320452e-02
    17   -7.836888873946e-02
    18   -8.577142477402e-03
    19   -1.074889538625e-03
    20    5.500008030329e-04
    21    2.202041984561e-05
    22    9.282730989764e-04
    23    1.136253625806e-03
    24   -2.093699079250e-02
    25    1.188884659836e-05
    26    6.113097128207e-04
    27   -6.336832373052e-04
    28    3.174991692845e-02
    29    3.976329515834e-02
    30   -6.703444272054e-01
    31   -2.972427633223e-02
    32   -3.577036182998e-02
    33    6.133440412818e-01
    34    1.105804438063e-03
    35   -8.262579860076e-02
    36    7.839562251968e-02
    37    8.548278792480e-03
    38    1.191110046508e-03
    39    1.529984348719e-04
    40   -6.568799131855e-04
    41    1.000721603467e-03
    42    1.406297017997e-03
    43   -2.106160651934e-02
    44    1.473629752034e-04
    45   -6.142363525830e-04
    46    8.206712706087e-04
    47    1.216505910060e-03
    48   -2.056978924121e-02
Sym=X
Ene= 0.708190
Spin=Alpha
Occup=0
     1   -4.692468365516e-01
     2    1.490584191721e-01
     3   -7.976969804073e-02
     4   -4.391439483165e-02
     5   -6.419729354531e-03
     6   -4.699539938230e-02
     7   -3.210344886116e-01
     8    4.753397096418e-01
     9    2.052094244905e-01
    10   -1.952389184026e-01
    11   -2.469122626919e-03
    12   -8.416375020055e-02
    13    7.117574244706e-02
    14    4.531223845589e-04
    15    1.930924086631e-01
    16   -2.024930027585e-02
    17   -2.380388431695e-02
    18    4.031179566557e-03
    19   -7.623222304251e-02
    20   -4.748339909887e-01
    21    1.460379731555e-01
    22    4.042289737636e-02
    23    8.171300217906e-02
    24    6.706596349702e-03
    25   -4.746468331692e-02
    26   -3.193631067874e-01
    27    4.806749660646e-01
    28   -2.071438545915e-01
    29    1.925341320431e-01
    30    1.056393118841e-03
    31    9.000884485404e-02
    32   -7.649918949267e-02
    33    8.910079079197e-04
    34    1.940427617908e-01
    35   -2.042686889542e-02
    36   -2.385898881352e-02
    37    2.335792184303e-03
    38   -7.658984879885e-02
    39   -4.714672098922e-01
    40    1.450210915719e-01
    41   -4.029007597766e-02
    42   -8.153255419655e-02
    43   -6.745682157003e-03
    44   -4.791411174286e-01
    45    1.612608437747e-01
    46    8.092229293243e-02
    47    4.424262957370e-02
    48    6.452147149184e-03
Sym=X
Ene= 0.784362
Spin=Alpha
Occup=0
     1   -5.323867413163e-01
     2    4.775405324292e-01
     3   -1.115114114139e-01
     4   -2.641146003278e-02
     5   -6.857049582460e-03
     6   -9.140345768983e-02
     7    2.128178809961e-01
     8    6.700513832869e-01
     9   -1.079480478123e-01
    10    1.064205647230e-01
    11    8.089133499668e-05
    12   -3.311790978833e-01
    13    3.025169550723e-01
    14    4.273924982227e-03
    15    2.072361411400e-01
    16   -1.779026104671e-02
    17   -2.181297653565e-02
    18   -3.894413181329e-04
    19   -1.086748279072e-02
    20   -5.379885130981e-01
    21    4.700212213231e-01
    22    2.093465760381e-02
    23    1.118613335888e-01
    24    7.591327314732e-03
    25    9.104178473068e-02
    26   -2.168335640190e-01
    27   -6.624470032649e-01
    28   -1.100010288230e-01
    29    1.058584607172e-01
    30    1.978689364965e-03
    31   -3.304868928988e-01
    32    3.047135429493e-01
    33    4.665430879888e-04
    34   -2.058095612609e-01
    35    1.729251205489e-02
    36    2.209090248441e-02
    37   -1.705338971459e-03
    38    1.038348234506e-02
    39    5.356220909480e-01
    40   -4.721798821152e-01
    41    1.979109300629e-02
    42    1.124198083732e-01
    43    7.641895715557e-03
    44    5.300079732765e-01
    45   -4.778519120079e-01
    46   -1.098804382680e-01
    47   -2.702440293065e-02
    48   -6.774382787672e-03
Sym=X
Ene= 0.807984
Spin=Alpha
Occup=0
     1   -6.423647397519e-04
     2    8.093654491019e-04
     3   -1.788559560728e-03
     4   -1.997072484084e-03
     5    3.381449747383e-02
     6   -1.304832789682e-04
     7    4.458184076195e-04
     8    1.408489946944e-04
     9   -3.641055665161e-02
    10   -4.484342169602e-02
    11    7.631626362387e-01
    12    5.302341546309e-02
    13    6.691333810241e-02
    14   -1.127062846890e+00
    15   -6.418773627052e-04
    16    6.524537509844e-02
    17   -6.188631899737e-02
    18   -6.782381549433e-03
    19   -8.409788468624e-04
    20   -6.457731926354e-04
    21    6.426124166714e-04
    22   -1.659030689636e-03
    23   -1.874093314775e-03
    24    3.449868278949e-02
    25    1.127523246555e-04
    26   -6.823125754216e-05
    27   -3.351837087372e-04
    28    3.572397756942e-02
    29    4.570280846777e-02
    30   -7.631448261020e-01
    31   -5.358917242628e-02
    32   -6.673162896643e-02
    33    1.126942821135e+00
    34   -1.382381556435e-03
    35    6.527186527526e-02
    36   -6.185410762327e-02
    37   -6.735552580879e-03
    38   -9.889668590562e-04
    39    6.425598927616e-04
    40   -7.532093864521e-04
    41    1.552607707506e-03
    42    2.299255689073e-03
    43   -3.420247850657e-02
    44    6.337958182277e-04
    45   -9.156779008883e-04
    46    1.312292574723e-03
    47    2.041303371675e-03
    48   -3.380596343482e-02
Sym=X
Ene= 0.862193
Spin=Alpha
Occup=0
     1    1.027770771396e-02
     2   -1.094064054305e+00
     3    1.477195275491e-01
     4    5.662503965071e-02
     5    1.032325292755e-02
     6   -3.944900337035e-05
     7    3.097803907260e-03
     8   -1.735556677445e-03
     9   -4.078301136227e-01
    10   -4.268329953304e-01
    11   -4.451388450392e-02
    12    9.519639118605e-01
    13    9.953401391942e-01
    14    1.038579899260e-01
    15   -3.392135594059e-04
    16    1.168729406233e-02
    17   -1.346469509821e-02
    18    2.348140252255e-01
    19    1.031645407804e-02
    20   -1.193860970815e-02
    21    1.099562465868e+00
    22    5.046660575406e-02
    23    1.512395607283e-01
    24    1.136438421352e-02
    25    4.455859513043e-04
    26    3.871755846680e-03
    27   -2.027032530332e-03
    28   -4.087131144869e-01
    29   -4.302463739977e-01
    30   -4.492602774265e-02
    31    9.482075368413e-01
    32    1.005721034999e+00
    33    1.046655284213e-01
    34   -1.383007300848e-03
    35   -1.163330356399e-02
    36    1.359401402957e-02
    37   -2.349161413819e-01
    38   -1.242886414752e-02
    39    1.426145830268e-02
    40   -1.102566865368e+00
    41    4.944602180609e-02
    42    1.518356685831e-01
    43    1.144546199184e-02
    44   -1.093607441680e-02
    45    1.096943563615e+00
    46    1.483022609690e-01
    47    5.777423381586e-02
    48    1.034663570892e-02
Sym=X
Ene= 0.935728
Spin=Alpha
Occup=0
     1   -1.130867256262e-01
     2    1.274870827707e+00
     3   -1.808703728391e-01
     4    5.979906626659e-03
     5   -8.276998970415e-03
     6   -2.494212283547e-04
     7   -2.964063445967e-04
     8   -1.279254330743e-02
     9    4.688659630995e-01
    10    5.046295659117e-01
    11    5.206639452534e-02
    12   -1.452817397251e+00
    13   -1.558516704993e+00
    14   -1.610356635488e-01
    15   -5.151567768500e-04
    16   -5.763113323326e-03
    17    7.047160110668e-03
    18   -1.203926938129e-01
    19    4.389935270720e-04
    20    1.179940678205e-01
    21   -1.298641089263e+00
    22    1.080227362056e-02
    23   -1.834987038148e-01
    24   -1.027513855085e-02
    25    4.818235128468e-04
    26    7.153257435175e-03
    27   -1.789860424662e-04
    28   -4.795521863506e-01
    29   -4.917785758212e-01
    30   -5.185650297582e-02
    31    1.484644285749e+00
    32    1.520102860887e+00
    33    1.604016036814e-01
    34   -1.134782075430e-03
    35   -6.009997222925e-03
    36    6.771026069882e-03
    37   -1.182288404117e-01
    38   -1.051764573767e-02
    39    1.144010818701e-01
    40   -1.265221786724e+00
    41   -1.452610468103e-02
    42    1.795975413046e-01
    43    1.001911676822e-02
    44   -1.160864513862e-01
    45    1.296163728972e+00
    46    1.830565432397e-01
    47   -2.139625972827e-03
    48    8.486047202600e-03
Sym=X
Ene= 0.972081
Spin=Alpha
Occup=0
     1   -6.202942097555e-02
     2    9.320934674403e-01
     3   -9.085586033137e-02
     4   -9.786975945988e-02
     5   -1.011613685517e-02
     6    2.539722208158e-02
     7    2.393184846502e-01
     8    5.433193967903e-01
     9    4.855051515341e-01
    10   -4.480670141640e-01
    11   -3.341846572961e-03
    12   -1.513681993796e+00
    13    1.380358982371e+00
    14    9.460662077809e-03
    15   -5.435974125807e-02
    16   -1.276145988302e-02
    17   -9.548271657872e-03
    18    1.316515562715e-02
    19   -3.007259617553e-01
    20   -6.342179305198e-02
    21    8.853432263979e-01
    22    9.473734835565e-02
    23    8.948289413735e-02
    24    9.771505983810e-03
    25   -2.549612867182e-02
    26   -2.469234623610e-01
    27   -5.308093814022e-01
    28    4.735577712236e-01
    29   -4.628480121752e-01
    30   -5.540523549737e-03
    31   -1.458601057650e+00
    32    1.442945146380e+00
    33    1.786208515757e-02
    34    5.473523019935e-02
    35    1.249566882732e-02
    36    9.838706485780e-03
    37   -1.767722605834e-02
    38    3.013017678031e-01
    39    6.101127998925e-02
    40   -9.362061194454e-01
    41    9.411190245778e-02
    42    9.614546658267e-02
    43    1.028748509893e-02
    44    6.502014796568e-02
    45   -8.898163650799e-01
    46   -8.560719031864e-02
    47   -9.881064903091e-02
    48   -9.770937080912e-03
[5D]

======= END OF MOLDEN-FORMATTED INPUT FILE =======


        *************************************************************
        *                                                           *
        *  Thank you very much for using Q-Chem.  Have a nice day.  *
        *                                                           *
        *************************************************************


