                  Welcome to Q-Chem
     A Quantum Leap Into The Future Of Chemistry


 Q-Chem 5.4 (devel), Q-Chem, Inc., Pleasanton, CA (2021)

 E. Epifanovsky,  A. T. B. Gilbert,  Xintian Feng,  Joonho Lee,  Yuezhi Mao,  
 N. Mardirossian,  P. Pokhilko,  A. White,  M. Wormit,  M. P. Coons,  
 A. L. Dempwolff,  Zhengting Gan,  D. Hait,  P. R. Horn,  L. D. Jacobson,  
 I. Kaliman,  J. Kussmann,  A. W. Lange,  Ka Un Lao,  D. S. Levine,  Jie Liu,  
 S. C. McKenzie,  A. F. Morrison,  K. Nanda,  F. Plasser,  D. R. Rehn,  
 M. L. Vidal,  Zhi-Qiang You,  Ying Zhu,  B. Alam,  B. Albrecht,  
 A. Aldossary,  E. Alguire,  J. H. Andersen,  D. Barton,  K. Begam,  A. Behn,  
 Y. A. Bernard,  E. J. Berquist,  H. Burton,  A. Carreras,  K. Carter-Fenk,  
 R. Chakraborty,  A. D. Chien,  K. D. Closser,  V. Cofer-Shabica,  
 S. Dasgupta,  Jia Deng,  M. de Wergifosse,  M. Diedenhofen,  Hainam Do,  
 S. Ehlert,  Po-Tung Fang,  S. Fatehi,  Qingguo Feng,  T. Friedhoff,  
 J. Gayvert,  Qinghui Ge,  G. Gidofalvi,  M. Goldey,  J. Gomes,  
 C. Gonzalez-Espinoza,  S. Gulania,  A. Gunina,  M. W. D. Hanson-Heine,  
 P. H. P. Harbach,  A. W. Hauser,  M. F. Herbst,  M. Hernandez Vera,  
 M. Hodecker,  Z. C. Holden,  S. Houck,  Xunkun Huang,  Kerwin Hui,  
 B. C. Huynh,  M. Ivanov,  Hyunjun Ji,  Hanjie Jiang,  B. Kaduk,  S. Kaehler,  
 K. Khistyaev,  Jaehoon Kim,  P. Klunzinger,  Z. Koczor-Benda,  
 Joong Hoon Koh,  D. Kosenkov,  L. Koulias,  T. Kowalczyk,  C. M. Krauter,  
 K. Kue,  A. Kunitsa,  T. Kus,  A. Landau,  K. V. Lawler,  D. Lefrancois,  
 S. Lehtola,  Rain Li,  Yi-Pei Li,  Jiashu Liang,  M. Liebenthal,  
 Hung-Hsuan Lin,  You-Sheng Lin,  Fenglai Liu,  Kuan-Yu Liu,  
 M. Loipersberger,  A. Luenser,  A. Manjanath,  P. Manohar,  E. Mansoor,  
 S. F. Manzer,  Shan-Ping Mao,  A. V. Marenich,  T. Markovich,  S. Mason,  
 S. A. Maurer,  P. F. McLaughlin,  M. F. S. J. Menger,  J.-M. Mewes,  
 S. A. Mewes,  P. Morgante,  J. W. Mullinax,  K. J. Oosterbaan,  G. Paran,  
 Alexander C. Paul,  Suranjan K. Paul,  F. Pavosevic,  Zheng Pei,  S. Prager,  
 E. I. Proynov,  E. Ramos,  B. Rana,  A. E. Rask,  A. Rettig,  R. M. Richard,  
 F. Rob,  E. Rossomme,  T. Scheele,  M. Scheurer,  M. Schneider,  
 N. Sergueev,  S. M. Sharada,  W. Skomorowski,  D. W. Small,  C. J. Stein,  
 Yu-Chuan Su,  E. J. Sundstrom,  Zhen Tao,  J. Thirman,  T. Tsuchimochi,  
 N. M. Tubman,  S. P. Veccham,  O. Vydrov,  J. Wenzel,  J. Witte,  A. Yamada,  
 Kun Yao,  S. Yeganeh,  S. R. Yost,  A. Zech,  Igor Ying Zhang,  Xing Zhang,  
 Yu Zhang,  D. Zuev,  A. Aspuru-Guzik,  A. T. Bell,  N. A. Besley,  
 K. B. Bravaya,  B. R. Brooks,  D. Casanova,  Jeng-Da Chai,  S. Coriani,  
 C. J. Cramer,  A. E. DePrince, III,  R. A. DiStasio Jr.,  A. Dreuw,  
 B. D. Dunietz,  T. R. Furlani,  W. A. Goddard III,  S. Grimme,  
 S. Hammes-Schiffer,  T. Head-Gordon,  W. J. Hehre,  Chao-Ping Hsu,  
 T.-C. Jagau,  Yousung Jung,  A. Klamt,  Jing Kong,  D. S. Lambrecht,  
 WanZhen Liang,  N. J. Mayhall,  C. W. McCurdy,  J. B. Neaton,  
 C. Ochsenfeld,  J. A. Parkhill,  R. Peverati,  V. A. Rassolov,  Yihan Shao,  
 L. V. Slipchenko,  T. Stauch,  R. P. Steele,  J. E. Subotnik,  
 A. J. W. Thom,  A. Tkatchenko,  D. G. Truhlar,  T. Van Voorhis,  
 T. A. Wesolowski,  K. B. Whaley,  H. L. Woodcock III,  P. M. Zimmerman,  
 S. Faraji,  P. M. W. Gill,  M. Head-Gordon,  J. M. Herbert,  A. I. Krylov

 Additional authors for Version 5.4.1: 
 S. Kotaru,  Shaozhi Li,  Xiangyuan Li,  F. Matz,  A. Molle,  Haisheng Ren,  
 Yingli Su,  Hung-Yi Tsai,  C. Utku,  Fang Wang

 Contributors to earlier versions of Q-Chem not listed above: 
 R. D. Adamson,  B. Austin,  R. Baer,  J. Baker,  G. J. O. Beran,  
 K. Brandhorst,  S. T. Brown,  E. F. C. Byrd,  A. K. Chakraborty,  
 G. K. L. Chan,  Chun-Min Chang,  Yunqing Chen,  C.-L. Cheng,  
 Siu Hung Chien,  D. M. Chipman,  D. L. Crittenden,  H. Dachsel,  
 R. J. Doerksen,  A. D. Dutoi,  R. G. Edgar,  J. Fosso-Tande,  
 L. Fusti-Molnar,  D. Ghosh,  A. Ghysels,  A. Golubeva-Zadorozhnaya,  
 J. Gonthier,  M. S. Gordon,  S. R. Gwaltney,  G. Hawkins,  J. E. Herr,  
 A. Heyden,  S. Hirata,  E. G. Hohenstein,  G. Kedziora,  F. J. Keil,  
 C. Kelley,  Jihan Kim,  R. A. King,  R. Z. Khaliullin,  P. P. Korambath,  
 W. Kurlancheek,  A. Laurent,  A. M. Lee,  M. S. Lee,  S. V. Levchenko,  
 Ching Yeh Lin,  D. Liotard,  E. Livshits,  R. C. Lochan,  I. Lotan,  
 L. A. Martinez-Martinez,  P. E. Maslen,  N. Nair,  D. P. O'Neill,  
 D. Neuhauser,  E. Neuscamman,  C. M. Oana,  R. Olivares-Amaya,  R. Olson,  
 T. M. Perrine,  B. Peters,  P. A. Pieniazek,  A. Prociuk,  Y. M. Rhee,  
 J. Ritchie,  M. A. Rohrdanz,  E. Rosta,  N. J. Russ,  H. F. Schaefer III,  
 M. W. Schmidt,  N. E. Schultz,  S. Sharma,  N. Shenvi,  C. D. Sherrill,  
 A. C. Simmonett,  A. Sodt,  T. Stein,  D. Stuck,  K. S. Thanthiriwatte,  
 V. Vanovschi,  L. Vogt,  Tao Wang,  A. Warshel,  M. A. Watson,  
 C. F. Williams,  Q. Wu,  X. Xu,  Jun Yang,  W. Zhang,  Yan Zhao

 Please cite Q-Chem as follows:
 Y. Shao et al., Mol. Phys. 113, 184-215 (2015)
 DOI: 10.1080/00268976.2014.952696

 Q-Chem 5.4.1 for Intel X86 EM64T Linux

 Parts of Q-Chem use Armadillo 9.800.1 (Horizon Scraper).
 http://arma.sourceforge.net/

 Q-Chem begins on Thu Nov 17 15:39:40 2022  

 Host: cpu186.baobab
0

     Scratch files written to /scratch/fum/qchem59316//
 Processing $rem in /home/share/wesolowski/qc5.aug2021.FDE/config/preferences:
 Processing $rem in /home/fum/.qchemrc:

 Checking the input file for inconsistencies... 	...done.

--------------------------------------------------------------
User input:
--------------------------------------------------------------
$comment
generated from CCJob.Templates
$end

$rem
sym_ignore = true
method = adc(2)
ee_states = 10
basis = cc-pVDZ
mem_static = 1024
mem_total = 40000
adc_davidson_maxiter = 900
adc_davidson_conv = 6
adc_print = 3
adc_prop_es = true
adc_prop_es2es = true
adc_prop_tpa = true
molden_format = True
state_analysis = true
print_orbitals = 15
gen_scfman = false
fde_export_density = true
fde_details = 3
$end

$molecule
0 1
H -0.0348278765 -0.2442097827 0.0636489606
C -1.0765972949 -0.5242748755 -0.0023551776
H -1.313264467 -1.5767591607 -0.0757276926
C -2.043634118 0.3926884087 0.0161254933
H -1.8137616575 1.4459188338 0.0804456828
H -3.085977293 0.114931858 -0.0593381042                     
$end
--------------------------------------------------------------
 ----------------------------------------------------------------
             Standard Nuclear Orientation (Angstroms)
    I     Atom           X                Y                Z
 ----------------------------------------------------------------
    1      H      -0.0348278765    -0.2442097827     0.0636489606
    2      C      -1.0765972949    -0.5242748755    -0.0023551776
    3      H      -1.3132644670    -1.5767591607    -0.0757276926
    4      C      -2.0436341180     0.3926884087     0.0161254933
    5      H      -1.8137616575     1.4459188338     0.0804456828
    6      H      -3.0859772930     0.1149318580    -0.0593381042
 ----------------------------------------------------------------
 Nuclear Repulsion Energy =          33.42242244 hartrees
 There are        8 alpha and        8 beta electrons
 Requested basis set is cc-pVDZ
 There are 24 shells and 48 basis functions
 Total memory of 40000 MB is distributed as follows: 
   MEM_STATIC is set to 1024 MB
   QALLOC/CCMAN JOB total memory use is  38976 MB
 Warning: actual memory use might exceed 40000 MB

 Total QAlloc Memory Limit  40000 MB
 Mega-Array Size      1001 MB
 MEM_STATIC part      1024 MB

                       Distance Matrix (Angstroms)
             H (  1)   C (  2)   H (  3)   C (  4)   H (  5)
   C (  2)  1.080776
   H (  3)  1.851895  1.081258
   C (  4)  2.107890  1.332788  2.102522
   H (  5)  2.453859  2.105215  3.067812  1.079941
   H (  6)  3.074674  2.109370  2.450428  1.081352  1.846510

 A cutoff of  1.0D-11 yielded    300 shell pairs
 There are      1220 function pairs (      1329 Cartesian)
 Smallest overlap matrix eigenvalue = 4.81E-03

 Scale SEOQF with 1.000000e-01/1.000000e-01/1.000000e+00

 Standard Electronic Orientation quadrupole field applied
 Nucleus-field energy     =     0.0000000022 hartrees
 Guess from superposition of atomic densities
 Warning:  Energy on first SCF cycle will be non-variational
 SAD guess density has 16.000000 electrons
 A restricted Hartree-Fock SCF calculation will be
 performed using Pulay DIIS extrapolation
 SCF converges when DIIS error is below 1.0E-08
 using 10 threads for integral computing
 -------------------------------------------------------
 OpenMP Integral computing Module                
 Release: version 1.0, May 2013, Q-Chem Inc. Pittsburgh 
 -------------------------------------------------------
 ---------------------------------------
  Cycle       Energy         DIIS Error
 ---------------------------------------
    1     -78.4386343475      1.01E-01
    2     -78.0176675546      7.21E-03
    3     -78.0382976886      1.84E-03
    4     -78.0397804463      5.73E-04
    5     -78.0399020009      5.79E-05
    6     -78.0399038771      9.35E-06
    7     -78.0399039378      2.27E-06
    8     -78.0399039407      9.34E-07
    9     -78.0399039410      9.27E-08
   10     -78.0399039410      1.30E-08
   11     -78.0399039410      3.60E-09 Convergence criterion met
 ---------------------------------------
 SCF time:  CPU 2.40 s  wall 2.50 s
 SCF   energy in the final basis set = -78.03990394
 Total energy in the final basis set = -78.03990394
Exporting Density Matrix to file 'Densmat_SCF.txt'.
Export successful
================================================================================
|                                                                              |
|                                 A D C  M A N                                 |
|                                                                              |
 ------------------------------------------------------------------------------ 
|                                                                              |
| Components:                                                                  |
|                                                                              |
| - libvmm - 1.3-trunk                                                         |
|   Authors:                                                                   |
|   Evgeny Epifanovsky, Ilya Kaliman                                           |
|                                                                              |
| - libtensor - 2.5-trunk                                                      |
|   Authors:                                                                   |
|   Evgeny Epifanovsky, Michael Wormit, Dmitry Zuev, Sam Manzer,               |
|   Ilya Kaliman                                                               |
|                                                                              |
| - libwfa - 1.1-trunk                                                         |
|   Authors:                                                                   |
|   Felix Plasser, Stefanie Mewes (Baeppler), Benjamin Thomitzni,              |
|   Michael Wormit, Feng Chen, Anna I. Krylov, Pavel Pokhilko                  |
|                                                                              |
| - libadc - 1.1-trunk                                                         |
|   Authors:                                                                   |
|   Michael Wormit, Adrian L. Dempwolff, Philipp H. P. Harbach,                |
|   Caroline Krauter, Dirk Rehn, Matthias Schneider, Jan Wenzel                |
|                                                                              |
| - adcman - 2.6-trunk                                                         |
|   Authors:                                                                   |
|   Michael Wormit, Adrian L. Dempwolff, Philipp H. P. Harbach,                |
|   Caroline Krauter, Daniel Lefrancois, Jan-Michael Mewes, Dirk Rehn,         |
|   Matthias Schneider, Jan Wenzel, Andreas Dreuw                              |
|                                                                              |
| Authors of earlier versions of ADCMAN:                                       |
| Andreas Dreuw, Jan Hendrik Starcke, Dirk Rehn, Michael Wormit                |
|                                                                              |
================================================================================

 Created directory /scratch/fum/qchem59316/plots
  Import QC data ...  CPU 0.00 s  wall 0.00 s

 Alpha MOs, Restricted
 -- Occupied --                  
-11.235 -11.233  -1.032  -0.790  -0.641  -0.582  -0.505  -0.374
  1 A     2 A     3 A     4 A     5 A     6 A     7 A     8 A                  
 -- Virtual --                   
  0.168   0.204   0.233   0.239   0.303   0.462   0.578   0.615
  9 A    10 A    11 A    12 A    13 A    14 A    15 A    16 A                  
  0.689   0.709   0.785   0.808   0.862   0.936   0.972   1.010
 17 A    18 A    19 A    20 A    21 A    22 A    23 A    24 A                  
  1.130   1.235   1.254   1.266   1.294   1.601   1.727   1.750
 25 A    26 A    27 A    28 A    29 A    30 A    31 A    32 A                  
  1.819   1.859   1.867   1.921   1.977   1.978   2.221   2.258
 33 A    34 A    35 A    36 A    37 A    38 A    39 A    40 A                  
  2.376   2.454   2.506   2.633   2.721   2.822   3.140   3.398
 41 A    42 A    43 A    44 A    45 A    46 A    47 A    48 A                  

 Beta MOs, Restricted
 -- Occupied --                  
-11.235 -11.233  -1.032  -0.790  -0.641  -0.582  -0.505  -0.374
  1 A     2 A     3 A     4 A     5 A     6 A     7 A     8 A                  
 -- Virtual --                   
  0.168   0.204   0.233   0.239   0.303   0.462   0.578   0.615
  9 A    10 A    11 A    12 A    13 A    14 A    15 A    16 A                  
  0.689   0.709   0.785   0.808   0.862   0.936   0.972   1.010
 17 A    18 A    19 A    20 A    21 A    22 A    23 A    24 A                  
  1.130   1.235   1.254   1.266   1.294   1.601   1.727   1.750
 25 A    26 A    27 A    28 A    29 A    30 A    31 A    32 A                  
  1.819   1.859   1.867   1.921   1.977   1.978   2.221   2.258
 33 A    34 A    35 A    36 A    37 A    38 A    39 A    40 A                  
  2.376   2.454   2.506   2.633   2.721   2.822   3.140   3.398
 41 A    42 A    43 A    44 A    45 A    46 A    47 A    48 A                  
  Import AO data ...  CPU 0.00 s  wall 0.00 s
  Using point group: C1
  Irreducible representations in point group: A
  Molecular orbitals: 
  Occupied MOs:
  Block   0:   1 (  A) A   2 (  A) A   3 (  A) A   4 (  A) A   5 (  A) A
                  -11.24      -11.23      -1.032     -0.7898     -0.6411
               6 (  A) A   7 (  A) A   8 (  A) A
                 -0.5819     -0.5046      -0.374
  Block   1:   1 (  A) B   2 (  A) B   3 (  A) B   4 (  A) B   5 (  A) B
                  -11.24      -11.23      -1.032     -0.7898     -0.6411
               6 (  A) B   7 (  A) B   8 (  A) B
                 -0.5819     -0.5046      -0.374
  Virtual MOs:
  Block   0:   9 (  A) A  10 (  A) A  11 (  A) A  12 (  A) A  13 (  A) A
                  0.1683      0.2037       0.233      0.2394      0.3033
              14 (  A) A  15 (  A) A  16 (  A) A  17 (  A) A  18 (  A) A
                   0.462      0.5775      0.6151      0.6892       0.709
              19 (  A) A  20 (  A) A  21 (  A) A  22 (  A) A
                  0.7845       0.808      0.8623      0.9359
  Block   1:  23 (  A) A  24 (  A) A  25 (  A) A  26 (  A) A  27 (  A) A
                  0.9724        1.01        1.13       1.235       1.254
              28 (  A) A  29 (  A) A  30 (  A) A  31 (  A) A  32 (  A) A
                   1.266       1.294       1.601       1.727        1.75
              33 (  A) A  34 (  A) A  35 (  A) A  36 (  A) A
                   1.819       1.859       1.867       1.921
  Block   2:  37 (  A) A  38 (  A) A  39 (  A) A  40 (  A) A  41 (  A) A
                   1.977       1.978       2.221       2.258       2.376
              42 (  A) A  43 (  A) A  44 (  A) A  45 (  A) A  46 (  A) A
                   2.454       2.506       2.633       2.721       2.822
              47 (  A) A  48 (  A) A
                    3.14       3.398
  Block   3:   9 (  A) B  10 (  A) B  11 (  A) B  12 (  A) B  13 (  A) B
                  0.1683      0.2037       0.233      0.2394      0.3033
              14 (  A) B  15 (  A) B  16 (  A) B  17 (  A) B  18 (  A) B
                   0.462      0.5775      0.6151      0.6892       0.709
              19 (  A) B  20 (  A) B  21 (  A) B  22 (  A) B
                  0.7845       0.808      0.8623      0.9359
  Block   4:  23 (  A) B  24 (  A) B  25 (  A) B  26 (  A) B  27 (  A) B
                  0.9724        1.01        1.13       1.235       1.254
              28 (  A) B  29 (  A) B  30 (  A) B  31 (  A) B  32 (  A) B
                   1.266       1.294       1.601       1.727        1.75
              33 (  A) B  34 (  A) B  35 (  A) B  36 (  A) B
                   1.819       1.859       1.867       1.921
  Block   5:  37 (  A) B  38 (  A) B  39 (  A) B  40 (  A) B  41 (  A) B
                   1.977       1.978       2.221       2.258       2.376
              42 (  A) B  43 (  A) B  44 (  A) B  45 (  A) B  46 (  A) B
                   2.454       2.506       2.633       2.721       2.822
              47 (  A) B  48 (  A) B
                    3.14       3.398
  Import MO data ...  CPU 0.01 s  wall 0.01 s
  Import HF data ...  CPU 0.38 s  wall 0.11 s
  Import 2e integrals ...  CPU 2.04 s  wall 0.33 s

--------------------------------------------------------------------------------
                                   HF Summary                                   
--------------------------------------------------------------------------------
  Energy:                                                  -78.0399039410 a.u.
  Dip. moment [a.u.]:                  [  -0.000235,    0.001038,   -0.004998]
  Total dipole [Debye]:                                               0.012989
  <r^2> [a.u.]:                        [ 175.325968,   34.916022,   11.631111]
  Total <r^2> [a.u.]:                                               221.873101
--------------------------------------------------------------------------------
  HF properties ...  CPU 0.02 s  wall 0.01 s
  MP(1) calculation ...  CPU 0.01 s  wall 0.01 s
  N^6 prerequesite intermediates ...  CPU 0.56 s  wall 0.10 s
  Difference density matrix of state mp2_gs printed to ASCII file 'State_mp2_gs_Difference.txt'
Exporting MP density matrix to file 'Densmat_MP.txt'.
Export successful
  Total density matrix of state mp2_gs printed to ASCII file 'State_mp2_gs_Total.txt'
Exporting MP density matrix to file 'Densmat_MP.txt'.
Export successful

--------------------------------------------------------------------------------
                                 MP(2) Summary                                  
--------------------------------------------------------------------------------
  MP energy contribution:                                   -0.2797138369 a.u.
  Total energy:                                            -78.3196177779 a.u.
  Dip. moment [a.u.]:                  [  -0.000271,    0.000919,   -0.004943]
  Total dipole [Debye]:                                               0.012797
  <r^2> [a.u.]:                        [ 175.372210,   34.956733,   11.462917]
  Total <r^2> [a.u.]:                                               221.791860

  Density matrix analysis:
  ------------------------
  NOs
    Occupation of frontier NOs:
       0.0453   1.9382
    Number of electrons: 16.000000
    Number of unpaired electrons: n_u =  0.40346, n_u,nl =  0.04509
    NO participation ratio (PR_NO): 13.856143
  
  
  Mulliken Population Analysis
  Atom      Charge (e)              h+              e-           Del q
  --------------------------------------------------------------------
   1 H        0.050932        0.014036       -0.011201        0.002834
   2 C       -0.100769        0.093225       -0.098863       -0.005638
   3 H        0.050588        0.014072       -0.011192        0.002880
   4 C       -0.101468        0.093006       -0.098908       -0.005902
   5 H        0.050042        0.014126       -0.011186        0.002940
   6 H        0.050675        0.014079       -0.011193        0.002886
  --------------------------------------------------------------------
  Sum:        0.000000        0.242543       -0.242543        0.000000
  
  Multipole moment analysis of the density matrix
    Molecular charge:                      -0.000000
    Number of electrons:                   16.000000
      Center of electronic charge [Ang]: [ -1.560567,  -0.065633,   0.005892]
    Total nuclear charge:                  16.000000
      Center of nuclear charge [Ang]:    [ -1.560576,  -0.065602,   0.005728]
    Dipole moment [D]:                     0.012797
      Cartesian components [D]:          [ -0.000688,   0.002337,  -0.012563]
    RMS size of the density [Ang]:         1.200850
      Cartesian components [Ang]:        [  0.796214,   0.779421,   0.447869]
  
  Exciton analysis of the difference density matrix
    <r_h> [Ang]:                  [ -1.560581,  -0.065992,   0.006680]
    <r_e> [Ang]:                  [ -1.560502,  -0.065734,   0.006559]
    |<r_e - r_h>| [Ang]:            0.000296
    Hole size [Ang]:                1.393732
      Cartesian components [Ang]: [  0.846782,   0.834014,   0.727922]
    Electron size [Ang]:            1.359770
      Cartesian components [Ang]: [  0.877881,   0.861752,   0.579381]
--------------------------------------------------------------------------------
  MP(2) calculation ...  CPU 0.40 s  wall 0.19 s
  Start ADC(2)-s ...  CPU 0.01 s  wall 0.01 s
  ADC(2) intermediates ...  CPU 0.13 s  wall 0.02 s
  Starting Davidson for singlet states of irrep A ... 
--------------------------------------------------------------------------------
   It NVec Conv  Avg. Norm  Max. Norm  Conv. states           Remark
--------------------------------------------------------------------------------
        10    0  1.330e-01  4.687e-01  0.4119 n n n n n n n n Guess.
    1   20    0  2.319e-02  1.109e-01  0.3262 n n n n n n n n 
    2   30    0  6.079e-03  2.470e-02  0.3214 n n n n n n n n 
    3   40    0  2.066e-03  1.017e-02  0.3211 n n n n n n n n 
    4   50    0  5.290e-04  3.350e-03  0.3210 n n n n n n n n 
    5   20    0  2.914e-04  1.563e-03  0.3210 n n n n n n n n Subspace collapsed.
    6   30    0  2.326e-04  1.282e-03  0.3210 n n n n n n n n 
    7   40    0  1.523e-04  9.716e-04  0.3210 n n n n n n n n 
    8   50    0  8.340e-05  5.607e-04  0.3210 n n n n n n n n 
    9   20    1  4.551e-05  2.912e-04  0.3210 n y n n n n n n Subspace collapsed.
   10   30    2  3.526e-05  1.875e-04  0.3210 n y n y n n n n 
   11   40    3  1.538e-05  8.687e-05  0.3210 n y y y n n n n 
   12   50    6  7.515e-06  4.807e-05  0.3210 y y y y y y n n 
   13   20    6  4.934e-06  3.397e-05  0.3210 y y y y y y n n Subspace collapsed.
   14   30    6  6.730e-06  4.949e-05  0.3210 y y y y y y n n 
   15   40    6  5.420e-06  4.596e-05  0.3210 y y y y y y n n 
   16   50    6  4.255e-06  3.889e-05  0.3210 y y y y y y n n 
   17   20    7  2.114e-06  1.969e-05  0.3210 y y y y y y y n Subspace collapsed.
   18   30    7  1.397e-06  1.314e-05  0.3210 y y y y y y y n 
   19   40    8  7.632e-07  7.274e-06  0.3210 y y y y y y y y 
   20   50    8  7.581e-07  7.269e-06  0.3210 y y y y y y y y 
   21   20    8  4.687e-07  4.530e-06  0.3210 y y y y y y y y Subspace collapsed.
   22   30    8  6.911e-07  6.719e-06  0.3210 y y y y y y y y 
   23   39    8  6.971e-07  6.859e-06  0.3210 y y y y y y y y 
   24   48    9  6.419e-07  6.362e-06  0.3210 y y y y y y y y 
   25   50    9  6.344e-07  6.289e-06  0.3210 y y y y y y y y 
   26   17    9  3.299e-07  3.272e-06  0.3210 y y y y y y y y Subspace collapsed.
   27   23    9  3.095e-07  3.072e-06  0.3210 y y y y y y y y 
   28   29    9  1.801e-07  1.789e-06  0.3210 y y y y y y y y 
   29   34    9  1.447e-07  1.440e-06  0.3210 y y y y y y y y 
   30   34    9  1.447e-07  1.440e-06  0.3210 y y y y y y y y 
   31   44    9  1.518e-07  1.513e-06  0.3210 y y y y y y y y 
   32   48    9  1.815e-07  1.811e-06  0.3210 y y y y y y y y 
   33   50    9  1.179e-07  1.178e-06  0.3210 y y y y y y y y 
   34   14   10  4.967e-08  4.962e-07  0.3210 y y y y y y y y Converged.
--------------------------------------------------------------------------------
  Davidson Summary: 
 ------------------------------------------------------------
  State  0: excitation energy =   0.3210 a.u.   (converged)
  State  1: excitation energy =   0.3327 a.u.   (converged)
  State  2: excitation energy =   0.3370 a.u.   (converged)
  State  3: excitation energy =   0.3614 a.u.   (converged)
  State  4: excitation energy =   0.3753 a.u.   (converged)
  State  5: excitation energy =   0.3871 a.u.   (converged)
  State  6: excitation energy =   0.4247 a.u.   (converged)
  State  7: excitation energy =   0.4470 a.u.   (converged)
  State  8: excitation energy =   0.4563 a.u.   (converged)
  State  9: excitation energy =   0.4647 a.u.   (converged)
 ------------------------------------------------------------

  Singlet states of irrep A ...  CPU 167.32 s  wall 51.17 s
  TDMs ...  CPU 1.36 s  wall 0.52 s
  SDMs ...  CPU 3.39 s  wall 1.00 s
  Starting TPA DIIS iterations ... 
------------------------------------ 
   It     Res. Norm  Remark
------------------------------------
                       Guess.
    1     4.408e+00  
    2     5.845e+00  
    3     1.078e+00  
    4     2.570e-01  
    5     6.579e-02  
    6     2.678e-02  
    7     8.243e-03  
    8     1.444e-03  
    9     5.357e-04  
   10     9.042e-05  
   11     2.864e-05  
   12     4.541e-06  
   13     1.517e-06  
   14     4.696e-07  Converged.
   ... Converged in 14 steps (norm: 4.69594e-07)
------------------------------------
  Starting TPA DIIS iterations ... 
------------------------------------ 
   It     Res. Norm  Remark
------------------------------------
                       Guess.
    1     4.183e+00  
    2     5.539e+00  
    3     1.029e+00  
    4     2.555e-01  
    5     6.539e-02  
    6     2.672e-02  
    7     8.116e-03  
    8     1.455e-03  
    9     5.381e-04  
   10     8.987e-05  
   11     2.868e-05  
   12     4.398e-06  
   13     1.579e-06  
   14     4.429e-07  Converged.
   ... Converged in 14 steps (norm: 4.42904e-07)
------------------------------------
  Starting TPA DIIS iterations ... 
------------------------------------ 
   It     Res. Norm  Remark
------------------------------------
                       Guess.
    1     6.991e-01  
    2     5.087e-01  
    3     1.792e-01  
    4     1.245e-01  
    5     1.699e-02  
    6     6.195e-03  
    7     1.037e-03  
    8     4.481e-04  
    9     1.239e-04  
   10     2.950e-05  
   11     5.278e-06  
   12     1.645e-06  
   13     1.105e-06  
   14     3.592e-07  Converged.
   ... Converged in 14 steps (norm: 3.59202e-07)
------------------------------------
  Starting TPA DIIS iterations ... 
------------------------------------ 
   It     Res. Norm  Remark
------------------------------------
                       Guess.
    1     4.696e+00  
    2     6.363e+00  
    3     1.159e+00  
    4     2.856e-01  
    5     7.414e-02  
    6     3.044e-02  
    7     9.352e-03  
    8     1.636e-03  
    9     6.115e-04  
   10     1.038e-04  
   11     3.326e-05  
   12     5.332e-06  
   13     1.806e-06  
   14     5.573e-07  Converged.
   ... Converged in 14 steps (norm: 5.57253e-07)
------------------------------------
  Starting TPA DIIS iterations ... 
------------------------------------ 
   It     Res. Norm  Remark
------------------------------------
                       Guess.
    1     4.456e+00  
    2     6.029e+00  
    3     1.106e+00  
    4     2.838e-01  
    5     7.370e-02  
    6     3.039e-02  
    7     9.210e-03  
    8     1.649e-03  
    9     6.142e-04  
   10     1.031e-04  
   11     3.328e-05  
   12     5.146e-06  
   13     1.888e-06  
   14     5.239e-07  Converged.
   ... Converged in 14 steps (norm: 5.23863e-07)
------------------------------------
  Starting TPA DIIS iterations ... 
------------------------------------ 
   It     Res. Norm  Remark
------------------------------------
                       Guess.
    1     7.125e-01  
    2     5.297e-01  
    3     1.904e-01  
    4     1.375e-01  
    5     1.841e-02  
    6     6.843e-03  
    7     1.172e-03  
    8     5.283e-04  
    9     1.498e-04  
   10     3.376e-05  
   11     6.008e-06  
   12     1.900e-06  
   13     1.300e-06  
   14     4.408e-07  Converged.
   ... Converged in 14 steps (norm: 4.40841e-07)
------------------------------------
  Starting TPA DIIS iterations ... 
------------------------------------ 
   It     Res. Norm  Remark
------------------------------------
                       Guess.
    1     4.810e+00  
    2     6.570e+00  
    3     1.191e+00  
    4     2.973e-01  
    5     7.754e-02  
    6     3.194e-02  
    7     9.803e-03  
    8     1.714e-03  
    9     6.425e-04  
   10     1.092e-04  
   11     3.518e-05  
   12     5.662e-06  
   13     1.928e-06  
   14     5.940e-07  Converged.
   ... Converged in 14 steps (norm: 5.94027e-07)
------------------------------------
  Starting TPA DIIS iterations ... 
------------------------------------ 
   It     Res. Norm  Remark
------------------------------------
                       Guess.
    1     4.563e+00  
    2     6.225e+00  
    3     1.137e+00  
    4     2.953e-01  
    5     7.709e-02  
    6     3.189e-02  
    7     9.655e-03  
    8     1.728e-03  
    9     6.453e-04  
   10     1.086e-04  
   11     3.518e-05  
   12     5.456e-06  
   13     2.020e-06  
   14     5.580e-07  Converged.
   ... Converged in 14 steps (norm: 5.57976e-07)
------------------------------------
  Starting TPA DIIS iterations ... 
------------------------------------ 
   It     Res. Norm  Remark
------------------------------------
                       Guess.
    1     7.175e-01  
    2     5.379e-01  
    3     1.948e-01  
    4     1.426e-01  
    5     1.898e-02  
    6     7.106e-03  
    7     1.227e-03  
    8     5.619e-04  
    9     1.606e-04  
   10     3.518e-05  
   11     6.302e-06  
   12     2.004e-06  
   13     1.380e-06  
   14     4.756e-07  Converged.
   ... Converged in 14 steps (norm: 4.75631e-07)
------------------------------------
  Starting TPA DIIS iterations ... 
------------------------------------ 
   It     Res. Norm  Remark
------------------------------------
                       Guess.
    1     5.551e+00  
    2     7.952e+00  
    3     1.399e+00  
    4     3.776e-01  
    5     1.009e-01  
    6     4.234e-02  
    7     1.291e-02  
    8     2.250e-03  
    9     8.584e-04  
   10     1.473e-04  
   11     4.887e-05  
   12     8.034e-06  
   13     2.844e-06  
   14     8.639e-07  Converged.
   ... Converged in 14 steps (norm: 8.63938e-07)
------------------------------------
  Starting TPA DIIS iterations ... 
------------------------------------ 
   It     Res. Norm  Remark
------------------------------------
                       Guess.
    1     5.264e+00  
    2     7.535e+00  
    3     1.334e+00  
    4     3.743e-01  
    5     1.004e-01  
    6     4.234e-02  
    7     1.273e-02  
    8     2.272e-03  
    9     8.618e-04  
   10     1.464e-04  
   11     4.873e-05  
   12     7.669e-06  
   13     3.014e-06  
   14     8.143e-07  Converged.
   ... Converged in 14 steps (norm: 8.14261e-07)
------------------------------------
  Starting TPA DIIS iterations ... 
------------------------------------ 
   It     Res. Norm  Remark
------------------------------------
                       Guess.
    1     7.481e-01  
    2     5.898e-01  
    3     2.228e-01  
    4     1.746e-01  
    5     2.277e-02  
    6     8.917e-03  
    7     1.626e-03  
    8     7.998e-04  
    9     2.360e-04  
   10     4.068e-05  
   11     8.325e-06  
   12     2.725e-06  
   13     1.924e-06  
   14     7.361e-07  Converged.
   ... Converged in 14 steps (norm: 7.36093e-07)
------------------------------------
  Starting TPA DIIS iterations ... 
------------------------------------ 
   It     Res. Norm  Remark
------------------------------------
                       Guess.
    1     6.061e+00  
    2     8.936e+00  
    3     1.541e+00  
    4     4.370e-01  
    5     1.182e-01  
    6     5.012e-02  
    7     1.521e-02  
    8     2.645e-03  
    9     1.020e-03  
   10     1.759e-04  
   11     5.942e-05  
   12     9.884e-06  
   13     3.594e-06  
   14     1.081e-06  
   15     4.410e-07  Converged.
   ... Converged in 15 steps (norm: 4.40953e-07)
------------------------------------
  Starting TPA DIIS iterations ... 
------------------------------------ 
   It     Res. Norm  Remark
------------------------------------
                       Guess.
    1     5.746e+00  
    2     8.467e+00  
    3     1.469e+00  
    4     4.326e-01  
    5     1.176e-01  
    6     5.017e-02  
    7     1.500e-02  
    8     2.672e-03  
    9     1.024e-03  
   10     1.746e-04  
   11     5.914e-05  
   12     9.369e-06  
   13     3.842e-06  
   14     1.033e-06  
   15     6.188e-07  Converged.
   ... Converged in 15 steps (norm: 6.18758e-07)
------------------------------------
  Starting TPA DIIS iterations ... 
------------------------------------ 
   It     Res. Norm  Remark
------------------------------------
                       Guess.
    1     7.671e-01  
    2     6.245e-01  
    3     2.417e-01  
    4     1.951e-01  
    5     2.547e-02  
    6     1.026e-02  
    7     1.938e-03  
    8     9.711e-04  
    9     2.893e-04  
   10     4.190e-05  
   11     9.858e-06  
   12     3.256e-06  
   13     2.315e-06  
   14     9.472e-07  Converged.
   ... Converged in 14 steps (norm: 9.47246e-07)
------------------------------------
  Starting TPA DIIS iterations ... 
------------------------------------ 
   It     Res. Norm  Remark
------------------------------------
                       Guess.
    1     6.561e+00  
    2     9.926e+00  
    3     1.679e+00  
    4     4.982e-01  
    5     1.360e-01  
    6     5.822e-02  
    7     1.759e-02  
    8     3.052e-03  
    9     1.188e-03  
   10     2.056e-04  
   11     7.060e-05  
   12     1.186e-05  
   13     4.426e-06  
   14     1.321e-06  
   15     5.559e-07  Converged.
   ... Converged in 15 steps (norm: 5.55907e-07)
------------------------------------
  Starting TPA DIIS iterations ... 
------------------------------------ 
   It     Res. Norm  Remark
------------------------------------
                       Guess.
    1     6.220e+00  
    2     9.404e+00  
    3     1.600e+00  
    4     4.927e-01  
    5     1.354e-01  
    6     5.832e-02  
    7     1.734e-02  
    8     3.085e-03  
    9     1.192e-03  
   10     2.040e-04  
   11     7.011e-05  
   12     1.116e-05  
   13     4.772e-06  
   14     1.290e-06  
   15     8.094e-07  Converged.
   ... Converged in 15 steps (norm: 8.09439e-07)
------------------------------------
  Starting TPA DIIS iterations ... 
------------------------------------ 
   It     Res. Norm  Remark
------------------------------------
                       Guess.
    1     7.844e-01  
    2     6.578e-01  
    3     2.599e-01  
    4     2.139e-01  
    5     2.818e-02  
    6     1.163e-02  
    7     2.271e-03  
    8     1.134e-03  
    9     3.408e-04  
   10     4.250e-05  
   11     1.149e-05  
   12     3.805e-06  
   13     2.714e-06  
   14     1.177e-06  
   15     4.544e-07  Converged.
   ... Converged in 15 steps (norm: 4.54378e-07)
------------------------------------
  Starting TPA DIIS iterations ... 
------------------------------------ 
   It     Res. Norm  Remark
------------------------------------
                       Guess.
    1     8.674e+00  
    2     1.435e+01  
    3     2.254e+00  
    4     7.844e-01  
    5     2.194e-01  
    6     9.688e-02  
    7     2.869e-02  
    8     4.950e-03  
    9     1.993e-03  
   10     3.466e-04  
   11     1.250e-04  
   12     2.174e-05  
   13     8.919e-06  
   14     2.641e-06  
   15     1.192e-06  
   16     3.598e-07  Converged.
   ... Converged in 16 steps (norm: 3.59811e-07)
------------------------------------
  Starting TPA DIIS iterations ... 
------------------------------------ 
   It     Res. Norm  Remark
------------------------------------
                       Guess.
    1     8.218e+00  
    2     1.359e+01  
    3     2.146e+00  
    4     7.725e-01  
    5     2.185e-01  
    6     9.728e-02  
    7     2.830e-02  
    8     5.008e-03  
    9     1.993e-03  
   10     3.430e-04  
   11     1.231e-04  
   12     1.982e-05  
   13     1.001e-05  
   14     3.046e-06  
   15     1.982e-06  
   16     8.416e-07  Converged.
   ... Converged in 16 steps (norm: 8.41642e-07)
------------------------------------
  Starting TPA DIIS iterations ... 
------------------------------------ 
   It     Res. Norm  Remark
------------------------------------
                       Guess.
    1     8.482e-01  
    2     7.951e-01  
    3     3.332e-01  
    4     2.802e-01  
    5     4.018e-02  
    6     1.798e-02  
    7     3.943e-03  
    8     1.654e-03  
    9     5.394e-04  
   10     5.260e-05  
   11     1.987e-05  
   12     6.528e-06  
   13     4.938e-06  
   14     2.418e-06  
   15     1.329e-06  
   16     7.604e-07  Converged.
   ... Converged in 16 steps (norm: 7.6037e-07)
------------------------------------
  Starting TPA DIIS iterations ... 
------------------------------------ 
   It     Res. Norm  Remark
------------------------------------
                       Guess.
    1     1.050e+01  
    2     1.845e+01  
    3     2.737e+00  
    4     1.059e+00  
    5     3.002e-01  
    6     1.352e-01  
    7     3.945e-02  
    8     6.786e-03  
    9     2.793e-03  
   10     4.851e-04  
   11     1.786e-04  
   12     3.206e-05  
   13     1.387e-05  
   14     4.187e-06  
   15     1.991e-06  
   16     6.141e-07  Converged.
   ... Converged in 16 steps (norm: 6.1413e-07)
------------------------------------
  Starting TPA DIIS iterations ... 
------------------------------------ 
   It     Res. Norm  Remark
------------------------------------
                       Guess.
    1     9.944e+00  
    2     1.747e+01  
    3     2.605e+00  
    4     1.040e+00  
    5     2.991e-01  
    6     1.360e-01  
    7     3.893e-02  
    8     6.866e-03  
    9     2.785e-03  
   10     4.788e-04  
   11     1.752e-04  
   12     2.846e-05  
   13     1.619e-05  
   14     5.634e-06  
   15     3.547e-06  
   16     1.605e-06  
   17     7.862e-07  Converged.
   ... Converged in 17 steps (norm: 7.86193e-07)
------------------------------------
  Starting TPA DIIS iterations ... 
------------------------------------ 
   It     Res. Norm  Remark
------------------------------------
                       Guess.
    1     8.954e-01  
    2     9.125e-01  
    3     3.918e-01  
    4     3.247e-01  
    5     5.112e-02  
    6     2.372e-02  
    7     5.627e-03  
    8     1.867e-03  
    9     6.919e-04  
   10     7.193e-05  
   11     2.878e-05  
   12     9.622e-06  
   13     8.032e-06  
   14     4.046e-06  
   15     2.419e-06  
   16     1.426e-06  
   17     7.782e-07  Converged.
   ... Converged in 17 steps (norm: 7.78188e-07)
------------------------------------
  Starting TPA DIIS iterations ... 
------------------------------------ 
   It     Res. Norm  Remark
------------------------------------
                       Guess.
    1     1.144e+01  
    2     2.065e+01  
    3     2.981e+00  
    4     1.208e+00  
    5     3.445e-01  
    6     1.566e-01  
    7     4.535e-02  
    8     7.794e-03  
    9     3.240e-03  
   10     5.614e-04  
   11     2.082e-04  
   12     3.802e-05  
   13     1.672e-05  
   14     5.138e-06  
   15     2.538e-06  
   16     7.782e-07  Converged.
   ... Converged in 16 steps (norm: 7.78166e-07)
------------------------------------
  Starting TPA DIIS iterations ... 
------------------------------------ 
   It     Res. Norm  Remark
------------------------------------
                       Guess.
    1     1.083e+01  
    2     1.956e+01  
    3     2.837e+00  
    4     1.185e+00  
    5     3.434e-01  
    6     1.575e-01  
    7     4.475e-02  
    8     7.884e-03  
    9     3.224e-03  
   10     5.533e-04  
   11     2.038e-04  
   12     3.330e-05  
   13     1.992e-05  
   14     7.355e-06  
   15     4.601e-06  
   16     2.120e-06  
   17     9.731e-07  Converged.
   ... Converged in 17 steps (norm: 9.7315e-07)
------------------------------------
  Starting TPA DIIS iterations ... 
------------------------------------ 
   It     Res. Norm  Remark
------------------------------------
                       Guess.
    1     9.180e-01  
    2     9.735e-01  
    3     4.203e-01  
    4     3.449e-01  
    5     5.692e-02  
    6     2.663e-02  
    7     6.546e-03  
    8     1.925e-03  
    9     7.663e-04  
   10     8.339e-05  
   11     3.387e-05  
   12     1.158e-05  
   13     1.017e-05  
   14     5.142e-06  
   15     3.078e-06  
   16     1.856e-06  
   17     1.019e-06  
   18     2.668e-07  Converged.
   ... Converged in 18 steps (norm: 2.66794e-07)
------------------------------------
  Starting TPA DIIS iterations ... 
------------------------------------ 
   It     Res. Norm  Remark
------------------------------------
                       Guess.
    1     1.242e+01  
    2     2.301e+01  
    3     3.233e+00  
    4     1.368e+00  
    5     3.924e-01  
    6     1.798e-01  
    7     5.173e-02  
    8     8.885e-03  
    9     3.727e-03  
   10     6.441e-04  
   11     2.404e-04  
   12     4.467e-05  
   13     1.988e-05  
   14     6.255e-06  
   15     3.230e-06  
   16     9.754e-07  Converged.
   ... Converged in 16 steps (norm: 9.75424e-07)
------------------------------------
  Starting TPA DIIS iterations ... 
------------------------------------ 
   It     Res. Norm  Remark
------------------------------------
                       Guess.
    1     1.176e+01  
    2     2.179e+01  
    3     3.076e+00  
    4     1.340e+00  
    5     3.912e-01  
    6     1.810e-01  
    7     5.105e-02  
    8     8.985e-03  
    9     3.703e-03  
   10     6.339e-04  
   11     2.350e-04  
   12     3.863e-05  
   13     2.417e-05  
   14     9.408e-06  
   15     5.901e-06  
   16     2.759e-06  
   17     1.189e-06  
   18     5.732e-07  Converged.
   ... Converged in 18 steps (norm: 5.73247e-07)
------------------------------------
  Starting TPA DIIS iterations ... 
------------------------------------ 
   It     Res. Norm  Remark
------------------------------------
                       Guess.
    1     9.408e-01  
    2     1.038e+00  
    3     4.487e-01  
    4     3.645e-01  
    5     6.307e-02  
    6     2.956e-02  
    7     7.527e-03  
    8     1.969e-03  
    9     8.416e-04  
   10     9.562e-05  
   11     3.950e-05  
   12     1.392e-05  
   13     1.290e-05  
   14     6.472e-06  
   15     3.874e-06  
   16     2.365e-06  
   17     1.307e-06  
   18     3.402e-07  Converged.
   ... Converged in 18 steps (norm: 3.40248e-07)
------------------------------------
  Two-photon absorbption ...  CPU 124.53 s  wall 31.20 s
  Transition density matrix of state singlet_A_1 printed to ASCII file 'State_singlet_A_1_Transition.txt'
  Transition density matrix of state singlet_A_2 printed to ASCII file 'State_singlet_A_2_Transition.txt'
  Transition density matrix of state singlet_A_3 printed to ASCII file 'State_singlet_A_3_Transition.txt'
  Transition density matrix of state singlet_A_4 printed to ASCII file 'State_singlet_A_4_Transition.txt'
  Transition density matrix of state singlet_A_5 printed to ASCII file 'State_singlet_A_5_Transition.txt'
  Transition density matrix of state singlet_A_6 printed to ASCII file 'State_singlet_A_6_Transition.txt'
  Transition density matrix of state singlet_A_7 printed to ASCII file 'State_singlet_A_7_Transition.txt'
  Transition density matrix of state singlet_A_8 printed to ASCII file 'State_singlet_A_8_Transition.txt'
  Transition density matrix of state singlet_A_9 printed to ASCII file 'State_singlet_A_9_Transition.txt'
  Transition density matrix of state singlet_A_10 printed to ASCII file 'State_singlet_A_10_Transition.txt'
  Transition properties ...  CPU 0.28 s  wall 0.57 s
  Difference density matrix of state singlet_A_1 printed to ASCII file 'State_singlet_A_1_Difference.txt'
  Total density matrix of state singlet_A_1 printed to ASCII file 'State_singlet_A_1_Total.txt'
  Difference density matrix of state singlet_A_2 printed to ASCII file 'State_singlet_A_2_Difference.txt'
  Total density matrix of state singlet_A_2 printed to ASCII file 'State_singlet_A_2_Total.txt'
  Difference density matrix of state singlet_A_3 printed to ASCII file 'State_singlet_A_3_Difference.txt'
  Total density matrix of state singlet_A_3 printed to ASCII file 'State_singlet_A_3_Total.txt'
  Difference density matrix of state singlet_A_4 printed to ASCII file 'State_singlet_A_4_Difference.txt'
  Total density matrix of state singlet_A_4 printed to ASCII file 'State_singlet_A_4_Total.txt'
  Difference density matrix of state singlet_A_5 printed to ASCII file 'State_singlet_A_5_Difference.txt'
  Total density matrix of state singlet_A_5 printed to ASCII file 'State_singlet_A_5_Total.txt'
  Difference density matrix of state singlet_A_6 printed to ASCII file 'State_singlet_A_6_Difference.txt'
  Total density matrix of state singlet_A_6 printed to ASCII file 'State_singlet_A_6_Total.txt'
  Difference density matrix of state singlet_A_7 printed to ASCII file 'State_singlet_A_7_Difference.txt'
  Total density matrix of state singlet_A_7 printed to ASCII file 'State_singlet_A_7_Total.txt'
  Difference density matrix of state singlet_A_8 printed to ASCII file 'State_singlet_A_8_Difference.txt'
  Total density matrix of state singlet_A_8 printed to ASCII file 'State_singlet_A_8_Total.txt'
  Difference density matrix of state singlet_A_9 printed to ASCII file 'State_singlet_A_9_Difference.txt'
  Total density matrix of state singlet_A_9 printed to ASCII file 'State_singlet_A_9_Total.txt'
  Difference density matrix of state singlet_A_10 printed to ASCII file 'State_singlet_A_10_Difference.txt'
  Total density matrix of state singlet_A_10 printed to ASCII file 'State_singlet_A_10_Total.txt'
  Properties ...  CPU 0.51 s  wall 0.70 s
  ISR TDMS ...  CPU 18.39 s  wall 5.86 s
  ISR transition properties ...  CPU 0.36 s  wall 0.18 s
  Sum-over-states TPA ...  CPU 0.00 s  wall 0.00 s

--------------------------------------------------------------------------------
                   State-averaged natural transition orbitals
--------------------------------------------------------------------------------
--------------------------------------------------------------------------------
  SA-NTO decomposition ...  CPU 0.01 s  wall 0.02 s

--------------------------------------------------------------------------------
                             Excited State Summary
--------------------------------------------------------------------------------
--------------------------------------------------------------------------------

  Excited state 1 (singlet, A)                                     [converged]
  ----------------------------------------------------------------------------
  Term symbol:  2 (1) A                                     R^2 =  2.10472e-13

  Total energy:                                            -77.9985821122 a.u.
  Excitation energy:                                               8.735825 eV

  Osc. strength:                                                      0.445466
  Trans. dip. moment [a.u.]:           [   1.045845,   -0.993533,   -0.022063]
  <i|r^2|0> [a.u.]:                    [   6.169434,   -0.249848,    0.000817]
  Two-photon absorption cross-section (SoS) [a.u.]:                   0.000839
  Two-photon absorption matrix (SoS) [a.u.]:
                                       |    0.006181   -0.001634    0.003835 |
                                       |   -0.001634    0.001191   -0.002862 |
                                       |    0.003835   -0.002862    0.005741 |
  Two-photon absorption cross-section [a.u.]:                         0.001320
  Two-photon absorption matrix [a.u.]:
                                       |    0.001462   -0.002714    0.009426 |
                                       |   -0.002714   -0.004988   -0.006815 |
                                       |    0.009426   -0.006815    0.004167 |

  Dip. moment [a.u.]:                  [   0.000099,    0.000583,   -0.006106]
  Total dipole [Debye]:                                               0.015593
  <r^2> [a.u.]:                        [ 176.128719,   35.648249,   11.872606]
  Total <r^2> [a.u.]:                                               223.649574

  V1^2 = 0.9715, V2^2 = 0.0285

  Important amplitudes:
      occ i     occ j     vir a      vir b          v   
    -----------------------------------------------------
     8 (A) A              9 (A) A                 0.6811
     6 (A) A             14 (A) A                -0.0623
     4 (A) A             10 (A) A                -0.0606
     7 (A) A             16 (A) A                 0.0569
     5 (A) A             13 (A) A                -0.0513
     6 (A) A             23 (A) A                -0.0486
     8 (A) A             20 (A) A                 0.0349
     6 (A) A             19 (A) A                -0.0309
     3 (A) A             12 (A) A                 0.0281
     5 (A) A             22 (A) A                 0.0215
     7 (A) A             11 (A) A                 0.0209
     4 (A) A             24 (A) A                -0.0187
     3 (A) A             26 (A) A                -0.0185
     8 (A) A   8 (A) B   17 (A) A   20 (A) B     -0.0184
     8 (A) A   8 (A) B    9 (A) A   28 (A) B     -0.0168
     6 (A) A             26 (A) A                -0.0163
     7 (A) A             21 (A) A                 0.0148
     3 (A) A             14 (A) A                -0.0139
     6 (A) A             12 (A) A                -0.0132
     3 (A) A   4 (A) B    9 (A) A    9 (A) B      0.0129
     3 (A) A             19 (A) A                -0.0119
     8 (A) A   8 (A) B   18 (A) A   19 (A) B      0.0113
     7 (A) A             32 (A) A                 0.0096
     7 (A) A             36 (A) A                 0.0086
     3 (A) A             23 (A) A                -0.0080
     8 (A) A   8 (A) B   25 (A) A   29 (A) B      0.0076
     6 (A) A             35 (A) A                -0.0072
     6 (A) A             40 (A) A                -0.0068
     3 (A) A   6 (A) B    9 (A) A   28 (A) B     -0.0065
     6 (A) A   8 (A) A   19 (A) A   28 (A) A     -0.0061
     5 (A) A   7 (A) B    9 (A) A    9 (A) B     -0.0060
     5 (A) A   8 (A) B   11 (A) A   20 (A) B     -0.0059
     7 (A) A   8 (A) B   13 (A) A   20 (A) B      0.0059
     5 (A) A   8 (A) B   16 (A) A    9 (A) B     -0.0059
     5 (A) A   8 (A) B   11 (A) A    9 (A) B      0.0059
     3 (A) A   5 (A) B    9 (A) A   25 (A) B     -0.0058
     7 (A) A   8 (A) B   22 (A) A   20 (A) B     -0.0057
     3 (A) A             40 (A) A                -0.0057
     6 (A) A   8 (A) A    9 (A) A   18 (A) A     -0.0057
     8 (A) A   8 (A) B   19 (A) A   30 (A) B      0.0056
    -----------------------------------------------------

  Density matrix analysis:
  ------------------------
  NOs
    Occupation of frontier NOs:
       0.9495   1.0217
    Number of electrons: 16.000000
    Number of unpaired electrons: n_u =  2.31341, n_u,nl =  2.03264
    NO participation ratio (PR_NO):  2.863865
  
  
  Mulliken Population Analysis
  Atom      Charge (e)              h+              e-           Del q
  --------------------------------------------------------------------
   1 H        0.058659        0.020288       -0.012562        0.007726
   2 C       -0.115912        0.490881       -0.506023       -0.015143
   3 H        0.058157        0.020182       -0.012613        0.007569
   4 C       -0.116898        0.490733       -0.506163       -0.015430
   5 H        0.057610        0.020215       -0.012647        0.007567
   6 H        0.058384        0.020327       -0.012618        0.007709
  --------------------------------------------------------------------
  Sum:        0.000000        1.062627       -1.062627        0.000000
  
  Multipole moment analysis of the density matrix
    Molecular charge:                      -0.000000
    Number of electrons:                   16.000000
      Center of electronic charge [Ang]: [ -1.560580,  -0.065622,   0.005930]
    Total nuclear charge:                  16.000000
      Center of nuclear charge [Ang]:    [ -1.560576,  -0.065602,   0.005728]
    Dipole moment [D]:                     0.015593
      Cartesian components [D]:          [  0.000252,   0.001481,  -0.015521]
    RMS size of the density [Ang]:         1.214297
      Cartesian components [Ang]:        [  0.804461,   0.787148,   0.455803]
  
  Exciton analysis of the difference density matrix
    <r_h> [Ang]:                  [ -1.560351,  -0.065884,   0.008406]
    <r_e> [Ang]:                  [ -1.560535,  -0.065716,   0.008985]
    |<r_e - r_h>| [Ang]:            0.000631
    Hole size [Ang]:                1.285497
      Cartesian components [Ang]: [  0.728531,   0.712645,   0.783507]
    Electron size [Ang]:            1.463384
      Cartesian components [Ang]: [  0.854131,   0.830732,   0.849610]

  Transition density matrix analysis:
  -----------------------------------
  
  CT numbers (Mulliken)
    omega =     0.9535
    <Phe> =    -0.1607
  
  Exciton analysis of the transition density matrix
    Trans. dipole moment [D]:             1.833490
      Cartesian components [D]:         [  1.329136,  -1.262654,  -0.028039]
    <r_h> [Ang]:                        [ -1.560150,  -0.065972,   0.007944]
    <r_e> [Ang]:                        [ -1.560584,  -0.065735,   0.009378]
    |<r_e - r_h>| [Ang]:                  0.001517
    Hole size [Ang]:                      1.214196
      Cartesian components [Ang]:       [  0.649608,   0.636473,   0.804478]
    Electron size [Ang]:                  1.486250
      Cartesian components [Ang]:       [  0.864604,   0.839611,   0.869744]
    RMS electron-hole separation [Ang]:   1.936923
      Cartesian components [Ang]:       [  1.106917,   1.075286,   1.170541]
    Covariance(r_h, r_e) [Ang^2]:        -0.034228
    Correlation coefficient:             -0.018967
    Center-of-mass size [Ang]:            0.950626
      Cartesian components [Ang]:       [  0.527682,   0.515715,   0.599399]

  Decomposition into state-averaged NTOs
    H- 0 -> L+ 0:  0.6698 ( 89.7%)
    H- 2 -> L+ 5: -0.0837 (  1.4%)
                   omega =  95.4%
  ----------------------------------------------------------------------------


  Excited state 2 (singlet, A)                                     [converged]
  ----------------------------------------------------------------------------
  Term symbol:  3 (1) A                                     R^2 =  7.58793e-14

  Total energy:                                            -77.9869008837 a.u.
  Excitation energy:                                               9.053687 eV

  Osc. strength:                                                      0.000009
  Trans. dip. moment [a.u.]:           [  -0.004308,   -0.000225,   -0.004834]
  <i|r^2|0> [a.u.]:                    [   0.017227,    0.107748,   -0.150393]
  Two-photon absorption cross-section (SoS) [a.u.]:                   4.894817
  Two-photon absorption matrix (SoS) [a.u.]:
                                       |    0.016030    0.057087   -0.543442 |
                                       |    0.057087    0.098439   -0.548912 |
                                       |   -0.543442   -0.548912   -0.118182 |
  Two-photon absorption cross-section [a.u.]:                         0.138866
  Two-photon absorption matrix [a.u.]:
                                       |   -0.093788   -0.011201    0.057704 |
                                       |   -0.011201    0.078330    0.079564 |
                                       |    0.057704    0.079564    0.014591 |

  Dip. moment [a.u.]:                  [  -0.001196,    0.012434,   -0.010694]
  Total dipole [Debye]:                                               0.041795
  <r^2> [a.u.]:                        [ 174.527556,   33.981059,   13.178653]
  Total <r^2> [a.u.]:                                               221.687268

  V1^2 = 0.9542, V2^2 = 0.0458

  Important amplitudes:
      occ i     occ j     vir a      vir b          v   
    -----------------------------------------------------
     7 (A) A              9 (A) A                -0.6692
     8 (A) A             11 (A) A                -0.1480
     7 (A) A             20 (A) A                -0.0759
     5 (A) A   8 (A) B    9 (A) A    9 (A) B      0.0316
     8 (A) A             16 (A) A                 0.0273
     8 (A) A             21 (A) A                -0.0175
     5 (A) A             28 (A) A                 0.0151
     4 (A) A   7 (A) B    9 (A) A   19 (A) B      0.0135
     5 (A) A   7 (A) B    9 (A) A   16 (A) B     -0.0134
     7 (A) A   8 (A) B   20 (A) A   17 (A) B      0.0105
     7 (A) A   8 (A) A    9 (A) A   28 (A) A     -0.0098
     5 (A) A   8 (A) B    9 (A) A   20 (A) B      0.0096
     4 (A) A   6 (A) B    9 (A) A   16 (A) B     -0.0091
     5 (A) A   6 (A) A    9 (A) A   23 (A) A      0.0091
     8 (A) A             10 (A) A                 0.0091
     5 (A) A   6 (A) A    9 (A) A   14 (A) A      0.0089
     5 (A) A   6 (A) B    9 (A) A   19 (A) B      0.0087
     8 (A) A   7 (A) B    9 (A) A   28 (A) B      0.0085
     4 (A) A   5 (A) A    9 (A) A   10 (A) A     -0.0085
     6 (A) A   7 (A) B    9 (A) A   18 (A) B      0.0083
     5 (A) A   6 (A) B    9 (A) A   23 (A) B      0.0080
     3 (A) A   7 (A) B    9 (A) A   18 (A) B     -0.0080
     5 (A) A   7 (A) A    9 (A) A   16 (A) A     -0.0079
     4 (A) A   8 (A) B    9 (A) A   25 (A) B     -0.0076
     7 (A) A   8 (A) B   17 (A) A   20 (A) B      0.0074
     4 (A) A   7 (A) B   19 (A) A    9 (A) B      0.0074
     5 (A) A   5 (A) B    9 (A) A   13 (A) B      0.0072
     7 (A) A   8 (A) B   19 (A) A   18 (A) B     -0.0072
     5 (A) A   8 (A) A    9 (A) A   20 (A) A      0.0069
     4 (A) A   5 (A) B    9 (A) A   18 (A) B      0.0068
     7 (A) A   7 (A) B   20 (A) A   22 (A) B      0.0065
     7 (A) A   8 (A) B   17 (A) A    9 (A) B      0.0065
     5 (A) A   6 (A) B    9 (A) A   14 (A) B      0.0063
     4 (A) A   7 (A) A    9 (A) A   19 (A) A      0.0061
     4 (A) A   5 (A) B   10 (A) A    9 (A) B      0.0061
     5 (A) A   7 (A) B   11 (A) A   20 (A) B      0.0060
     4 (A) A   7 (A) B    9 (A) A   14 (A) B     -0.0060
     5 (A) A             38 (A) A                 0.0060
     6 (A) A   7 (A) A   19 (A) A   28 (A) A      0.0057
     4 (A) A   8 (A) A    9 (A) A   25 (A) A     -0.0057
    -----------------------------------------------------

  Density matrix analysis:
  ------------------------
  NOs
    Occupation of frontier NOs:
       0.9580   1.0537
    Number of electrons: 16.000000
    Number of unpaired electrons: n_u =  2.35535, n_u,nl =  2.06278
    NO participation ratio (PR_NO):  3.027488
  
  
  Mulliken Population Analysis
  Atom      Charge (e)              h+              e-           Del q
  --------------------------------------------------------------------
   1 H        0.149942        0.121938       -0.022928        0.099010
   2 C       -0.301976        0.270841       -0.472048       -0.201207
   3 H        0.151177        0.126697       -0.026108        0.100589
   4 C       -0.302487        0.273133       -0.474151       -0.201019
   5 H        0.154295        0.127104       -0.022851        0.104252
   6 H        0.149049        0.124300       -0.025925        0.098374
  --------------------------------------------------------------------
  Sum:        0.000000        1.044012       -1.044012        0.000000
  
  Multipole moment analysis of the density matrix
    Molecular charge:                      0.000000
    Number of electrons:                   16.000000
      Center of electronic charge [Ang]: [ -1.560537,  -0.066014,   0.006082]
    Total nuclear charge:                  16.000000
      Center of nuclear charge [Ang]:    [ -1.560576,  -0.065602,   0.005728]
    Dipole moment [D]:                     0.041795
      Cartesian components [D]:          [ -0.003040,   0.031604,  -0.027181]
    RMS size of the density [Ang]:         1.200105
      Cartesian components [Ang]:        [  0.786936,   0.768356,   0.480222]
  
  Exciton analysis of the difference density matrix
    <r_h> [Ang]:                  [ -1.565724,  -0.063635,   0.005029]
    <r_e> [Ang]:                  [ -1.565255,  -0.069472,   0.007944]
    |<r_e - r_h>| [Ang]:            0.006541
    Hole size [Ang]:                1.486330
      Cartesian components [Ang]: [  1.001256,   1.000069,   0.454452]
    Electron size [Ang]:            1.477084
      Cartesian components [Ang]: [  0.881718,   0.858873,   0.816510]

  Transition density matrix analysis:
  -----------------------------------
  
  CT numbers (Mulliken)
    omega =     0.9218
    <Phe> =    -0.0122
  
  Exciton analysis of the transition density matrix
    Trans. dipole moment [D]:             0.008234
      Cartesian components [D]:         [ -0.005475,  -0.000285,  -0.006144]
    <r_h> [Ang]:                        [ -1.566350,  -0.062998,   0.004321]
    <r_e> [Ang]:                        [ -1.564974,  -0.070216,   0.008665]
    |<r_e - r_h>| [Ang]:                  0.008537
    Hole size [Ang]:                      1.514995
      Cartesian components [Ang]:       [  1.024099,   1.024328,   0.444054]
    Electron size [Ang]:                  1.474150
      Cartesian components [Ang]:       [  0.872316,   0.848173,   0.832338]
    RMS electron-hole separation [Ang]:   2.094040
      Cartesian components [Ang]:       [  1.329387,   1.314971,   0.942649]
    Covariance(r_h, r_e) [Ang^2]:         0.041699
    Correlation coefficient:              0.018671
    Center-of-mass size [Ang]:            1.066739
      Cartesian components [Ang]:       [  0.680471,   0.672346,   0.472063]

  Decomposition into state-averaged NTOs
    H- 1 -> L+ 0: -0.6616 ( 87.5%)
    H- 0 -> L+ 2:  0.1480 (  4.4%)
                   omega =  92.2%
  ----------------------------------------------------------------------------


  Excited state 3 (singlet, A)                                     [converged]
  ----------------------------------------------------------------------------
  Term symbol:  4 (1) A                                     R^2 =  1.56393e-13

  Total energy:                                            -77.9826075154 a.u.
  Excitation energy:                                               9.170516 eV

  Osc. strength:                                                      0.025311
  Trans. dip. moment [a.u.]:           [  -0.029754,   -0.006689,    0.334258]
  <i|r^2|0> [a.u.]:                    [  -0.180175,   -0.002755,   -0.007107]
  Two-photon absorption cross-section (SoS) [a.u.]:                   0.018122
  Two-photon absorption matrix (SoS) [a.u.]:
                                       |   -0.005195   -0.001287    0.011743 |
                                       |   -0.001287    0.013246    0.007065 |
                                       |    0.011743    0.007065    0.048487 |
  Two-photon absorption cross-section [a.u.]:                         0.020921
  Two-photon absorption matrix [a.u.]:
                                       |    0.012934   -0.008585    0.017309 |
                                       |   -0.008585    0.026682    0.007630 |
                                       |    0.017309    0.007630    0.031254 |

  Dip. moment [a.u.]:                  [   0.006598,    0.017548,    0.008078]
  Total dipole [Debye]:                                               0.051887
  <r^2> [a.u.]:                        [ 180.906213,   40.601508,   11.033562]
  Total <r^2> [a.u.]:                                               232.541283

  V1^2 = 0.9587, V2^2 = 0.0413

  Important amplitudes:
      occ i     occ j     vir a      vir b          v   
    -----------------------------------------------------
     8 (A) A             10 (A) A                -0.6890
     8 (A) A             24 (A) A                -0.0507
     8 (A) A             18 (A) A                 0.0312
     4 (A) A              9 (A) A                 0.0237
     8 (A) A   8 (A) B    9 (A) A   12 (A) B     -0.0219
     8 (A) A   8 (A) B   10 (A) A   17 (A) B     -0.0173
     8 (A) A             15 (A) A                -0.0169
     5 (A) A   8 (A) B   11 (A) A   10 (A) B     -0.0165
     7 (A) A   8 (A) B   13 (A) A   10 (A) B      0.0141
     4 (A) A   8 (A) B   12 (A) A   10 (A) B      0.0111
     6 (A) A   8 (A) A   10 (A) A   15 (A) A      0.0110
     7 (A) A   8 (A) B   22 (A) A   10 (A) B     -0.0108
     6 (A) A   8 (A) B   15 (A) A   10 (A) B     -0.0108
     4 (A) A   8 (A) A   10 (A) A   12 (A) A     -0.0106
     7 (A) A   8 (A) A   10 (A) A   22 (A) A      0.0099
     7 (A) A   8 (A) A   10 (A) A   13 (A) A     -0.0097
     5 (A) A   8 (A) B   21 (A) A   10 (A) B     -0.0094
     5 (A) A   8 (A) A   10 (A) A   11 (A) A      0.0094
     7 (A) A              9 (A) A                -0.0093
     6 (A) A   8 (A) A   10 (A) A   18 (A) A      0.0088
     6 (A) A   8 (A) B   10 (A) A   10 (A) B      0.0087
     7 (A) A   8 (A) A   12 (A) A   16 (A) A     -0.0082
     5 (A) A   8 (A) A   10 (A) A   21 (A) A      0.0080
     3 (A) A   4 (A) B   10 (A) A    9 (A) B     -0.0079
     4 (A) A   8 (A) B   19 (A) A   10 (A) B     -0.0075
     8 (A) A   8 (A) B    9 (A) A   23 (A) B     -0.0075
     8 (A) A   8 (A) B   10 (A) A   28 (A) B      0.0073
     3 (A) A   8 (A) B   10 (A) A   10 (A) B     -0.0072
     5 (A) A   8 (A) B   10 (A) A   11 (A) B     -0.0071
     3 (A) A   8 (A) A   10 (A) A   24 (A) A      0.0071
     7 (A) A   8 (A) B   16 (A) A   12 (A) B      0.0070
     3 (A) A   8 (A) B   10 (A) A   18 (A) B      0.0069
     8 (A) A   8 (A) B    9 (A) A   19 (A) B      0.0068
     6 (A) A   8 (A) B   18 (A) A   10 (A) B     -0.0067
     3 (A) A   6 (A) B   10 (A) A   28 (A) B      0.0062
     7 (A) A   8 (A) B   12 (A) A   11 (A) B     -0.0058
     6 (A) A             28 (A) A                -0.0057
     3 (A) A   5 (A) B   10 (A) A   25 (A) B      0.0056
     5 (A) A   8 (A) A   10 (A) A   16 (A) A     -0.0056
     3 (A) A   8 (A) A   10 (A) A   18 (A) A      0.0056
    -----------------------------------------------------

  Density matrix analysis:
  ------------------------
  NOs
    Occupation of frontier NOs:
       0.9816   0.9849
    Number of electrons: 16.000000
    Number of unpaired electrons: n_u =  2.28559, n_u,nl =  2.02448
    NO participation ratio (PR_NO):  2.692669
  
  
  Mulliken Population Analysis
  Atom      Charge (e)              h+              e-           Del q
  --------------------------------------------------------------------
   1 H       -0.161822        0.053962       -0.266716       -0.212754
   2 C        0.327553        0.538713       -0.110391        0.428323
   3 H       -0.166757        0.053667       -0.271012       -0.217345
   4 C        0.326571        0.537409       -0.109370        0.428039
   5 H       -0.161513        0.054024       -0.265579       -0.211555
   6 H       -0.164033        0.053838       -0.268546       -0.214708
  --------------------------------------------------------------------
  Sum:        0.000000        1.291614       -1.291614       -0.000000
  
  Multipole moment analysis of the density matrix
    Molecular charge:                      0.000000
    Number of electrons:                   16.000000
      Center of electronic charge [Ang]: [ -1.560794,  -0.066183,   0.005461]
    Total nuclear charge:                  16.000000
      Center of nuclear charge [Ang]:    [ -1.560576,  -0.065602,   0.005728]
    Dipole moment [D]:                     0.051887
      Cartesian components [D]:          [  0.016770,   0.044603,   0.020533]
    RMS size of the density [Ang]:         1.276479
      Cartesian components [Ang]:        [  0.854460,   0.840368,   0.439405]
  
  Exciton analysis of the difference density matrix
    <r_h> [Ang]:                  [ -1.560168,  -0.066124,   0.007262]
    <r_e> [Ang]:                  [ -1.562982,  -0.072937,   0.001927]
    |<r_e - r_h>| [Ang]:            0.009099
    Hole size [Ang]:                1.410297
      Cartesian components [Ang]: [  0.834098,   0.819736,   0.788194]
    Electron size [Ang]:            2.076001
      Cartesian components [Ang]: [  1.373583,   1.376531,   0.726782]

  Transition density matrix analysis:
  -----------------------------------
  
  CT numbers (Mulliken)
    omega =     0.9259
    <Phe> =    -0.0109
  
  Exciton analysis of the transition density matrix
    Trans. dipole moment [D]:             0.426564
      Cartesian components [D]:         [ -0.037813,  -0.008501,   0.424799]
    <r_h> [Ang]:                        [ -1.559676,  -0.065558,   0.008681]
    <r_e> [Ang]:                        [ -1.563663,  -0.075407,   0.000479]
    |<r_e - r_h>| [Ang]:                  0.013422
    Hole size [Ang]:                      1.213048
      Cartesian components [Ang]:       [  0.636699,   0.623449,   0.823049]
    Electron size [Ang]:                  2.296188
      Cartesian components [Ang]:       [  1.518162,   1.523836,   0.803486]
    RMS electron-hole separation [Ang]:   2.587044
      Cartesian components [Ang]:       [  1.638777,   1.639491,   1.148597]
    Covariance(r_h, r_e) [Ang^2]:         0.025675
    Correlation coefficient:              0.009218
    Center-of-mass size [Ang]:            1.303391
      Cartesian components [Ang]:       [  0.826866,   0.826694,   0.575932]

  Decomposition into state-averaged NTOs
    H- 0 -> L+ 1: -0.6797 ( 92.4%)
                   omega =  92.6%
  ----------------------------------------------------------------------------


  Excited state 4 (singlet, A)                                     [converged]
  ----------------------------------------------------------------------------
  Term symbol:  5 (1) A                                     R^2 =  1.55949e-13

  Total energy:                                            -77.9582499984 a.u.
  Excitation energy:                                               9.833317 eV

  Osc. strength:                                                      0.000003
  Trans. dip. moment [a.u.]:           [  -0.001419,    0.000904,   -0.002877]
  <i|r^2|0> [a.u.]:                    [  -0.021751,   -0.022329,    0.036266]
  Two-photon absorption cross-section (SoS) [a.u.]:                 149.768609
  Two-photon absorption matrix (SoS) [a.u.]:
                                       |   -0.160066   -0.320611    3.021216 |
                                       |   -0.320611   -0.484460    3.024873 |
                                       |    3.021216    3.024873    0.648866 |
  Two-photon absorption cross-section [a.u.]:                        92.153263
  Two-photon absorption matrix [a.u.]:
                                       |   -0.059160   -0.247024    2.369198 |
                                       |   -0.247024   -0.444048    2.369685 |
                                       |    2.369198    2.369685    0.508497 |

  Dip. moment [a.u.]:                  [  -0.023126,   -0.017706,    0.005161]
  Total dipole [Debye]:                                               0.075184
  <r^2> [a.u.]:                        [ 181.188684,   40.507104,   10.769339]
  Total <r^2> [a.u.]:                                               232.465127

  V1^2 = 0.9635, V2^2 = 0.0365

  Important amplitudes:
      occ i     occ j     vir a      vir b          v   
    -----------------------------------------------------
     8 (A) A             11 (A) A                 0.6697
     7 (A) A              9 (A) A                -0.1500
     8 (A) A             21 (A) A                 0.0781
     8 (A) A             16 (A) A                -0.0646
     8 (A) A   8 (A) B    9 (A) A   13 (A) B     -0.0167
     5 (A) A   8 (A) B   11 (A) A   11 (A) B      0.0155
     8 (A) A   8 (A) B   11 (A) A   17 (A) B      0.0140
     7 (A) A             20 (A) A                -0.0137
     7 (A) A   8 (A) B   13 (A) A   11 (A) B     -0.0127
     8 (A) A             12 (A) A                 0.0116
     5 (A) A   8 (A) A   11 (A) A   21 (A) A     -0.0110
     4 (A) A   8 (A) B   12 (A) A   11 (A) B     -0.0110
     8 (A) A   8 (A) B    9 (A) A   22 (A) B      0.0107
     7 (A) A   8 (A) A   11 (A) A   22 (A) A     -0.0096
     6 (A) A   8 (A) B   15 (A) A   11 (A) B      0.0090
     6 (A) A   8 (A) B   10 (A) A   11 (A) B     -0.0090
     7 (A) A   8 (A) B   22 (A) A   11 (A) B      0.0089
     3 (A) A   4 (A) B   11 (A) A    9 (A) B      0.0083
     3 (A) A   8 (A) B   11 (A) A   18 (A) B     -0.0081
     6 (A) A   8 (A) A   11 (A) A   15 (A) A     -0.0080
     7 (A) A   8 (A) A   13 (A) A   16 (A) A     -0.0078
     7 (A) A   8 (A) A   11 (A) A   13 (A) A      0.0077
     6 (A) A              9 (A) A                 0.0071
     5 (A) A   8 (A) B   21 (A) A   11 (A) B      0.0071
     4 (A) A   8 (A) B   19 (A) A   11 (A) B      0.0070
     5 (A) A   8 (A) B    9 (A) A    9 (A) B      0.0068
     4 (A) A   8 (A) A   11 (A) A   12 (A) A      0.0062
     6 (A) A   8 (A) A   11 (A) A   18 (A) A     -0.0062
     3 (A) A   6 (A) B   11 (A) A   28 (A) B     -0.0060
     6 (A) A   8 (A) B   18 (A) A   11 (A) B      0.0060
     7 (A) A   8 (A) B   16 (A) A   13 (A) B      0.0057
     3 (A) A   8 (A) A   11 (A) A   18 (A) A     -0.0056
     5 (A) A   8 (A) B   10 (A) A   10 (A) B      0.0056
     3 (A) A   8 (A) B   11 (A) A   30 (A) B     -0.0055
     3 (A) A   5 (A) B   11 (A) A   25 (A) B     -0.0054
     6 (A) A   8 (A) B   11 (A) A   10 (A) B     -0.0054
     7 (A) A   8 (A) B   12 (A) A   10 (A) B      0.0054
     8 (A) A   8 (A) B   20 (A) A   22 (A) B      0.0053
     3 (A) A   8 (A) A   11 (A) A   24 (A) A     -0.0053
     5 (A) A   8 (A) A   11 (A) A   16 (A) A      0.0048
    -----------------------------------------------------

  Density matrix analysis:
  ------------------------
  NOs
    Occupation of frontier NOs:
       0.9409   1.0277
    Number of electrons: 16.000000
    Number of unpaired electrons: n_u =  2.31915, n_u,nl =  2.04902
    NO participation ratio (PR_NO):  2.913714
  
  
  Mulliken Population Analysis
  Atom      Charge (e)              h+              e-           Del q
  --------------------------------------------------------------------
   1 H       -0.149429        0.045825       -0.246186       -0.200361
   2 C        0.275071        0.497229       -0.121389        0.375841
   3 H       -0.125909        0.046862       -0.223360       -0.176497
   4 C        0.273195        0.496861       -0.122197        0.374664
   5 H       -0.132337        0.047019       -0.229398       -0.182379
   6 H       -0.140592        0.045864       -0.237131       -0.191267
  --------------------------------------------------------------------
  Sum:        0.000000        1.179660       -1.179660        0.000000
  
  Multipole moment analysis of the density matrix
    Molecular charge:                      0.000000
    Number of electrons:                   16.000000
      Center of electronic charge [Ang]: [ -1.559811,  -0.065017,   0.005557]
    Total nuclear charge:                  16.000000
      Center of nuclear charge [Ang]:    [ -1.560576,  -0.065602,   0.005728]
    Dipole moment [D]:                     0.075184
      Cartesian components [D]:          [ -0.058780,  -0.045005,   0.013118]
    RMS size of the density [Ang]:         1.277217
      Cartesian components [Ang]:        [  0.859135,   0.839476,   0.434110]
  
  Exciton analysis of the difference density matrix
    <r_h> [Ang]:                  [ -1.559879,  -0.065220,   0.007560]
    <r_e> [Ang]:                  [ -1.549627,  -0.056865,   0.003028]
    |<r_e - r_h>| [Ang]:            0.013981
    Hole size [Ang]:                1.394844
      Cartesian components [Ang]: [  0.818537,   0.806545,   0.790615]
    Electron size [Ang]:            2.124185
      Cartesian components [Ang]: [  1.443122,   1.403241,   0.678586]

  Transition density matrix analysis:
  -----------------------------------
  
  CT numbers (Mulliken)
    omega =     0.9298
    <Phe> =    -0.0135
  
  Exciton analysis of the transition density matrix
    Trans. dipole moment [D]:             0.004236
      Cartesian components [D]:         [ -0.001803,   0.001149,  -0.003656]
    <r_h> [Ang]:                        [ -1.560566,  -0.065754,   0.008439]
    <r_e> [Ang]:                        [ -1.547695,  -0.055080,   0.002448]
    |<r_e - r_h>| [Ang]:                  0.017762
    Hole size [Ang]:                      1.227963
      Cartesian components [Ang]:       [  0.658141,   0.649888,   0.807706]
    Electron size [Ang]:                  2.262330
      Cartesian components [Ang]:       [  1.537672,   1.494661,   0.720895]
    RMS electron-hole separation [Ang]:   2.563481
      Cartesian components [Ang]:       [  1.664080,   1.622092,   1.082171]
    Covariance(r_h, r_e) [Ang^2]:         0.027454
    Correlation coefficient:              0.009883
    Center-of-mass size [Ang]:            1.292376
      Cartesian components [Ang]:       [  0.840562,   0.818789,   0.541548]

  Decomposition into state-averaged NTOs
    H- 0 -> L+ 2: -0.6650 ( 88.5%)
    H- 1 -> L+ 0: -0.1480 (  4.4%)
                   omega =  93.0%
  ----------------------------------------------------------------------------


  Excited state 5 (singlet, A)                                     [converged]
  ----------------------------------------------------------------------------
  Term symbol:  6 (1) A                                     R^2 =  1.97314e-13

  Total energy:                                            -77.9443673154 a.u.
  Excitation energy:                                              10.211084 eV

  Osc. strength:                                                      0.000000
  Trans. dip. moment [a.u.]:           [  -0.000093,    0.000258,    0.000181]
  <i|r^2|0> [a.u.]:                    [   0.080895,   -0.109481,    0.021701]
  Two-photon absorption cross-section (SoS) [a.u.]:                 177.574342
  Two-photon absorption matrix (SoS) [a.u.]:
                                       |    0.212276    0.101878   -3.338592 |
                                       |    0.101878   -0.494192    3.298829 |
                                       |   -3.338592    3.298829    0.102472 |
  Two-photon absorption cross-section [a.u.]:                        79.390111
  Two-photon absorption matrix [a.u.]:
                                       |    0.083881    0.030993   -2.223343 |
                                       |    0.030993   -0.393034    2.209661 |
                                       |   -2.223343    2.209661    0.084346 |

  Dip. moment [a.u.]:                  [   0.008379,   -0.009687,   -0.002755]
  Total dipole [Debye]:                                               0.033298
  <r^2> [a.u.]:                        [ 178.413687,   38.301693,   11.938990]
[...]
    16   -1.669053324238e-03
    17   -1.576188495204e-03
    18   -8.213121610065e-05
    19   -3.316859992815e-03
    20    1.093766113286e-02
    21    9.370248355083e-01
    22   -2.578987227848e-04
    23    1.402073709606e-02
    24    7.280720857511e-04
    25    7.023360053798e-02
    26   -5.222352711386e-02
    27   -1.398805393080e+00
    28    9.805069099782e-02
    29   -9.253336865860e-02
    30    3.011364760174e-03
    31    3.846555854899e-01
    32   -3.626588525753e-01
    33    1.221075251659e-02
    34    1.563426667468e-02
    35   -1.865970174513e-03
    36   -1.415043530095e-03
    37    6.263434055177e-05
    38   -3.121833096571e-03
    39    9.749671622330e-03
    40    9.309936849294e-01
    41    2.549977233646e-04
    42   -1.394916908649e-02
    43   -6.219301691044e-04
    44    1.015178333267e-02
    45    9.404123636701e-01
    46    1.409968933334e-02
    47    3.768866290942e-04
    48    8.944440414741e-04
Sym=X
Ene= 0.232970
Spin=Alpha
Occup=0
     1    2.620359090405e-02
     2    1.237624860342e+00
     3   -1.439444849886e-02
     4   -3.827410404418e-03
     5   -9.506876251633e-04
     6    3.291687438502e-03
     7   -3.579382710812e-03
     8   -5.431254776467e-02
     9   -1.551932724260e-01
    10   -1.582617733100e-01
    11   -1.662394560722e-02
    12   -5.572863212836e-01
    13   -5.576396794352e-01
    14   -5.892487797803e-02
    15    5.769846452280e-04
    16   -3.138274223395e-04
    17   -3.330974399538e-04
    18   -2.254410018080e-04
    19   -3.676538140151e-04
    20   -2.501386885409e-02
    21   -1.156912643158e+00
    22   -2.491073712035e-03
    23   -1.350171200848e-02
    24   -8.653142152910e-04
    25   -2.779569576041e-03
    26    3.183691509538e-03
    27    4.017986799651e-02
    28   -1.539915134143e-01
    29   -1.589447694501e-01
    30   -1.697386789918e-02
    31   -5.469870325638e-01
    32   -5.562001724472e-01
    33   -5.979174604768e-02
    34   -4.192431870190e-04
    35    4.586428163181e-04
    36    4.202047807745e-04
    37    3.898974987315e-04
    38    2.957243788378e-04
    39    2.491639368375e-02
    40    1.158682856494e+00
    41   -2.478006260658e-03
    42   -1.363435998030e-02
    43   -8.726413006254e-04
    44   -2.635295641953e-02
    45   -1.221630379381e+00
    46   -1.422335934610e-02
    47   -3.749510721172e-03
    48   -9.813588914534e-04
Sym=X
Ene= 0.239410
Spin=Alpha
Occup=0
     1   -1.600875209653e-02
     2   -1.048999411503e+00
     3    1.649660945928e-02
     4    9.095899499150e-03
     5    1.293374730940e-03
     6   -8.648934397438e-02
     7    7.971287366026e-02
     8    1.592911477845e+00
     9    5.292236127797e-02
    10   -6.086195297069e-02
    11   -1.801744506172e-03
    12    2.103541022886e-01
    13   -2.360926352856e-01
    14   -8.466823785643e-03
    15   -2.253465569922e-02
    16    2.364677028533e-03
    17    3.179840541572e-03
    18   -4.996166060900e-04
    19    1.286968916738e-02
    20   -1.700303869079e-02
    21   -1.126497948730e+00
    22   -8.544956024860e-03
    23   -1.778306268235e-02
    24   -1.482619433995e-03
    25    8.644049972149e-02
    26   -7.929304271674e-02
    27   -1.596448960995e+00
    28    5.305736934141e-02
    29   -6.153465612932e-02
    30    2.279995022616e-03
    31    2.094940981003e-01
    32   -2.426730338468e-01
    33    8.391810113714e-03
    34    2.261732103817e-02
    35   -2.750910895629e-03
    36   -2.825573002641e-03
    37    7.896286343907e-04
    38   -1.278704320980e-02
    39    1.684529595025e-02
    40    1.133752568461e+00
    41   -8.628075936163e-03
    42   -1.796907273692e-02
    43   -1.224269402065e-03
    44    1.555171407288e-02
    45    1.045875124430e+00
    46    1.636817760590e-02
    47    9.254622166918e-03
    48    1.576440335973e-03
Sym=X
Ene= 0.303257
Spin=Alpha
Occup=0
     1   -2.070883308592e-02
     2    1.690768577968e+00
     3   -2.291031596711e-02
     4    2.789867002386e-04
     5   -8.834914688989e-04
     6   -2.217836601355e-04
     7    1.651052068219e-04
     8    3.327184536910e-03
     9   -1.338521280266e-01
    10   -1.396220480062e-01
    11   -1.458981634479e-02
    12   -1.144358290875e+00
    13   -1.193231544329e+00
    14   -1.249776907637e-01
    15   -1.013186850994e-04
    16   -1.468284923878e-03
    17    2.053096613060e-03
    18   -3.265178863795e-02
    19   -1.567618664542e-03
    20    2.002324745532e-02
    21   -1.690216276198e+00
    22    1.421880013491e-03
    23   -2.290081306961e-02
    24   -1.472586859327e-03
    25    9.951477086966e-05
    26    2.366772865263e-04
    27   -6.618658769422e-03
    28    1.346958610227e-01
    29    1.402905749189e-01
    30    1.479654430816e-02
    31    1.139335854561e+00
    32    1.197877632800e+00
    33    1.254679296403e-01
    34   -6.780201098659e-05
    35   -2.170436738098e-03
    36    1.306259714918e-03
    37   -3.250933023855e-02
    38   -1.573601358761e-03
    39    1.972960264076e-02
    40   -1.693385102889e+00
    41   -1.591731116439e-03
    42    2.284343939339e-02
    43    1.261278707909e-03
    44   -1.992874294723e-02
    45    1.697185309654e+00
    46    2.303976269714e-02
    47   -3.784791002166e-04
    48    1.100466309807e-03
Sym=X
Ene= 0.462015
Spin=Alpha
Occup=0
     1   -1.159282298658e-01
     2   -7.137998889277e-01
     3   -1.569568994909e-02
     4   -1.027510021865e-02
     5   -1.332355918304e-03
     6    6.080584644298e-02
     7    1.732391203305e-02
     8   -3.590538296531e+00
     9    1.029921401304e-01
    10   -9.914538346963e-02
    11    3.526241606855e-04
    12    2.425897251194e+00
    13   -2.301912464223e+00
    14   -4.908198009801e-02
    15    5.364428098789e-02
    16   -3.351223866905e-03
    17   -4.650413017635e-03
    18   -8.122618561945e-04
    19    1.799960692000e-02
    20   -1.207618860295e-01
    21   -7.027371553816e-01
    22    8.776039863501e-03
    23    1.634204250620e-02
    24    1.402219312361e-03
    25   -6.095290882698e-02
    26   -1.626982209662e-02
    27    3.590147324094e+00
    28    1.050520186896e-01
    29   -1.006300412264e-01
    30    2.806950428633e-03
    31    2.421151715507e+00
    32   -2.298842371087e+00
    33   -3.793522449336e-02
    34   -5.267752636241e-02
    35    3.006896397956e-03
    36    4.759160509637e-03
    37    7.476311871250e-04
    38   -1.902575272000e-02
    39    1.145827675481e-01
    40    7.115430693159e-01
    41    8.644632024973e-03
    42    1.620809596391e-02
    43    1.492356601665e-03
    44    1.113988722784e-01
    45    7.154140151745e-01
    46   -1.547935133351e-02
    47   -9.871943505183e-03
    48   -1.216066906929e-03
Sym=X
Ene= 0.577517
Spin=Alpha
Occup=0
     1    2.474808720269e-01
     2    4.023570998551e-02
     3   -1.841560503674e-02
     4    2.572713422783e-02
     5    7.233195082345e-04
     6   -4.447848107683e-03
     7   -1.571475672407e-01
     8   -4.658738990471e-01
     9    2.990277409931e-01
    10   -2.876501052666e-01
    11   -5.372387081592e-03
    12   -7.203034182708e-01
    13    6.960682634847e-01
    14    7.514142505033e-03
    15   -5.883303353236e-03
    16    3.922063411189e-03
    17    3.696162614427e-03
    18   -4.101954387336e-03
    19    6.026963150854e-02
    20    2.549760483229e-01
    21    3.007008806734e-02
    22   -2.641217216186e-02
    23    1.650363242761e-02
    24   -2.006790562728e-04
    25   -5.627653073315e-03
    26   -1.578167779831e-01
    27   -4.099182230085e-01
    28   -2.976712955149e-01
    29    2.848700125995e-01
    30    5.754064541481e-03
    31    7.620943806129e-01
    32   -7.330957078534e-01
    33   -5.594283044355e-03
    34   -5.862646076887e-03
    35    3.995678222112e-03
    36    3.619713794744e-03
    37   -3.539250767916e-03
    38    6.022875475646e-02
    39    2.504380774801e-01
    40    5.149942084836e-02
    41    2.714023391987e-02
    42   -1.699881015119e-02
    43    4.386097186581e-04
    44    2.494685268824e-01
    45    5.428959118711e-02
    46    1.842187825451e-02
    47   -2.594098118147e-02
    48   -5.007059675933e-04
Sym=X
Ene= 0.615149
Spin=Alpha
Occup=0
     1   -5.213400320380e-01
     2    2.006696815072e-01
     3   -6.127444172832e-02
     4    3.768872065196e-02
     5   -4.000388486917e-04
     6   -5.268137804959e-04
     7    4.084989591385e-05
     8   -1.238831331294e-02
     9   -4.021590723637e-02
    10   -3.870209655661e-02
    11   -4.176927155778e-03
    12    3.016300662668e-01
    13    2.822942265922e-01
    14    3.063488594101e-02
    15    1.702809710352e-03
    16   -7.118001225703e-03
    17    8.746031709003e-03
    18   -1.479640413390e-01
    19   -6.498146585866e-03
    20    5.090133880439e-01
    21   -2.042577042584e-01
    22    4.172339109093e-02
    23   -5.853329197004e-02
    24   -1.782643884303e-03
    25    3.487698780758e-04
    26   -1.366077365321e-03
    27    2.247308729354e-02
    28   -3.973489262696e-02
    29   -4.062256146128e-02
    30   -4.182536417378e-03
    31    2.998852198632e-01
    32    2.937112404051e-01
    33    3.177886566513e-02
    34   -1.098563854431e-03
    35    9.004767891109e-03
    36   -6.927594219779e-03
    37    1.491399930218e-01
    38    6.332649090318e-03
    39   -5.150989411732e-01
    40    2.051225212311e-01
    41    4.082768490745e-02
    42   -5.864157136635e-02
    43   -1.175481680487e-03
    44    5.216967821729e-01
    45   -2.061243633945e-01
    46   -6.141745843351e-02
    47    3.770114285077e-02
    48   -1.023682102807e-03
Sym=X
Ene= 0.689182
Spin=Alpha
Occup=0
     1   -6.904567197903e-03
     2   -4.233193223822e-03
     3    3.916868465917e-04
     4    4.700665900525e-04
     5   -2.108779299160e-02
     6   -4.479229660951e-04
     7   -2.008671461501e-03
     8   -4.218955667134e-03
     9    3.173957299797e-02
    10    3.963818934636e-02
    11   -6.703922037728e-01
    12   -1.594614024738e-02
    13   -4.866108862076e-02
    14    6.134103362879e-01
    15   -1.263775253548e-03
    16    8.246599596349e-02
    17   -7.848791102924e-02
    18   -8.513860843047e-03
    19   -3.446980280556e-03
    20   -6.817950084062e-03
    21   -4.438739499638e-03
    22    1.713122511171e-03
    23    1.855447178817e-03
    24   -2.086070466815e-02
    25    9.720240934844e-06
    26   -6.472492501077e-03
    27    9.435452779656e-03
    28    3.009681504066e-02
    29    4.158019086315e-02
    30   -6.700413714322e-01
    31   -1.444331865859e-02
    32   -5.053052470102e-02
    33    6.129931565017e-01
    34    4.098461570790e-03
    35   -8.284901088472e-02
    36    7.826241611714e-02
    37    8.487455839540e-03
    38    2.406772464345e-03
    39    7.984905325274e-04
    40    9.176606770716e-03
    41    1.265887195762e-03
    42   -2.743150442772e-04
    43   -2.126420619500e-02
    44    7.936369062703e-04
    45    9.438128994134e-03
    46    2.557293021482e-03
    47    1.093040502594e-03
    48   -2.085547224913e-02
Sym=X
Ene= 0.708953
Spin=Alpha
Occup=0
     1   -4.763086017887e-01
     2    1.580592064122e-01
     3   -8.078620695400e-02
     4   -4.428480451655e-02
     5   -5.641291198183e-03
     6   -4.786031089532e-02
     7   -3.198414493233e-01
     8    5.095635123154e-01
     9    2.031533771981e-01
    10   -1.928078963464e-01
    11    2.223850426490e-03
    12   -9.728311473024e-02
    13    8.224018272858e-02
    14    4.447500028434e-03
    15    1.941661351194e-01
    16   -1.964662221336e-02
    17   -2.470809725760e-02
    18    3.035985553838e-03
    19   -7.743674669508e-02
    20   -4.781168858859e-01
    21    1.510049408647e-01
    22    4.097187128420e-02
    23    8.175154450257e-02
    24    7.570623743643e-03
    25   -4.667220671809e-02
    26   -3.210532893199e-01
    27    4.625487173356e-01
    28   -2.049838571419e-01
    29    1.912456352907e-01
    30    7.767939946059e-03
    31    6.655606487004e-02
    32   -4.967491423503e-02
    33   -1.566345158309e-02
    34    1.935020286745e-01
    35   -1.969766550889e-02
    36   -2.452024984747e-02
    37    2.404962973540e-03
    38   -7.561136563788e-02
    39   -4.718674777429e-01
    40    1.335477908555e-01
    41   -4.058950958951e-02
    42   -8.099767094038e-02
    43   -7.119815763370e-03
    44   -4.743126272713e-01
    45    1.474098624942e-01
    46    8.041779138934e-02
    47    4.410345245367e-02
    48    6.075563248144e-03
Sym=X
Ene= 0.784538
Spin=Alpha
Occup=0
     1    5.265707372881e-01
     2   -4.691464433756e-01
     3    1.103796317316e-01
     4    2.601066881835e-02
     5    6.309843585296e-03
     6    9.092667918282e-02
     7   -2.159619950714e-01
     8   -6.412019783472e-01
     9    1.110049101898e-01
    10   -1.057200960287e-01
    11   -1.208955284594e-02
    12    3.160241018464e-01
    13   -2.938082103017e-01
    14    1.175857655711e-02
    15   -2.061553798468e-01
    16    1.650330147339e-02
    17    2.267578415834e-02
    18   -6.633217895379e-04
    19    9.185381577681e-03
    20    5.355042671187e-01
    21   -4.676600083168e-01
    22   -2.020761503677e-02
    23   -1.120616623880e-01
    24   -8.056722793514e-03
    25   -9.140016141773e-02
    26    2.128533435699e-01
    27    6.559767235316e-01
    28    1.101860875416e-01
    29   -1.071163215080e-01
    30    4.275607262898e-03
    31    3.125223774793e-01
    32   -2.841012450968e-01
    33   -2.038934864410e-02
    34    2.078087998478e-01
    35   -1.908839040493e-02
    36   -2.071909097963e-02
    37    1.559759806955e-03
    38   -8.873805770071e-03
    39   -5.409057244515e-01
    40    4.632658089234e-01
    41   -2.048200754122e-02
    42   -1.126178208132e-01
    43   -7.682540512716e-03
    44   -5.327637136645e-01
    45    4.679997682466e-01
    46    1.103419236225e-01
    47    2.686526490068e-02
    48    6.822301304572e-03
Sym=X
Ene= 0.807952
Spin=Alpha
Occup=0
     1   -5.146865454511e-03
     2    5.061497255503e-03
     3    6.135356465190e-04
     4    2.086002918745e-03
     5   -3.388727248460e-02
     6   -1.159813879336e-03
     7    5.870749922696e-03
     8   -2.867834284871e-04
     9    3.047593120759e-02
    10    5.048605309226e-02
    11   -7.628431791469e-01
    12   -5.054895002424e-02
    13   -6.951289930509e-02
    14    1.126733911900e+00
    15    4.828829529804e-03
    16   -6.537601099924e-02
    17    6.152822683915e-02
    18    6.763790220549e-03
    19    2.539755599877e-03
    20   -5.326449572112e-03
    21    5.407734272379e-03
    22    1.535339651117e-03
    23    3.074288979872e-03
    24   -3.438073503315e-02
    25    8.194324246682e-04
    26    1.746710348700e-03
    27   -3.899308662624e-03
    28   -3.728877162054e-02
    29   -4.467571048195e-02
    30    7.632140391497e-01
    31    4.818247175670e-02
    32    7.266465993898e-02
    33   -1.126807939312e+00
    34   -1.148632801298e-03
    35   -6.493939894563e-02
    36    6.207788545303e-02
    37    6.665748198454e-03
    38    1.226311571266e-03
    39    5.222653495624e-03
    40   -7.595329984344e-03
    41   -2.191980031616e-03
    42    6.985712143734e-04
    43    3.446762832642e-02
    44    5.156663171628e-03
    45   -6.997121240774e-03
    46   -4.274197621496e-03
    47   -1.549177700810e-03
    48    3.359019899936e-02
Sym=X
Ene= 0.862266
Spin=Alpha
Occup=0
     1    1.320195451511e-02
     2   -1.095813040854e+00
     3    1.482797648231e-01
     4    5.642649301979e-02
     5    1.079005817489e-02
     6    5.844953817095e-05
     7    9.789026399374e-04
     8    8.697001165281e-05
     9   -4.075581110692e-01
    10   -4.282071602239e-01
    11   -4.446920342256e-02
    12    9.485809547562e-01
    13    9.971944095851e-01
    14    1.035541052591e-01
    15   -3.797146017025e-04
    16    1.207911501461e-02
    17   -1.312200682097e-02
    18    2.353659922438e-01
    19    9.722743435050e-03
    20   -1.421518659307e-02
    21    1.103031764109e+00
    22    5.034639694049e-02
    23    1.515104583496e-01
    24    1.092665723291e-02
    25    1.392000949512e-04
    26    2.606620946387e-03
    27   -2.429650003114e-03
    28   -4.075294528902e-01
    29   -4.288290713099e-01
    30   -4.508391095323e-02
    31    9.483449213535e-01
    32    1.001622788151e+00
    33    1.051297915975e-01
    34   -5.405881137564e-04
    35   -1.245839798368e-02
    36    1.289230624264e-02
    37   -2.363907163518e-01
    38   -1.046325650721e-02
    39    1.260221306782e-02
    40   -1.102340381545e+00
    41    4.887620219508e-02
    42    1.518271579307e-01
    43    1.023891083673e-02
    44   -1.072283738025e-02
    45    1.095369496376e+00
    46    1.485526465137e-01
    47    5.569730308017e-02
    48    1.150471693966e-02
Sym=X
Ene= 0.935882
Spin=Alpha
Occup=0
     1   -1.133896234812e-01
     2    1.277840946319e+00
     3   -1.813358438845e-01
     4    5.494215783515e-03
     5   -6.659514901313e-03
     6   -1.723337992643e-04
     7   -1.040483237228e-03
     8   -6.381516300782e-03
     9    4.713057821580e-01
    10    5.010225879479e-01
    11    5.208826511961e-02
    12   -1.461549060503e+00
    13   -1.545788948182e+00
    14   -1.610383266581e-01
    15   -8.457625751873e-05
    16   -3.824157836962e-03
    17    9.025264068096e-03
    18   -1.202354065744e-01
    19   -1.683224347301e-03
    20    1.166390746915e-01
    21   -1.288903230211e+00
    22    1.141655344675e-02
    23   -1.827431402867e-01
    24   -1.186643109123e-02
    25    3.110431206460e-04
    26    2.289110793683e-03
    27    4.433532192842e-04
    28   -4.772058594119e-01
    29   -4.948164024890e-01
    30   -5.221852438864e-02
    31    1.476775137974e+00
    32    1.526215404922e+00
    33    1.611458029270e-01
    34   -1.352367475628e-03
    35   -6.391159088519e-03
    36    6.703971647272e-03
    37   -1.205290556494e-01
    38   -6.399737455466e-03
    39    1.165036859080e-01
    40   -1.277248333204e+00
    41   -1.402365588652e-02
    42    1.814631660723e-01
    43    1.059932428633e-02
    44   -1.150137398706e-01
    45    1.290422863151e+00
    46    1.823788719019e-01
    47   -4.868318590116e-03
    48    7.948302484266e-03
Sym=X
Ene= 0.972392
Spin=Alpha
Occup=0
     1   -6.434325222490e-02
     2    9.320224235517e-01
     3   -9.166483752365e-02
     4   -9.851282326447e-02
     5   -1.075069564066e-02
     6    2.530204338000e-02
     7    2.535544292690e-01
     8    5.179992298169e-01
     9    4.832864113198e-01
    10   -4.523777521575e-01
    11   -8.190976397849e-03
    12   -1.503319338160e+00
    13    1.399483061163e+00
    14    2.605299809054e-02
    15   -5.371112906268e-02
    16   -1.569829005019e-02
    17   -6.917568911896e-03
    18    1.338315750643e-02
    19   -3.016016945139e-01
    20   -6.302947761396e-02
    21    9.044848102486e-01
    22    9.534208200394e-02
    23    9.242411868855e-02
    24    9.379825792324e-03
    25   -2.512279726893e-02
    26   -2.368784267925e-01
    27   -5.457784880597e-01
    28    4.750710711558e-01
    29   -4.579619216971e-01
    30   -2.721745299150e-03
    31   -1.473630591436e+00
    32    1.427123196201e+00
    33    1.209782456595e-02
    34    5.271378181028e-02
    35    1.596286181724e-02
    36    6.748728398237e-03
    37   -1.543102117395e-02
    38    2.988497051782e-01
    39    6.250205143534e-02
    40   -9.181062373979e-01
    41    9.418707447265e-02
    42    9.409033806455e-02
    43    8.297956654257e-03
    44    6.573372849774e-02
    45   -9.011519651206e-01
    46   -8.755233833962e-02
    47   -9.772131554192e-02
    48   -1.178803110902e-02
[5D]

======= END OF MOLDEN-FORMATTED INPUT FILE =======


        *************************************************************
        *                                                           *
        *  Thank you very much for using Q-Chem.  Have a nice day.  *
        *                                                           *
        *************************************************************


