                  Welcome to Q-Chem
     A Quantum Leap Into The Future Of Chemistry


 Q-Chem 5.4 (devel), Q-Chem, Inc., Pleasanton, CA (2021)

 E. Epifanovsky,  A. T. B. Gilbert,  Xintian Feng,  Joonho Lee,  Yuezhi Mao,  
 N. Mardirossian,  P. Pokhilko,  A. White,  M. Wormit,  M. P. Coons,  
 A. L. Dempwolff,  Zhengting Gan,  D. Hait,  P. R. Horn,  L. D. Jacobson,  
 I. Kaliman,  J. Kussmann,  A. W. Lange,  Ka Un Lao,  D. S. Levine,  Jie Liu,  
 S. C. McKenzie,  A. F. Morrison,  K. Nanda,  F. Plasser,  D. R. Rehn,  
 M. L. Vidal,  Zhi-Qiang You,  Ying Zhu,  B. Alam,  B. Albrecht,  
 A. Aldossary,  E. Alguire,  J. H. Andersen,  D. Barton,  K. Begam,  A. Behn,  
 Y. A. Bernard,  E. J. Berquist,  H. Burton,  A. Carreras,  K. Carter-Fenk,  
 R. Chakraborty,  A. D. Chien,  K. D. Closser,  V. Cofer-Shabica,  
 S. Dasgupta,  Jia Deng,  M. de Wergifosse,  M. Diedenhofen,  Hainam Do,  
 S. Ehlert,  Po-Tung Fang,  S. Fatehi,  Qingguo Feng,  T. Friedhoff,  
 J. Gayvert,  Qinghui Ge,  G. Gidofalvi,  M. Goldey,  J. Gomes,  
 C. Gonzalez-Espinoza,  S. Gulania,  A. Gunina,  M. W. D. Hanson-Heine,  
 P. H. P. Harbach,  A. W. Hauser,  M. F. Herbst,  M. Hernandez Vera,  
 M. Hodecker,  Z. C. Holden,  S. Houck,  Xunkun Huang,  Kerwin Hui,  
 B. C. Huynh,  M. Ivanov,  Hyunjun Ji,  Hanjie Jiang,  B. Kaduk,  S. Kaehler,  
 K. Khistyaev,  Jaehoon Kim,  P. Klunzinger,  Z. Koczor-Benda,  
 Joong Hoon Koh,  D. Kosenkov,  L. Koulias,  T. Kowalczyk,  C. M. Krauter,  
 K. Kue,  A. Kunitsa,  T. Kus,  A. Landau,  K. V. Lawler,  D. Lefrancois,  
 S. Lehtola,  Rain Li,  Yi-Pei Li,  Jiashu Liang,  M. Liebenthal,  
 Hung-Hsuan Lin,  You-Sheng Lin,  Fenglai Liu,  Kuan-Yu Liu,  
 M. Loipersberger,  A. Luenser,  A. Manjanath,  P. Manohar,  E. Mansoor,  
 S. F. Manzer,  Shan-Ping Mao,  A. V. Marenich,  T. Markovich,  S. Mason,  
 S. A. Maurer,  P. F. McLaughlin,  M. F. S. J. Menger,  J.-M. Mewes,  
 S. A. Mewes,  P. Morgante,  J. W. Mullinax,  K. J. Oosterbaan,  G. Paran,  
 Alexander C. Paul,  Suranjan K. Paul,  F. Pavosevic,  Zheng Pei,  S. Prager,  
 E. I. Proynov,  E. Ramos,  B. Rana,  A. E. Rask,  A. Rettig,  R. M. Richard,  
 F. Rob,  E. Rossomme,  T. Scheele,  M. Scheurer,  M. Schneider,  
 N. Sergueev,  S. M. Sharada,  W. Skomorowski,  D. W. Small,  C. J. Stein,  
 Yu-Chuan Su,  E. J. Sundstrom,  Zhen Tao,  J. Thirman,  T. Tsuchimochi,  
 N. M. Tubman,  S. P. Veccham,  O. Vydrov,  J. Wenzel,  J. Witte,  A. Yamada,  
 Kun Yao,  S. Yeganeh,  S. R. Yost,  A. Zech,  Igor Ying Zhang,  Xing Zhang,  
 Yu Zhang,  D. Zuev,  A. Aspuru-Guzik,  A. T. Bell,  N. A. Besley,  
 K. B. Bravaya,  B. R. Brooks,  D. Casanova,  Jeng-Da Chai,  S. Coriani,  
 C. J. Cramer,  A. E. DePrince, III,  R. A. DiStasio Jr.,  A. Dreuw,  
 B. D. Dunietz,  T. R. Furlani,  W. A. Goddard III,  S. Grimme,  
 S. Hammes-Schiffer,  T. Head-Gordon,  W. J. Hehre,  Chao-Ping Hsu,  
 T.-C. Jagau,  Yousung Jung,  A. Klamt,  Jing Kong,  D. S. Lambrecht,  
 WanZhen Liang,  N. J. Mayhall,  C. W. McCurdy,  J. B. Neaton,  
 C. Ochsenfeld,  J. A. Parkhill,  R. Peverati,  V. A. Rassolov,  Yihan Shao,  
 L. V. Slipchenko,  T. Stauch,  R. P. Steele,  J. E. Subotnik,  
 A. J. W. Thom,  A. Tkatchenko,  D. G. Truhlar,  T. Van Voorhis,  
 T. A. Wesolowski,  K. B. Whaley,  H. L. Woodcock III,  P. M. Zimmerman,  
 S. Faraji,  P. M. W. Gill,  M. Head-Gordon,  J. M. Herbert,  A. I. Krylov

 Additional authors for Version 5.4.1: 
 S. Kotaru,  Shaozhi Li,  Xiangyuan Li,  F. Matz,  A. Molle,  Haisheng Ren,  
 Yingli Su,  Hung-Yi Tsai,  C. Utku,  Fang Wang

 Contributors to earlier versions of Q-Chem not listed above: 
 R. D. Adamson,  B. Austin,  R. Baer,  J. Baker,  G. J. O. Beran,  
 K. Brandhorst,  S. T. Brown,  E. F. C. Byrd,  A. K. Chakraborty,  
 G. K. L. Chan,  Chun-Min Chang,  Yunqing Chen,  C.-L. Cheng,  
 Siu Hung Chien,  D. M. Chipman,  D. L. Crittenden,  H. Dachsel,  
 R. J. Doerksen,  A. D. Dutoi,  R. G. Edgar,  J. Fosso-Tande,  
 L. Fusti-Molnar,  D. Ghosh,  A. Ghysels,  A. Golubeva-Zadorozhnaya,  
 J. Gonthier,  M. S. Gordon,  S. R. Gwaltney,  G. Hawkins,  J. E. Herr,  
 A. Heyden,  S. Hirata,  E. G. Hohenstein,  G. Kedziora,  F. J. Keil,  
 C. Kelley,  Jihan Kim,  R. A. King,  R. Z. Khaliullin,  P. P. Korambath,  
 W. Kurlancheek,  A. Laurent,  A. M. Lee,  M. S. Lee,  S. V. Levchenko,  
 Ching Yeh Lin,  D. Liotard,  E. Livshits,  R. C. Lochan,  I. Lotan,  
 L. A. Martinez-Martinez,  P. E. Maslen,  N. Nair,  D. P. O'Neill,  
 D. Neuhauser,  E. Neuscamman,  C. M. Oana,  R. Olivares-Amaya,  R. Olson,  
 T. M. Perrine,  B. Peters,  P. A. Pieniazek,  A. Prociuk,  Y. M. Rhee,  
 J. Ritchie,  M. A. Rohrdanz,  E. Rosta,  N. J. Russ,  H. F. Schaefer III,  
 M. W. Schmidt,  N. E. Schultz,  S. Sharma,  N. Shenvi,  C. D. Sherrill,  
 A. C. Simmonett,  A. Sodt,  T. Stein,  D. Stuck,  K. S. Thanthiriwatte,  
 V. Vanovschi,  L. Vogt,  Tao Wang,  A. Warshel,  M. A. Watson,  
 C. F. Williams,  Q. Wu,  X. Xu,  Jun Yang,  W. Zhang,  Yan Zhao

 Please cite Q-Chem as follows:
 Y. Shao et al., Mol. Phys. 113, 184-215 (2015)
 DOI: 10.1080/00268976.2014.952696

 Q-Chem 5.4.1 for Intel X86 EM64T Linux

 Parts of Q-Chem use Armadillo 9.800.1 (Horizon Scraper).
 http://arma.sourceforge.net/

 Q-Chem begins on Mon Mar 20 18:27:03 2023  

 Host: cpu186.baobab
0

     Scratch files written to /scratch/fum/qchem76783//
 Processing $rem in /home/share/wesolowski/qc5.aug2021.FDE/config/preferences:
 Processing $rem in /home/fum/.qchemrc:

 Checking the input file for inconsistencies... 	...done.

--------------------------------------------------------------
User input:
--------------------------------------------------------------
$comment
generated from CCJob.Templates
$end

$rem
sym_ignore = true
method = adc(2)
ee_states = 10
basis = cc-pVDZ
mem_static = 1024
mem_total = 40000
adc_davidson_maxiter = 900
adc_davidson_conv = 6
adc_print = 3
adc_prop_es = true
adc_prop_es2es = true
adc_prop_tpa = true
molden_format = True
state_analysis = true
print_orbitals = 15
gen_scfman = false
fde_export_density = true
fde_details = 3
$end

$molecule
0 1
H -0.013813574450652313 -0.2517700266123989 0.0600193045408981
C -1.0477906623234092 -0.5599569805817536 0.0043328205951493545
H -1.2876645386879906 -1.6048299539519684 -0.06888649719072312
C -2.029911878593284 0.342216790727227 0.01402236100164596
H -1.8220138479751908 1.449005119297657 0.07720196329839699
H -3.095835474312446 0.09594519235819446 -0.051605266633248                     
$end
--------------------------------------------------------------
 ----------------------------------------------------------------
             Standard Nuclear Orientation (Angstroms)
    I     Atom           X                Y                Z
 ----------------------------------------------------------------
    1      H      -0.0138135745    -0.2517700266     0.0600193045
    2      C      -1.0477906623    -0.5599569806     0.0043328206
    3      H      -1.2876645387    -1.6048299540    -0.0688864972
    4      C      -2.0299118786     0.3422167907     0.0140223610
    5      H      -1.8220138480     1.4490051193     0.0772019633
    6      H      -3.0958354743     0.0959451924    -0.0516052666
 ----------------------------------------------------------------
 Nuclear Repulsion Energy =          33.20839857 hartrees
 There are        8 alpha and        8 beta electrons
 Requested basis set is cc-pVDZ
 There are 24 shells and 48 basis functions
 Total memory of 40000 MB is distributed as follows: 
   MEM_STATIC is set to 1024 MB
   QALLOC/CCMAN JOB total memory use is  38976 MB
 Warning: actual memory use might exceed 40000 MB

 Total QAlloc Memory Limit  40000 MB
 Mega-Array Size      1001 MB
 MEM_STATIC part      1024 MB

                       Distance Matrix (Angstroms)
             H (  1)   C (  2)   H (  3)   C (  4)   H (  5)
   C (  2)  1.080365
   H (  3)  1.862816  1.074551
   C (  4)  2.102282  1.333632  2.085377
   H (  5)  2.482442  2.154219  3.103672  1.127916
   H (  6)  3.103583  2.151238  2.482422  1.095970  1.862789

 A cutoff of  1.0D-11 yielded    300 shell pairs
 There are      1220 function pairs (      1329 Cartesian)
 Smallest overlap matrix eigenvalue = 4.81E-03

 Scale SEOQF with 1.000000e-01/1.000000e-01/1.000000e+00

 Standard Electronic Orientation quadrupole field applied
 Nucleus-field energy     =     0.0000000021 hartrees
 Guess from superposition of atomic densities
 Warning:  Energy on first SCF cycle will be non-variational
 SAD guess density has 16.000000 electrons
 A restricted Hartree-Fock SCF calculation will be
 performed using Pulay DIIS extrapolation
 SCF converges when DIIS error is below 1.0E-08
 using 10 threads for integral computing
 -------------------------------------------------------
 OpenMP Integral computing Module                
 Release: version 1.0, May 2013, Q-Chem Inc. Pittsburgh 
 -------------------------------------------------------
 ---------------------------------------
  Cycle       Energy         DIIS Error
 ---------------------------------------
    1     -78.3968911878      9.93E-02
    2     -78.0159622426      7.14E-03
    3     -78.0364601760      1.84E-03
    4     -78.0379452804      5.80E-04
    5     -78.0380693336      7.28E-05
    6     -78.0380716488      2.25E-05
    7     -78.0380718953      8.20E-06
    8     -78.0380719269      2.22E-06
    9     -78.0380719316      6.65E-07
   10     -78.0380719320      8.12E-08
   11     -78.0380719320      5.76E-09 Convergence criterion met
 ---------------------------------------
 SCF time:  CPU 2.38 s  wall 49.12 s
 SCF   energy in the final basis set = -78.03807193
 Total energy in the final basis set = -78.03807193
Exporting Density Matrix to file 'Densmat_SCF.txt'.
Export successful
================================================================================
|                                                                              |
|                                 A D C  M A N                                 |
|                                                                              |
 ------------------------------------------------------------------------------ 
|                                                                              |
| Components:                                                                  |
|                                                                              |
| - libvmm - 1.3-trunk                                                         |
|   Authors:                                                                   |
|   Evgeny Epifanovsky, Ilya Kaliman                                           |
|                                                                              |
| - libtensor - 2.5-trunk                                                      |
|   Authors:                                                                   |
|   Evgeny Epifanovsky, Michael Wormit, Dmitry Zuev, Sam Manzer,               |
|   Ilya Kaliman                                                               |
|                                                                              |
| - libwfa - 1.1-trunk                                                         |
|   Authors:                                                                   |
|   Felix Plasser, Stefanie Mewes (Baeppler), Benjamin Thomitzni,              |
|   Michael Wormit, Feng Chen, Anna I. Krylov, Pavel Pokhilko                  |
|                                                                              |
| - libadc - 1.1-trunk                                                         |
|   Authors:                                                                   |
|   Michael Wormit, Adrian L. Dempwolff, Philipp H. P. Harbach,                |
|   Caroline Krauter, Dirk Rehn, Matthias Schneider, Jan Wenzel                |
|                                                                              |
| - adcman - 2.6-trunk                                                         |
|   Authors:                                                                   |
|   Michael Wormit, Adrian L. Dempwolff, Philipp H. P. Harbach,                |
|   Caroline Krauter, Daniel Lefrancois, Jan-Michael Mewes, Dirk Rehn,         |
|   Matthias Schneider, Jan Wenzel, Andreas Dreuw                              |
|                                                                              |
| Authors of earlier versions of ADCMAN:                                       |
| Andreas Dreuw, Jan Hendrik Starcke, Dirk Rehn, Michael Wormit                |
|                                                                              |
================================================================================

 Created directory /scratch/fum/qchem76783/plots
  Import QC data ...  CPU 0.00 s  wall 0.05 s

 Alpha MOs, Restricted
 -- Occupied --                  
-11.241 -11.235  -1.030  -0.786  -0.636  -0.582  -0.498  -0.375
  1 A     2 A     3 A     4 A     5 A     6 A     7 A     8 A                  
 -- Virtual --                   
  0.168   0.202   0.231   0.236   0.303   0.462   0.581   0.609
  9 A    10 A    11 A    12 A    13 A    14 A    15 A    16 A                  
  0.689   0.705   0.776   0.807   0.858   0.928   0.970   1.006
 17 A    18 A    19 A    20 A    21 A    22 A    23 A    24 A                  
  1.130   1.235   1.241   1.262   1.292   1.592   1.719   1.751
 25 A    26 A    27 A    28 A    29 A    30 A    31 A    32 A                  
  1.810   1.839   1.866   1.903   1.959   1.974   2.224   2.247
 33 A    34 A    35 A    36 A    37 A    38 A    39 A    40 A                  
  2.358   2.422   2.490   2.622   2.673   2.802   3.108   3.372
 41 A    42 A    43 A    44 A    45 A    46 A    47 A    48 A                  

 Beta MOs, Restricted
 -- Occupied --                  
-11.241 -11.235  -1.030  -0.786  -0.636  -0.582  -0.498  -0.375
  1 A     2 A     3 A     4 A     5 A     6 A     7 A     8 A                  
 -- Virtual --                   
  0.168   0.202   0.231   0.236   0.303   0.462   0.581   0.609
  9 A    10 A    11 A    12 A    13 A    14 A    15 A    16 A                  
  0.689   0.705   0.776   0.807   0.858   0.928   0.970   1.006
 17 A    18 A    19 A    20 A    21 A    22 A    23 A    24 A                  
  1.130   1.235   1.241   1.262   1.292   1.592   1.719   1.751
 25 A    26 A    27 A    28 A    29 A    30 A    31 A    32 A                  
  1.810   1.839   1.866   1.903   1.959   1.974   2.224   2.247
 33 A    34 A    35 A    36 A    37 A    38 A    39 A    40 A                  
  2.358   2.422   2.490   2.622   2.673   2.802   3.108   3.372
 41 A    42 A    43 A    44 A    45 A    46 A    47 A    48 A                  
  Import AO data ...  CPU 0.00 s  wall 0.04 s
  Using point group: C1
  Irreducible representations in point group: A
  Molecular orbitals: 
  Occupied MOs:
  Block   0:   1 (  A) A   2 (  A) A   3 (  A) A   4 (  A) A   5 (  A) A
                  -11.24      -11.23       -1.03     -0.7858     -0.6361
               6 (  A) A   7 (  A) A   8 (  A) A
                 -0.5823     -0.4982     -0.3745
  Block   1:   1 (  A) B   2 (  A) B   3 (  A) B   4 (  A) B   5 (  A) B
                  -11.24      -11.23       -1.03     -0.7858     -0.6361
               6 (  A) B   7 (  A) B   8 (  A) B
                 -0.5823     -0.4982     -0.3745
  Virtual MOs:
  Block   0:   9 (  A) A  10 (  A) A  11 (  A) A  12 (  A) A  13 (  A) A
                  0.1678      0.2024       0.231      0.2364      0.3026
              14 (  A) A  15 (  A) A  16 (  A) A  17 (  A) A  18 (  A) A
                  0.4617      0.5806       0.609      0.6885      0.7045
              19 (  A) A  20 (  A) A  21 (  A) A  22 (  A) A
                  0.7759      0.8072      0.8582      0.9285
  Block   1:  23 (  A) A  24 (  A) A  25 (  A) A  26 (  A) A  27 (  A) A
                  0.9704       1.006        1.13       1.235       1.241
              28 (  A) A  29 (  A) A  30 (  A) A  31 (  A) A  32 (  A) A
                   1.262       1.292       1.592       1.719       1.751
              33 (  A) A  34 (  A) A  35 (  A) A  36 (  A) A
                    1.81       1.839       1.866       1.903
  Block   2:  37 (  A) A  38 (  A) A  39 (  A) A  40 (  A) A  41 (  A) A
                   1.959       1.974       2.224       2.247       2.358
              42 (  A) A  43 (  A) A  44 (  A) A  45 (  A) A  46 (  A) A
                   2.422        2.49       2.622       2.673       2.802
              47 (  A) A  48 (  A) A
                   3.108       3.372
  Block   3:   9 (  A) B  10 (  A) B  11 (  A) B  12 (  A) B  13 (  A) B
                  0.1678      0.2024       0.231      0.2364      0.3026
              14 (  A) B  15 (  A) B  16 (  A) B  17 (  A) B  18 (  A) B
                  0.4617      0.5806       0.609      0.6885      0.7045
              19 (  A) B  20 (  A) B  21 (  A) B  22 (  A) B
                  0.7759      0.8072      0.8582      0.9285
  Block   4:  23 (  A) B  24 (  A) B  25 (  A) B  26 (  A) B  27 (  A) B
                  0.9704       1.006        1.13       1.235       1.241
              28 (  A) B  29 (  A) B  30 (  A) B  31 (  A) B  32 (  A) B
                   1.262       1.292       1.592       1.719       1.751
              33 (  A) B  34 (  A) B  35 (  A) B  36 (  A) B
                    1.81       1.839       1.866       1.903
  Block   5:  37 (  A) B  38 (  A) B  39 (  A) B  40 (  A) B  41 (  A) B
                   1.959       1.974       2.224       2.247       2.358
              42 (  A) B  43 (  A) B  44 (  A) B  45 (  A) B  46 (  A) B
                   2.422        2.49       2.622       2.673       2.802
              47 (  A) B  48 (  A) B
                   3.108       3.372
  Import MO data ...  CPU 0.07 s  wall 0.03 s
  Import HF data ...  CPU 0.62 s  wall 0.22 s
  Import 2e integrals ...  CPU 1.13 s  wall 0.59 s

--------------------------------------------------------------------------------
                                   HF Summary                                   
--------------------------------------------------------------------------------
  Energy:                                                  -78.0380719320 a.u.
  Dip. moment [a.u.]:                  [  -0.004830,   -0.004180,   -0.007042]
  Total dipole [Debye]:                                               0.024165
  <r^2> [a.u.]:                        [ 172.836593,   35.354005,   11.675385]
  Total <r^2> [a.u.]:                                               219.865983
--------------------------------------------------------------------------------
  HF properties ...  CPU 0.03 s  wall 0.02 s
  MP(1) calculation ...  CPU 0.01 s  wall 0.01 s
  N^6 prerequesite intermediates ...  CPU 0.72 s  wall 0.12 s
  Difference density matrix of state mp2_gs printed to ASCII file 'State_mp2_gs_Difference.txt'
Exporting MP density matrix to file 'Densmat_MP.txt'.
Export successful
  Total density matrix of state mp2_gs printed to ASCII file 'State_mp2_gs_Total.txt'
Exporting MP density matrix to file 'Densmat_MP.txt'.
Export successful

--------------------------------------------------------------------------------
                                 MP(2) Summary                                  
--------------------------------------------------------------------------------
  MP energy contribution:                                   -0.2805688479 a.u.
  Total energy:                                            -78.3186407800 a.u.
  Dip. moment [a.u.]:                  [  -0.003509,   -0.003521,   -0.006866]
  Total dipole [Debye]:                                               0.021545
  <r^2> [a.u.]:                        [ 172.889956,   35.383492,   11.502340]
  Total <r^2> [a.u.]:                                               219.775788

  Density matrix analysis:
  ------------------------
  NOs
    Occupation of frontier NOs:
       0.0455   1.9380
    Number of electrons: 16.000000
    Number of unpaired electrons: n_u =  0.40759, n_u,nl =  0.04589
    NO participation ratio (PR_NO): 13.893010
  
  
  Mulliken Population Analysis
  Atom      Charge (e)              h+              e-           Del q
  --------------------------------------------------------------------
   1 H        0.053652        0.013870       -0.011248        0.002623
   2 C       -0.082842        0.093009       -0.098320       -0.005310
   3 H        0.051084        0.014068       -0.011205        0.002863
   4 C       -0.135768        0.096418       -0.101502       -0.005083
   5 H        0.058286        0.013857       -0.011412        0.002445
   6 H        0.055588        0.013885       -0.011423        0.002463
  --------------------------------------------------------------------
  Sum:        0.000000        0.245109       -0.245109        0.000000
  
  Multipole moment analysis of the density matrix
    Molecular charge:                      0.000000
    Number of electrons:                   16.000000
      Center of electronic charge [Ang]: [ -1.542730,  -0.101014,   0.008156]
    Total nuclear charge:                  16.000000
      Center of nuclear charge [Ang]:    [ -1.542846,  -0.101131,   0.007929]
    Dipole moment [D]:                     0.021545
      Cartesian components [D]:          [ -0.008918,  -0.008950,  -0.017452]
    RMS size of the density [Ang]:         1.206723
      Cartesian components [Ang]:        [  0.803658,   0.780430,   0.448603]
  
  Exciton analysis of the difference density matrix
    <r_h> [Ang]:                  [ -1.546555,  -0.092812,   0.009502]
    <r_e> [Ang]:                  [ -1.549407,  -0.094235,   0.009122]
    |<r_e - r_h>| [Ang]:            0.003210
    Hole size [Ang]:                1.402330
      Cartesian components [Ang]: [  0.853498,   0.840757,   0.728833]
    Electron size [Ang]:            1.361762
      Cartesian components [Ang]: [  0.883512,   0.860404,   0.577501]
--------------------------------------------------------------------------------
  MP(2) calculation ...  CPU 0.39 s  wall 0.30 s
  Start ADC(2)-s ...  CPU 0.02 s  wall 0.01 s
  ADC(2) intermediates ...  CPU 0.04 s  wall 0.01 s
  Starting Davidson for singlet states of irrep A ... 
--------------------------------------------------------------------------------
   It NVec Conv  Avg. Norm  Max. Norm  Conv. states           Remark
--------------------------------------------------------------------------------
        10    0  1.329e-01  4.688e-01  0.4115 n n n n n n n n Guess.
    1   20    0  2.364e-02  1.191e-01  0.3261 n n n n n n n n 
    2   30    0  6.087e-03  2.716e-02  0.3213 n n n n n n n n 
    3   40    0  2.254e-03  1.339e-02  0.3209 n n n n n n n n 
    4   50    0  6.907e-04  5.040e-03  0.3209 n n n n n n n n 
    5   20    0  3.775e-04  2.668e-03  0.3208 n n n n n n n n Subspace collapsed.
    6   30    0  3.177e-04  2.513e-03  0.3208 n n n n n n n n 
    7   40    0  2.144e-04  1.513e-03  0.3208 n n n n n n n n 
    8   50    0  1.879e-04  1.692e-03  0.3208 n n n n n n n n 
    9   20    0  1.178e-04  1.084e-03  0.3208 n n n n n n n n Subspace collapsed.
   10   30    1  8.439e-05  7.588e-04  0.3208 n n y n n n n n 
   11   40    5  5.920e-05  5.470e-04  0.3208 y y y y y n n n 
   12   50    6  4.920e-05  4.771e-04  0.3208 y y y y y y n n 
   13   20    6  3.532e-05  3.447e-04  0.3208 y y y y y y n n Subspace collapsed.
   14   30    6  4.514e-05  4.449e-04  0.3208 y y y y y y n n 
   15   40    6  4.853e-05  4.814e-04  0.3208 y y y y y y n n 
   16   50    6  4.678e-05  4.657e-04  0.3208 y y y y y y n n 
   17   20    6  2.397e-05  2.386e-04  0.3208 y y y y y y n n Subspace collapsed.
   18   30    6  2.313e-05  2.302e-04  0.3208 y y y y y y n n 
   19   40    6  1.396e-05  1.390e-04  0.3208 y y y y y y n n 
   20   50    6  1.337e-05  1.333e-04  0.3208 y y y y y y n n 
   21   20    7  6.451e-06  6.433e-05  0.3208 y y y y y y y n Subspace collapsed.
   22   30    7  1.150e-05  1.147e-04  0.3208 y y y y y y y n 
   23   40    7  1.059e-05  1.057e-04  0.3208 y y y y y y y n 
   24   49    8  1.226e-05  1.224e-04  0.3208 y y y y y y y y 
   25   49    8  1.226e-05  1.224e-04  0.3208 y y y y y y y y 
   26   50    8  1.227e-05  1.225e-04  0.3208 y y y y y y y y 
   27   17    8  5.378e-06  5.371e-05  0.3208 y y y y y y y y Subspace collapsed.
   28   24    8  5.615e-06  5.608e-05  0.3208 y y y y y y y y 
   29   30    8  2.869e-06  2.866e-05  0.3208 y y y y y y y y 
   30   36    8  3.750e-06  3.747e-05  0.3208 y y y y y y y y 
   31   42    8  4.182e-06  4.180e-05  0.3208 y y y y y y y y 
   32   46    9  3.004e-06  3.002e-05  0.3208 y y y y y y y y 
   33   50    9  1.405e-06  1.405e-05  0.3208 y y y y y y y y 
   34   14    9  6.264e-07  6.262e-06  0.3208 y y y y y y y y Subspace collapsed.
   35   18    9  3.903e-07  3.901e-06  0.3208 y y y y y y y y 
   36   22    9  2.168e-07  2.167e-06  0.3208 y y y y y y y y 
   37   26    9  1.261e-07  1.261e-06  0.3208 y y y y y y y y 
   38   30    9  1.017e-07  1.017e-06  0.3208 y y y y y y y y 
   39   34   10  7.701e-08  7.699e-07  0.3208 y y y y y y y y Converged.
--------------------------------------------------------------------------------
  Davidson Summary: 
 ------------------------------------------------------------
  State  0: excitation energy =   0.3208 a.u.   (converged)
  State  1: excitation energy =   0.3279 a.u.   (converged)
  State  2: excitation energy =   0.3356 a.u.   (converged)
  State  3: excitation energy =   0.3579 a.u.   (converged)
  State  4: excitation energy =   0.3732 a.u.   (converged)
  State  5: excitation energy =   0.3866 a.u.   (converged)
  State  6: excitation energy =   0.4189 a.u.   (converged)
  State  7: excitation energy =   0.4438 a.u.   (converged)
  State  8: excitation energy =   0.4536 a.u.   (converged)
  State  9: excitation energy =   0.4577 a.u.   (converged)
 ------------------------------------------------------------

  Singlet states of irrep A ...  CPU 242.37 s  wall 75.89 s
  TDMs ...  CPU 2.05 s  wall 0.78 s
  SDMs ...  CPU 4.26 s  wall 1.37 s
  Starting TPA DIIS iterations ... 
------------------------------------ 
   It     Res. Norm  Remark
------------------------------------
                       Guess.
    1     4.478e+00  
    2     5.935e+00  
    3     1.091e+00  
    4     2.577e-01  
    5     6.545e-02  
    6     2.724e-02  
    7     8.430e-03  
    8     1.493e-03  
    9     5.659e-04  
   10     9.530e-05  
   11     3.085e-05  
   12     4.887e-06  
   13     2.054e-06  
   14     5.646e-07  Converged.
   ... Converged in 14 steps (norm: 5.6465e-07)
------------------------------------
  Starting TPA DIIS iterations ... 
------------------------------------ 
   It     Res. Norm  Remark
------------------------------------
                       Guess.
    1     4.103e+00  
    2     5.439e+00  
    3     1.033e+00  
    4     2.662e-01  
    5     6.524e-02  
    6     2.842e-02  
    7     8.377e-03  
    8     1.644e-03  
    9     6.174e-04  
   10     1.010e-04  
   11     3.436e-05  
   12     5.422e-06  
   13     2.052e-06  
   14     5.510e-07  Converged.
   ... Converged in 14 steps (norm: 5.50999e-07)
------------------------------------
  Starting TPA DIIS iterations ... 
------------------------------------ 
   It     Res. Norm  Remark
------------------------------------
                       Guess.
    1     6.853e-01  
    2     4.804e-01  
    3     1.690e-01  
    4     7.170e-02  
    5     1.857e-02  
    6     6.644e-03  
    7     1.176e-03  
    8     4.447e-04  
    9     1.851e-04  
   10     3.451e-05  
   11     2.357e-05  
   12     8.436e-06  
   13     4.395e-06  
   14     2.034e-06  
   15     5.974e-07  Converged.
   ... Converged in 15 steps (norm: 5.97449e-07)
------------------------------------
  Starting TPA DIIS iterations ... 
------------------------------------ 
   It     Res. Norm  Remark
------------------------------------
                       Guess.
    1     4.651e+00  
    2     6.245e+00  
    3     1.140e+00  
    4     2.747e-01  
    5     7.036e-02  
    6     2.944e-02  
    7     9.102e-03  
    8     1.611e-03  
    9     6.137e-04  
   10     1.037e-04  
   11     3.385e-05  
   12     5.393e-06  
   13     2.315e-06  
   14     6.381e-07  Converged.
   ... Converged in 14 steps (norm: 6.38107e-07)
------------------------------------
  Starting TPA DIIS iterations ... 
------------------------------------ 
   It     Res. Norm  Remark
------------------------------------
                       Guess.
    1     4.261e+00  
    2     5.724e+00  
    3     1.078e+00  
    4     2.836e-01  
    5     7.014e-02  
    6     3.076e-02  
    7     9.054e-03  
    8     1.778e-03  
    9     6.703e-04  
   10     1.100e-04  
   11     3.769e-05  
   12     5.986e-06  
   13     2.295e-06  
   14     6.096e-07  Converged.
   ... Converged in 14 steps (norm: 6.09622e-07)
------------------------------------
  Starting TPA DIIS iterations ... 
------------------------------------ 
   It     Res. Norm  Remark
------------------------------------
                       Guess.
    1     6.926e-01  
    2     4.908e-01  
    3     1.748e-01  
    4     7.733e-02  
    5     1.941e-02  
    6     7.015e-03  
    7     1.265e-03  
    8     4.831e-04  
    9     2.026e-04  
   10     3.943e-05  
   11     2.620e-05  
   12     9.395e-06  
   13     5.009e-06  
   14     2.369e-06  
   15     6.931e-07  Converged.
   ... Converged in 15 steps (norm: 6.93121e-07)
------------------------------------
  Starting TPA DIIS iterations ... 
------------------------------------ 
   It     Res. Norm  Remark
------------------------------------
                       Guess.
    1     4.852e+00  
    2     6.609e+00  
    3     1.196e+00  
    4     2.949e-01  
    5     7.620e-02  
    6     3.207e-02  
    7     9.903e-03  
    8     1.752e-03  
    9     6.709e-04  
   10     1.137e-04  
   11     3.750e-05  
   12     6.008e-06  
   13     2.643e-06  
   14     7.330e-07  Converged.
   ... Converged in 14 steps (norm: 7.33e-07)
------------------------------------
  Starting TPA DIIS iterations ... 
------------------------------------ 
   It     Res. Norm  Remark
------------------------------------
                       Guess.
    1     4.444e+00  
    2     6.056e+00  
    3     1.131e+00  
    4     3.042e-01  
    5     7.597e-02  
    6     3.357e-02  
    7     9.860e-03  
    8     1.937e-03  
    9     7.336e-04  
   10     1.208e-04  
   11     4.173e-05  
   12     6.674e-06  
   13     2.599e-06  
   14     6.815e-07  Converged.
   ... Converged in 14 steps (norm: 6.81545e-07)
------------------------------------
  Starting TPA DIIS iterations ... 
------------------------------------ 
   It     Res. Norm  Remark
------------------------------------
                       Guess.
    1     7.007e-01  
    2     5.025e-01  
    3     1.815e-01  
    4     8.410e-02  
    5     2.037e-02  
    6     7.455e-03  
    7     1.373e-03  
    8     5.289e-04  
    9     2.236e-04  
   10     4.572e-05  
   11     2.944e-05  
   12     1.060e-05  
   13     5.794e-06  
   14     2.804e-06  
   15     8.100e-07  Converged.
   ... Converged in 15 steps (norm: 8.09967e-07)
------------------------------------
  Starting TPA DIIS iterations ... 
------------------------------------ 
   It     Res. Norm  Remark
------------------------------------
                       Guess.
    1     5.524e+00  
    2     7.857e+00  
    3     1.384e+00  
    4     3.665e-01  
    5     9.692e-02  
    6     4.151e-02  
    7     1.275e-02  
    8     2.250e-03  
    9     8.765e-04  
   10     1.497e-04  
   11     5.104e-05  
   12     8.293e-06  
   13     3.958e-06  
   14     1.145e-06  
   15     7.409e-07  Converged.
   ... Converged in 15 steps (norm: 7.40904e-07)
------------------------------------
  Starting TPA DIIS iterations ... 
------------------------------------ 
   It     Res. Norm  Remark
------------------------------------
                       Guess.
    1     5.056e+00  
    2     7.198e+00  
    3     1.307e+00  
    4     3.774e-01  
    5     9.667e-02  
    6     4.364e-02  
    7     1.273e-02  
    8     2.504e-03  
    9     9.613e-04  
   10     1.596e-04  
   11     5.666e-05  
   12     9.229e-06  
   13     3.786e-06  
   14     9.580e-07  Converged.
   ... Converged in 14 steps (norm: 9.57982e-07)
------------------------------------
  Starting TPA DIIS iterations ... 
------------------------------------ 
   It     Res. Norm  Remark
------------------------------------
                       Guess.
    1     7.253e-01  
    2     5.397e-01  
    3     2.032e-01  
    4     1.085e-01  
    5     2.362e-02  
    6     9.007e-03  
    7     1.766e-03  
    8     6.870e-04  
    9     2.986e-04  
   10     7.125e-05  
   11     4.191e-05  
   12     1.552e-05  
   13     9.072e-06  
   14     4.641e-06  
   15     1.245e-06  
   16     5.223e-07  Converged.
   ... Converged in 16 steps (norm: 5.22296e-07)
------------------------------------
  Starting TPA DIIS iterations ... 
------------------------------------ 
   It     Res. Norm  Remark
------------------------------------
                       Guess.
    1     6.082e+00  
    2     8.929e+00  
    3     1.539e+00  
    4     4.305e-01  
    5     1.154e-01  
    6     5.004e-02  
    7     1.529e-02  
    8     2.694e-03  
    9     1.063e-03  
   10     1.824e-04  
   11     6.381e-05  
   12     1.044e-05  
   13     5.318e-06  
   14     1.625e-06  
   15     1.051e-06  
   16     4.330e-07  Converged.
   ... Converged in 16 steps (norm: 4.33022e-07)
------------------------------------
  Starting TPA DIIS iterations ... 
------------------------------------ 
   It     Res. Norm  Remark
------------------------------------
                       Guess.
    1     5.564e+00  
    2     8.179e+00  
    3     1.453e+00  
    4     4.428e-01  
    5     1.152e-01  
    6     5.277e-02  
    7     1.530e-02  
    8     3.012e-03  
    9     1.168e-03  
   10     1.948e-04  
   11     7.061e-05  
   12     1.162e-05  
   13     4.976e-06  
   14     1.238e-06  
   15     6.691e-07  Converged.
   ... Converged in 15 steps (norm: 6.69115e-07)
------------------------------------
  Starting TPA DIIS iterations ... 
------------------------------------ 
   It     Res. Norm  Remark
------------------------------------
                       Guess.
    1     7.433e-01  
    2     5.687e-01  
    3     2.207e-01  
    4     1.306e-01  
    5     2.639e-02  
    6     1.039e-02  
    7     2.130e-03  
    8     8.169e-04  
    9     3.651e-04  
   10     9.724e-05  
   11     5.427e-05  
   12     2.074e-05  
   13     1.271e-05  
   14     6.599e-06  
   15     1.685e-06  
   16     7.086e-07  Converged.
   ... Converged in 16 steps (norm: 7.08584e-07)
------------------------------------
  Starting TPA DIIS iterations ... 
------------------------------------ 
   It     Res. Norm  Remark
------------------------------------
                       Guess.
    1     6.645e+00  
    2     1.004e+01  
    3     1.695e+00  
    4     4.987e-01  
    5     1.351e-01  
    6     5.924e-02  
    7     1.801e-02  
    8     3.168e-03  
    9     1.265e-03  
   10     2.175e-04  
   11     7.800e-05  
   12     1.280e-05  
   13     6.950e-06  
   14     2.263e-06  
   15     1.433e-06  
   16     6.125e-07  Converged.
   ... Converged in 16 steps (norm: 6.12468e-07)
------------------------------------
  Starting TPA DIIS iterations ... 
------------------------------------ 
   It     Res. Norm  Remark
------------------------------------
                       Guess.
    1     6.077e+00  
    2     9.196e+00  
    3     1.598e+00  
    4     5.125e-01  
    5     1.349e-01  
    6     6.264e-02  
    7     1.805e-02  
    8     3.555e-03  
    9     1.392e-03  
   10     2.328e-04  
   11     8.596e-05  
   12     1.426e-05  
   13     6.360e-06  
   14     1.578e-06  
   15     8.968e-07  Converged.
   ... Converged in 15 steps (norm: 8.9678e-07)
------------------------------------
  Starting TPA DIIS iterations ... 
------------------------------------ 
   It     Res. Norm  Remark
------------------------------------
                       Guess.
    1     7.598e-01  
    2     5.964e-01  
    3     2.379e-01  
    4     1.540e-01  
    5     2.927e-02  
    6     1.186e-02  
    7     2.532e-03  
    8     9.399e-04  
    9     4.352e-04  
   10     1.273e-04  
   11     6.863e-05  
   12     2.712e-05  
   13     1.737e-05  
   14     8.940e-06  
   15     2.254e-06  
   16     9.368e-07  Converged.
   ... Converged in 16 steps (norm: 9.36781e-07)
------------------------------------
  Starting TPA DIIS iterations ... 
------------------------------------ 
   It     Res. Norm  Remark
------------------------------------
                       Guess.
    1     8.413e+00  
    2     1.371e+01  
    3     2.176e+00  
    4     7.347e-01  
    5     2.033e-01  
    6     9.164e-02  
    7     2.741e-02  
    8     4.808e-03  
    9     1.979e-03  
   10     3.409e-04  
   11     1.301e-04  
   12     2.129e-05  
   13     1.383e-05  
   14     5.470e-06  
   15     3.126e-06  
   16     1.402e-06  
   17     5.731e-07  Converged.
   ... Converged in 17 steps (norm: 5.73123e-07)
------------------------------------
  Starting TPA DIIS iterations ... 
------------------------------------ 
   It     Res. Norm  Remark
------------------------------------
                       Guess.
    1     7.691e+00  
    2     1.256e+01  
    3     2.048e+00  
    4     7.528e-01  
    5     2.032e-01  
    6     9.756e-02  
    7     2.760e-02  
    8     5.447e-03  
    9     2.184e-03  
   10     3.667e-04  
   11     1.411e-04  
   12     2.372e-05  
   13     1.180e-05  
   14     3.122e-06  
   15     1.898e-06  
   16     7.329e-07  Converged.
   ... Converged in 16 steps (norm: 7.32868e-07)
------------------------------------
  Starting TPA DIIS iterations ... 
------------------------------------ 
   It     Res. Norm  Remark
------------------------------------
                       Guess.
    1     8.031e-01  
    2     6.759e-01  
    3     2.891e-01  
    4     2.318e-01  
    5     3.890e-02  
    6     1.687e-02  
    7     3.984e-03  
    8     1.257e-03  
    9     6.702e-04  
   10     2.431e-04  
   11     1.262e-04  
   12     5.455e-05  
   13     3.796e-05  
   14     1.848e-05  
   15     5.177e-06  
   16     1.861e-06  
   17     6.802e-07  Converged.
   ... Converged in 17 steps (norm: 6.80172e-07)
------------------------------------
  Starting TPA DIIS iterations ... 
------------------------------------ 
   It     Res. Norm  Remark
------------------------------------
                       Guess.
    1     1.036e+01  
    2     1.803e+01  
    3     2.692e+00  
    4     1.023e+00  
    5     2.873e-01  
    6     1.325e-01  
    7     3.901e-02  
    8     6.840e-03  
    9     2.888e-03  
   10     4.946e-04  
   11     1.978e-04  
   12     3.219e-05  
   13     2.435e-05  
   14     1.123e-05  
   15     5.992e-06  
   16     2.718e-06  
   17     9.222e-07  Converged.
   ... Converged in 17 steps (norm: 9.22214e-07)
------------------------------------
  Starting TPA DIIS iterations ... 
------------------------------------ 
   It     Res. Norm  Remark
------------------------------------
                       Guess.
    1     9.467e+00  
    2     1.652e+01  
    3     2.530e+00  
    4     1.046e+00  
    5     2.876e-01  
    6     1.418e-01  
    7     3.941e-02  
    8     7.806e-03  
    9     3.194e-03  
   10     5.347e-04  
   11     2.109e-04  
   12     3.587e-05  
   13     1.925e-05  
   14     5.761e-06  
   15     3.641e-06  
   16     1.504e-06  
   17     8.107e-07  Converged.
   ... Converged in 17 steps (norm: 8.10704e-07)
------------------------------------
  Starting TPA DIIS iterations ... 
------------------------------------ 
   It     Res. Norm  Remark
------------------------------------
                       Guess.
    1     8.407e-01  
    2     7.540e-01  
    3     3.417e-01  
    4     3.147e-01  
    5     5.024e-02  
    6     2.272e-02  
    7     5.828e-03  
    8     1.544e-03  
    9     9.499e-04  
   10     3.990e-04  
   11     2.100e-04  
   12     9.573e-05  
   13     6.450e-05  
   14     3.272e-05  
   15     1.053e-05  
   16     3.334e-06  
   17     1.181e-06  
   18     5.753e-07  Converged.
   ... Converged in 18 steps (norm: 5.75319e-07)
------------------------------------
  Starting TPA DIIS iterations ... 
------------------------------------ 
   It     Res. Norm  Remark
------------------------------------
                       Guess.
    1     1.133e+01  
    2     2.029e+01  
    3     2.945e+00  
    4     1.176e+00  
    5     3.322e-01  
    6     1.547e-01  
    7     4.521e-02  
    8     7.932e-03  
    9     3.384e-03  
   10     5.769e-04  
   11     2.350e-04  
   12     3.835e-05  
   13     3.065e-05  
   14     1.492e-05  
   15     7.908e-06  
   16     3.621e-06  
   17     1.154e-06  
   18     4.560e-07  Converged.
   ... Converged in 18 steps (norm: 4.55974e-07)
------------------------------------
  Starting TPA DIIS iterations ... 
------------------------------------ 
   It     Res. Norm  Remark
------------------------------------
                       Guess.
    1     1.035e+01  
    2     1.858e+01  
    3     2.766e+00  
    4     1.200e+00  
    5     3.327e-01  
    6     1.658e-01  
    7     4.573e-02  
    8     9.078e-03  
    9     3.745e-03  
   10     6.251e-04  
   11     2.487e-04  
   12     4.264e-05  
   13     2.340e-05  
   14     7.449e-06  
   15     4.817e-06  
   16     2.023e-06  
   17     1.035e-06  
   18     4.997e-07  Converged.
   ... Converged in 18 steps (norm: 4.997e-07)
------------------------------------
  Starting TPA DIIS iterations ... 
------------------------------------ 
   It     Res. Norm  Remark
------------------------------------
                       Guess.
    1     8.568e-01  
    2     7.904e-01  
    3     3.666e-01  
    4     3.523e-01  
    5     5.611e-02  
    6     2.563e-02  
    7     6.809e-03  
    8     1.702e-03  
    9     1.097e-03  
   10     4.852e-04  
   11     2.589e-04  
   12     1.198e-04  
   13     7.617e-05  
   14     4.129e-05  
   15     1.403e-05  
   16     4.360e-06  
   17     1.540e-06  
   18     7.910e-07  Converged.
   ... Converged in 18 steps (norm: 7.90959e-07)
------------------------------------
  Starting TPA DIIS iterations ... 
------------------------------------ 
   It     Res. Norm  Remark
------------------------------------
                       Guess.
    1     1.178e+01  
    2     2.136e+01  
    3     3.062e+00  
    4     1.249e+00  
    5     3.538e-01  
    6     1.654e-01  
    7     4.820e-02  
    8     8.459e-03  
    9     3.625e-03  
   10     6.165e-04  
   11     2.531e-04  
   12     4.144e-05  
   13     3.382e-05  
   14     1.682e-05  
   15     8.927e-06  
   16     4.112e-06  
   17     1.280e-06  
   18     4.828e-07  Converged.
   ... Converged in 18 steps (norm: 4.82796e-07)
------------------------------------
  Starting TPA DIIS iterations ... 
------------------------------------ 
   It     Res. Norm  Remark
------------------------------------
                       Guess.
    1     1.077e+01  
    2     1.957e+01  
    3     2.875e+00  
    4     1.273e+00  
    5     3.543e-01  
    6     1.775e-01  
    7     4.878e-02  
    8     9.692e-03  
    9     4.013e-03  
   10     6.686e-04  
   11     2.671e-04  
   12     4.598e-05  
   13     2.543e-05  
   14     8.320e-06  
   15     5.437e-06  
   16     2.298e-06  
   17     1.151e-06  
   18     5.559e-07  Converged.
   ... Converged in 18 steps (norm: 5.55929e-07)
------------------------------------
  Starting TPA DIIS iterations ... 
------------------------------------ 
   It     Res. Norm  Remark
------------------------------------
                       Guess.
    1     8.639e-01  
    2     8.069e-01  
    3     3.781e-01  
    4     3.688e-01  
    5     5.890e-02  
    6     2.696e-02  
    7     7.277e-03  
    8     1.783e-03  
    9     1.167e-03  
   10     5.269e-04  
   11     2.833e-04  
   12     1.317e-04  
   13     8.094e-05  
   14     4.562e-05  
   15     1.584e-05  
   16     4.940e-06  
   17     1.738e-06  
   18     8.907e-07  Converged.
   ... Converged in 18 steps (norm: 8.90728e-07)
------------------------------------
  Two-photon absorbption ...  CPU 171.63 s  wall 45.81 s
  Transition density matrix of state singlet_A_1 printed to ASCII file 'State_singlet_A_1_Transition.txt'
  Transition density matrix of state singlet_A_2 printed to ASCII file 'State_singlet_A_2_Transition.txt'
  Transition density matrix of state singlet_A_3 printed to ASCII file 'State_singlet_A_3_Transition.txt'
  Transition density matrix of state singlet_A_4 printed to ASCII file 'State_singlet_A_4_Transition.txt'
  Transition density matrix of state singlet_A_5 printed to ASCII file 'State_singlet_A_5_Transition.txt'
  Transition density matrix of state singlet_A_6 printed to ASCII file 'State_singlet_A_6_Transition.txt'
  Transition density matrix of state singlet_A_7 printed to ASCII file 'State_singlet_A_7_Transition.txt'
  Transition density matrix of state singlet_A_8 printed to ASCII file 'State_singlet_A_8_Transition.txt'
  Transition density matrix of state singlet_A_9 printed to ASCII file 'State_singlet_A_9_Transition.txt'
  Transition density matrix of state singlet_A_10 printed to ASCII file 'State_singlet_A_10_Transition.txt'
  Transition properties ...  CPU 0.33 s  wall 0.59 s
  Difference density matrix of state singlet_A_1 printed to ASCII file 'State_singlet_A_1_Difference.txt'
  Total density matrix of state singlet_A_1 printed to ASCII file 'State_singlet_A_1_Total.txt'
  Difference density matrix of state singlet_A_2 printed to ASCII file 'State_singlet_A_2_Difference.txt'
  Total density matrix of state singlet_A_2 printed to ASCII file 'State_singlet_A_2_Total.txt'
  Difference density matrix of state singlet_A_3 printed to ASCII file 'State_singlet_A_3_Difference.txt'
  Total density matrix of state singlet_A_3 printed to ASCII file 'State_singlet_A_3_Total.txt'
  Difference density matrix of state singlet_A_4 printed to ASCII file 'State_singlet_A_4_Difference.txt'
  Total density matrix of state singlet_A_4 printed to ASCII file 'State_singlet_A_4_Total.txt'
  Difference density matrix of state singlet_A_5 printed to ASCII file 'State_singlet_A_5_Difference.txt'
  Total density matrix of state singlet_A_5 printed to ASCII file 'State_singlet_A_5_Total.txt'
  Difference density matrix of state singlet_A_6 printed to ASCII file 'State_singlet_A_6_Difference.txt'
  Total density matrix of state singlet_A_6 printed to ASCII file 'State_singlet_A_6_Total.txt'
  Difference density matrix of state singlet_A_7 printed to ASCII file 'State_singlet_A_7_Difference.txt'
  Total density matrix of state singlet_A_7 printed to ASCII file 'State_singlet_A_7_Total.txt'
  Difference density matrix of state singlet_A_8 printed to ASCII file 'State_singlet_A_8_Difference.txt'
  Total density matrix of state singlet_A_8 printed to ASCII file 'State_singlet_A_8_Total.txt'
  Difference density matrix of state singlet_A_9 printed to ASCII file 'State_singlet_A_9_Difference.txt'
  Total density matrix of state singlet_A_9 printed to ASCII file 'State_singlet_A_9_Total.txt'
  Difference density matrix of state singlet_A_10 printed to ASCII file 'State_singlet_A_10_Difference.txt'
  Total density matrix of state singlet_A_10 printed to ASCII file 'State_singlet_A_10_Total.txt'
  Properties ...  CPU 0.71 s  wall 1.00 s
  ISR TDMS ...  CPU 29.23 s  wall 9.24 s
  ISR transition properties ...  CPU 0.49 s  wall 0.24 s
  Sum-over-states TPA ...  CPU 0.00 s  wall 0.00 s

--------------------------------------------------------------------------------
                   State-averaged natural transition orbitals
--------------------------------------------------------------------------------
--------------------------------------------------------------------------------
  SA-NTO decomposition ...  CPU 0.01 s  wall 0.04 s

--------------------------------------------------------------------------------
                             Excited State Summary
--------------------------------------------------------------------------------
--------------------------------------------------------------------------------

  Excited state 1 (singlet, A)                                     [converged]
  ----------------------------------------------------------------------------
  Term symbol:  2 (1) A                                     R^2 =  2.87769e-13

  Total energy:                                            -77.9977911256 a.u.
  Excitation energy:                                               8.730763 eV

  Osc. strength:                                                      0.446002
  Trans. dip. moment [a.u.]:           [   1.055355,   -0.985499,   -0.010725]
  <i|r^2|0> [a.u.]:                    [   6.141015,   -0.355272,    0.004513]
  Two-photon absorption cross-section (SoS) [a.u.]:                   0.148334
  Two-photon absorption matrix (SoS) [a.u.]:
                                       |    0.053984    0.080673    0.016015 |
                                       |    0.080673    0.107245    0.005256 |
                                       |    0.016015    0.005256   -0.037040 |
  Two-photon absorption cross-section [a.u.]:                         0.079431
  Two-photon absorption matrix [a.u.]:
                                       |   -0.069968    0.031628    0.013219 |
                                       |    0.031628   -0.002855   -0.009073 |
                                       |    0.013219   -0.009073   -0.060073 |

  Dip. moment [a.u.]:                  [  -0.001434,   -0.003931,   -0.008143]
  Total dipole [Debye]:                                               0.023269
  <r^2> [a.u.]:                        [ 173.672339,   36.045714,   11.913191]
  Total <r^2> [a.u.]:                                               221.631244

  V1^2 = 0.9713, V2^2 = 0.0287

  Important amplitudes:
      occ i     occ j     vir a      vir b          v   
    -----------------------------------------------------
     8 (A) A              9 (A) A                 0.6808
     6 (A) A             14 (A) A                 0.0616
     4 (A) A             10 (A) A                 0.0614
     7 (A) A             16 (A) A                 0.0571
     5 (A) A             13 (A) A                -0.0527
     6 (A) A             23 (A) A                 0.0481
     8 (A) A             20 (A) A                 0.0349
     6 (A) A             19 (A) A                -0.0297
     3 (A) A             12 (A) A                -0.0284
     5 (A) A             22 (A) A                 0.0213
     7 (A) A             11 (A) A                -0.0189
     4 (A) A             24 (A) A                 0.0188
     8 (A) A   8 (A) B   17 (A) A   20 (A) B     -0.0184
     8 (A) A   8 (A) B    9 (A) A   28 (A) B     -0.0168
     3 (A) A             26 (A) A                 0.0167
     7 (A) A             21 (A) A                 0.0156
     6 (A) A             26 (A) A                -0.0149
     3 (A) A             14 (A) A                -0.0143
     6 (A) A             12 (A) A                -0.0136
     3 (A) A   4 (A) B    9 (A) A    9 (A) B     -0.0129
     3 (A) A             19 (A) A                 0.0119
     8 (A) A   8 (A) B   18 (A) A   19 (A) B     -0.0109
     7 (A) A             32 (A) A                 0.0086
     7 (A) A             36 (A) A                 0.0084
     3 (A) A             27 (A) A                -0.0083
     3 (A) A             23 (A) A                -0.0082
     8 (A) A   8 (A) B   25 (A) A   29 (A) B      0.0075
     6 (A) A             27 (A) A                 0.0067
     6 (A) A             40 (A) A                 0.0066
     3 (A) A   6 (A) B    9 (A) A   28 (A) B      0.0064
     5 (A) A   8 (A) B   11 (A) A    9 (A) B     -0.0061
     7 (A) A   8 (A) B   13 (A) A   20 (A) B      0.0060
     5 (A) A   8 (A) B   11 (A) A   20 (A) B      0.0060
     5 (A) A   7 (A) B    9 (A) A    9 (A) B     -0.0059
     6 (A) A   8 (A) A   19 (A) A   28 (A) A     -0.0059
     5 (A) A   8 (A) B   16 (A) A    9 (A) B     -0.0059
     3 (A) A   5 (A) B    9 (A) A   25 (A) B     -0.0058
     6 (A) A             15 (A) A                 0.0057
     5 (A) A             27 (A) A                -0.0057
     7 (A) A   8 (A) B   22 (A) A   20 (A) B     -0.0056
    -----------------------------------------------------

  Density matrix analysis:
  ------------------------
  NOs
    Occupation of frontier NOs:
       0.9489   1.0221
    Number of electrons: 16.000000
    Number of unpaired electrons: n_u =  2.31692, n_u,nl =  2.03337
    NO participation ratio (PR_NO):  2.875367
  
  
  Mulliken Population Analysis
  Atom      Charge (e)              h+              e-           Del q
  --------------------------------------------------------------------
   1 H        0.061526        0.020440       -0.012566        0.007874
   2 C       -0.096220        0.491314       -0.504692       -0.013378
   3 H        0.058379        0.020091       -0.012796        0.007295
   4 C       -0.154252        0.489945       -0.508430       -0.018485
   5 H        0.066598        0.020618       -0.012306        0.008312
   6 H        0.063969        0.020577       -0.012195        0.008382
  --------------------------------------------------------------------
  Sum:        0.000000        1.062984       -1.062984        0.000000
  
  Multipole moment analysis of the density matrix
    Molecular charge:                      0.000000
    Number of electrons:                   16.000000
      Center of electronic charge [Ang]: [ -1.542799,  -0.101001,   0.008198]
    Total nuclear charge:                  16.000000
      Center of nuclear charge [Ang]:    [ -1.542846,  -0.101131,   0.007929]
    Dipole moment [D]:                     0.023269
      Cartesian components [D]:          [ -0.003645,  -0.009990,  -0.020696]
    RMS size of the density [Ang]:         1.220018
      Cartesian components [Ang]:        [  0.812002,   0.787822,   0.456547]
  
  Exciton analysis of the difference density matrix
    <r_h> [Ang]:                  [ -1.539855,  -0.106570,   0.011206]
    <r_e> [Ang]:                  [ -1.540888,  -0.106366,   0.011841]
    |<r_e - r_h>| [Ang]:            0.001230
    Hole size [Ang]:                1.287336
      Cartesian components [Ang]: [  0.734176,   0.710615,   0.783099]
    Electron size [Ang]:            1.463856
      Cartesian components [Ang]: [  0.861360,   0.824300,   0.849390]

  Transition density matrix analysis:
  -----------------------------------
  
  CT numbers (Mulliken)
    omega =     0.9531
    <Phe> =    -0.1602
  
  Exciton analysis of the transition density matrix
    Trans. dipole moment [D]:             1.835123
      Cartesian components [D]:         [  1.341222,  -1.252444,  -0.013630]
    <r_h> [Ang]:                        [ -1.537432,  -0.109616,   0.010482]
    <r_e> [Ang]:                        [ -1.541154,  -0.105847,   0.012424]
    |<r_e - r_h>| [Ang]:                  0.005641
    Hole size [Ang]:                      1.214416
      Cartesian components [Ang]:       [  0.653558,   0.633149,   0.804233]
    Electron size [Ang]:                  1.486706
      Cartesian components [Ang]:       [  0.872143,   0.832764,   0.869578]
    RMS electron-hole separation [Ang]:   1.937071
      Cartesian components [Ang]:       [  1.116547,   1.065754,   1.170357]
    Covariance(r_h, r_e) [Ang^2]:        -0.033556
    Correlation coefficient:             -0.018586
    Center-of-mass size [Ang]:            0.951051
      Cartesian components [Ang]:       [  0.531243,   0.513062,   0.599204]

  Decomposition into state-averaged NTOs
    H- 0 -> L+ 0:  0.6696 ( 89.7%)
    H- 2 -> L+ 5:  0.0830 (  1.4%)
                   omega =  95.3%
  ----------------------------------------------------------------------------


  Excited state 2 (singlet, A)                                     [converged]
  ----------------------------------------------------------------------------
  Term symbol:  3 (1) A                                     R^2 =  2.78092e-13

  Total energy:                                            -77.9907046801 a.u.
  Excitation energy:                                               8.923595 eV

  Osc. strength:                                                      0.000323
  Trans. dip. moment [a.u.]:           [   0.001429,    0.009007,   -0.037329]
  <i|r^2|0> [a.u.]:                    [  -0.037844,   -0.088066,    0.138826]
  Two-photon absorption cross-section (SoS) [a.u.]:                   4.517426
  Two-photon absorption matrix (SoS) [a.u.]:
                                       |   -0.039289   -0.048431    0.499102 |
                                       |   -0.048431   -0.071681    0.552142 |
                                       |    0.499102    0.552142    0.099974 |
  Two-photon absorption cross-section [a.u.]:                         0.260469
  Two-photon absorption matrix [a.u.]:
                                       |    0.018080    0.013158   -0.042148 |
                                       |    0.013158   -0.004108   -0.173532 |
                                       |   -0.042148   -0.173532   -0.024362 |

  Dip. moment [a.u.]:                  [  -0.171065,    0.108025,   -0.015795]
  Total dipole [Debye]:                                               0.515806
  <r^2> [a.u.]:                        [ 171.295912,   34.272351,   13.185989]
  Total <r^2> [a.u.]:                                               218.754253

  V1^2 = 0.9541, V2^2 = 0.0459

  Important amplitudes:
      occ i     occ j     vir a      vir b          v   
    -----------------------------------------------------
     7 (A) A              9 (A) A                 0.6651
     8 (A) A             11 (A) A                -0.1482
     7 (A) A             20 (A) A                 0.0752
     8 (A) A             10 (A) A                 0.0733
     5 (A) A   8 (A) B    9 (A) A    9 (A) B     -0.0308
     8 (A) A             16 (A) A                -0.0280
     8 (A) A             21 (A) A                 0.0178
     5 (A) A             28 (A) A                -0.0146
     4 (A) A   7 (A) B    9 (A) A   19 (A) B     -0.0133
     5 (A) A   7 (A) B    9 (A) A   16 (A) B      0.0130
     7 (A) A   8 (A) B   20 (A) A   17 (A) B     -0.0105
     7 (A) A   8 (A) A    9 (A) A   28 (A) A      0.0097
     5 (A) A   8 (A) B    9 (A) A   20 (A) B     -0.0092
     4 (A) A   6 (A) B    9 (A) A   16 (A) B      0.0089
     5 (A) A   6 (A) A    9 (A) A   23 (A) A      0.0088
     5 (A) A   6 (A) A    9 (A) A   14 (A) A      0.0087
     8 (A) A   7 (A) B    9 (A) A   28 (A) B     -0.0085
     6 (A) A   7 (A) B    9 (A) A   18 (A) B      0.0084
     4 (A) A   5 (A) A    9 (A) A   10 (A) A     -0.0083
     5 (A) A   6 (A) B    9 (A) A   19 (A) B     -0.0082
     3 (A) A   7 (A) B    9 (A) A   18 (A) B      0.0079
     6 (A) A              9 (A) A                 0.0078
     5 (A) A   6 (A) B    9 (A) A   23 (A) B      0.0078
     8 (A) A             13 (A) A                -0.0077
     5 (A) A   7 (A) A    9 (A) A   16 (A) A      0.0077
     4 (A) A   8 (A) B    9 (A) A   25 (A) B     -0.0075
     7 (A) A   8 (A) B   17 (A) A   20 (A) B     -0.0074
     4 (A) A   7 (A) B   19 (A) A    9 (A) B     -0.0073
     5 (A) A   5 (A) B    9 (A) A   13 (A) B     -0.0071
     7 (A) A   8 (A) B   19 (A) A   18 (A) B     -0.0069
     5 (A) A              9 (A) A                -0.0068
     4 (A) A   5 (A) B    9 (A) A   18 (A) B      0.0067
     5 (A) A   8 (A) A    9 (A) A   20 (A) A     -0.0067
     7 (A) A   8 (A) B   17 (A) A    9 (A) B     -0.0065
     7 (A) A   7 (A) B   20 (A) A   22 (A) B     -0.0064
     5 (A) A   6 (A) B    9 (A) A   14 (A) B      0.0062
     5 (A) A   7 (A) B   11 (A) A   20 (A) B      0.0061
     4 (A) A   7 (A) A    9 (A) A   19 (A) A     -0.0060
     4 (A) A   5 (A) B   10 (A) A    9 (A) B      0.0060
     6 (A) A   7 (A) B   18 (A) A    9 (A) B      0.0058
    -----------------------------------------------------

  Density matrix analysis:
  ------------------------
  NOs
    Occupation of frontier NOs:
       0.9465   1.0638
    Number of electrons: 16.000000
    Number of unpaired electrons: n_u =  2.35777, n_u,nl =  2.07134
    NO participation ratio (PR_NO):  3.096616
  
  
  Mulliken Population Analysis
  Atom      Charge (e)              h+              e-           Del q
  --------------------------------------------------------------------
   1 H        0.117612        0.100616       -0.036656        0.063960
   2 C       -0.281845        0.246695       -0.445698       -0.199003
   3 H        0.146116        0.112358       -0.017325        0.095032
   4 C       -0.323523        0.303048       -0.490803       -0.187755
   5 H        0.176320        0.158525       -0.040491        0.118034
   6 H        0.165320        0.123396       -0.013664        0.109732
  --------------------------------------------------------------------
  Sum:        0.000000        1.044638       -1.044638       -0.000000
  
  Multipole moment analysis of the density matrix
    Molecular charge:                      0.000000
    Number of electrons:                   16.000000
      Center of electronic charge [Ang]: [ -1.537189,  -0.104703,   0.008451]
    Total nuclear charge:                  16.000000
      Center of nuclear charge [Ang]:    [ -1.542846,  -0.101131,   0.007929]
    Dipole moment [D]:                     0.515806
      Cartesian components [D]:          [ -0.434803,   0.274572,  -0.040147]
    RMS size of the density [Ang]:         1.206070
      Cartesian components [Ang]:        [  0.796891,   0.767375,   0.480320]
  
  Exciton analysis of the difference density matrix
    <r_h> [Ang]:                  [ -1.615176,   0.004630,   0.010000]
    <r_e> [Ang]:                  [ -1.530298,  -0.051876,   0.014523]
    |<r_e - r_h>| [Ang]:            0.102067
    Hole size [Ang]:                1.491608
      Cartesian components [Ang]: [  0.974878,   1.029933,   0.462327]
    Electron size [Ang]:            1.488375
      Cartesian components [Ang]: [  0.888856,   0.871915,   0.815450]

  Transition density matrix analysis:
  -----------------------------------
  
  CT numbers (Mulliken)
    omega =     0.9213
    <Phe> =    -0.0114
  
  Exciton analysis of the transition density matrix
    Trans. dipole moment [D]:             0.048836
      Cartesian components [D]:         [  0.001817,   0.011447,  -0.047441]
    <r_h> [Ang]:                        [ -1.628083,   0.020038,   0.009403]
    <r_e> [Ang]:                        [ -1.518049,  -0.061275,   0.015510]
    |<r_e - r_h>| [Ang]:                  0.136955
    Hole size [Ang]:                      1.517881
      Cartesian components [Ang]:       [  0.992136,   1.055651,   0.453022]
    Electron size [Ang]:                  1.484455
      Cartesian components [Ang]:       [  0.878619,   0.860913,   0.830943]
    RMS electron-hole separation [Ang]:   2.109537
      Cartesian components [Ang]:       [  1.312315,   1.354160,   0.945635]
    Covariance(r_h, r_e) [Ang^2]:         0.038090
    Correlation coefficient:              0.016905
    Center-of-mass size [Ang]:            1.070485
      Cartesian components [Ang]:       [  0.671295,   0.686295,   0.473604]

  Decomposition into state-averaged NTOs
    H- 1 -> L+ 0:  0.6573 ( 86.4%)
    H- 0 -> L+ 2:  0.1565 (  4.9%)
                   omega =  92.1%
  ----------------------------------------------------------------------------


  Excited state 3 (singlet, A)                                     [converged]
  ----------------------------------------------------------------------------
  Term symbol:  4 (1) A                                     R^2 =  3.07022e-13

  Total energy:                                            -77.9830314632 a.u.
  Excitation energy:                                               9.132394 eV

  Osc. strength:                                                      0.022535
  Trans. dip. moment [a.u.]:           [  -0.018974,   -0.011594,    0.316587]
  <i|r^2|0> [a.u.]:                    [  -0.120502,   -0.016177,    0.005204]
  Two-photon absorption cross-section (SoS) [a.u.]:                   0.430576
  Two-photon absorption matrix (SoS) [a.u.]:
                                       |    0.017952    0.007819   -0.051589 |
                                       |    0.007819    0.034978   -0.219611 |
                                       |   -0.051589   -0.219611    0.028985 |
  Two-photon absorption cross-section [a.u.]:                         0.427067
  Two-photon absorption matrix [a.u.]:
                                       |    0.039803   -0.001862   -0.033765 |
                                       |   -0.001862    0.055394   -0.217314 |
                                       |   -0.033765   -0.217314    0.007893 |

  Dip. moment [a.u.]:                  [  -0.028346,   -0.392406,   -0.014605]
  Total dipole [Debye]:                                               1.000684
  <r^2> [a.u.]:                        [ 178.033917,   40.969124,   11.065419]
  Total <r^2> [a.u.]:                                               230.068460

  V1^2 = 0.9579, V2^2 = 0.0421

  Important amplitudes:
      occ i     occ j     vir a      vir b          v   
    -----------------------------------------------------
     8 (A) A             10 (A) A                -0.6836
     7 (A) A              9 (A) A                 0.0797
     8 (A) A             24 (A) A                -0.0499
     8 (A) A             18 (A) A                 0.0332
     4 (A) A              9 (A) A                -0.0249
     8 (A) A   8 (A) B    9 (A) A   12 (A) B      0.0220
     8 (A) A             11 (A) A                 0.0210
     8 (A) A   8 (A) B   10 (A) A   17 (A) B     -0.0170
     5 (A) A   8 (A) B   11 (A) A   10 (A) B      0.0166
     7 (A) A   8 (A) B   13 (A) A   10 (A) B      0.0142
     8 (A) A             15 (A) A                -0.0139
     6 (A) A   8 (A) A   10 (A) A   15 (A) A     -0.0111
     4 (A) A   8 (A) B   12 (A) A   10 (A) B      0.0111
     6 (A) A   8 (A) B   15 (A) A   10 (A) B      0.0108
     4 (A) A   8 (A) A   10 (A) A   12 (A) A     -0.0107
     7 (A) A   8 (A) B   22 (A) A   10 (A) B     -0.0105
     7 (A) A   8 (A) A   10 (A) A   13 (A) A     -0.0097
     7 (A) A   8 (A) A   10 (A) A   22 (A) A      0.0096
     5 (A) A   8 (A) A   10 (A) A   11 (A) A     -0.0096
     5 (A) A   8 (A) B   21 (A) A   10 (A) B     -0.0091
     6 (A) A   8 (A) B   10 (A) A   10 (A) B     -0.0090
     7 (A) A             20 (A) A                 0.0086
     6 (A) A   8 (A) A   10 (A) A   18 (A) A     -0.0085
     7 (A) A   8 (A) A   12 (A) A   16 (A) A      0.0082
     8 (A) A             12 (A) A                -0.0080
     3 (A) A   4 (A) B   10 (A) A    9 (A) B      0.0079
     5 (A) A   8 (A) A   10 (A) A   21 (A) A      0.0077
     4 (A) A   8 (A) B   19 (A) A   10 (A) B     -0.0074
     8 (A) A   8 (A) B    9 (A) A   23 (A) B     -0.0074
     8 (A) A   8 (A) B   10 (A) A   28 (A) B      0.0073
     8 (A) A             13 (A) A                 0.0072
     8 (A) A             21 (A) A                -0.0072
     7 (A) A   8 (A) B   16 (A) A   12 (A) B     -0.0071
     3 (A) A   8 (A) A   10 (A) A   24 (A) A      0.0071
     5 (A) A   8 (A) B   10 (A) A   11 (A) B      0.0070
     3 (A) A   8 (A) B   10 (A) A   10 (A) B     -0.0070
     8 (A) A   8 (A) B    9 (A) A   19 (A) B     -0.0069
     3 (A) A   8 (A) B   10 (A) A   18 (A) B      0.0067
     8 (A) A             14 (A) A                 0.0066
     6 (A) A   8 (A) B   18 (A) A   10 (A) B      0.0064
    -----------------------------------------------------

  Density matrix analysis:
  ------------------------
  NOs
    Occupation of frontier NOs:
       0.9716   0.9943
    Number of electrons: 16.000000
    Number of unpaired electrons: n_u =  2.31575, n_u,nl =  2.03164
    NO participation ratio (PR_NO):  2.762670
  
  
  Mulliken Population Analysis
  Atom      Charge (e)              h+              e-           Del q
  --------------------------------------------------------------------
   1 H       -0.158480        0.053681       -0.265813       -0.212132
   2 C        0.313636        0.513171       -0.116693        0.396477
   3 H       -0.099837        0.055888       -0.206808       -0.150920
   4 C        0.285261        0.537893       -0.116865        0.421028
   5 H       -0.206668        0.054986       -0.319940       -0.264954
   6 H       -0.133911        0.056466       -0.245965       -0.189499
  --------------------------------------------------------------------
  Sum:        0.000000        1.272084       -1.272084        0.000000
  
  Multipole moment analysis of the density matrix
    Molecular charge:                      0.000000
    Number of electrons:                   16.000000
      Center of electronic charge [Ang]: [ -1.541909,  -0.088152,   0.008412]
    Total nuclear charge:                  16.000000
      Center of nuclear charge [Ang]:    [ -1.542846,  -0.101131,   0.007929]
    Dipole moment [D]:                     1.000683
      Cartesian components [D]:          [ -0.072048,  -0.997396,  -0.037122]
    RMS size of the density [Ang]:         1.281126
      Cartesian components [Ang]:        [  0.859318,   0.842177,   0.439993]
  
  Exciton analysis of the difference density matrix
    <r_h> [Ang]:                  [ -1.551405,  -0.089943,   0.010151]
    <r_e> [Ang]:                  [ -1.541073,   0.071830,   0.013371]
    |<r_e - r_h>| [Ang]:            0.162135
    Hole size [Ang]:                1.416831
      Cartesian components [Ang]: [  0.842948,   0.823604,   0.786463]
    Electron size [Ang]:            2.075567
      Cartesian components [Ang]: [  1.369259,   1.382331,   0.722681]

  Transition density matrix analysis:
  -----------------------------------
  
  CT numbers (Mulliken)
    omega =     0.9248
    <Phe> =    -0.0113
  
  Exciton analysis of the transition density matrix
    Trans. dipole moment [D]:             0.403333
      Cartesian components [D]:         [ -0.024114,  -0.014734,   0.402342]
    <r_h> [Ang]:                        [ -1.543675,  -0.111848,   0.011017]
    <r_e> [Ang]:                        [ -1.538231,   0.125559,   0.014921]
    |<r_e - r_h>| [Ang]:                  0.237502
    Hole size [Ang]:                      1.217731
      Cartesian components [Ang]:       [  0.647926,   0.626607,   0.818794]
    Electron size [Ang]:                  2.279774
      Cartesian components [Ang]:       [  1.502943,   1.518204,   0.795984]
    RMS electron-hole separation [Ang]:   2.585079
      Cartesian components [Ang]:       [  1.628701,   1.652136,   1.140357]
    Covariance(r_h, r_e) [Ang^2]:         0.027006
    Correlation coefficient:              0.009728
    Center-of-mass size [Ang]:            1.297522
      Cartesian components [Ang]:       [  0.822292,   0.824919,   0.571758]

  Decomposition into state-averaged NTOs
    H- 0 -> L+ 1: -0.6655 ( 88.6%)
    H- 0 -> L+ 2: -0.1086 (  2.4%)
    H- 1 -> L+ 0:  0.0789 (  1.2%)
                   omega =  92.5%
  ----------------------------------------------------------------------------


  Excited state 4 (singlet, A)                                     [converged]
  ----------------------------------------------------------------------------
  Term symbol:  5 (1) A                                     R^2 =  3.58844e-13

  Total energy:                                            -77.9607678545 a.u.
  Excitation energy:                                               9.738218 eV

  Osc. strength:                                                      0.000504
  Trans. dip. moment [a.u.]:           [   0.001795,    0.003714,   -0.045771]
  <i|r^2|0> [a.u.]:                    [   0.025338,    0.017082,   -0.028576]
  Two-photon absorption cross-section (SoS) [a.u.]:                 132.658230
  Two-photon absorption matrix (SoS) [a.u.]:
                                       |    0.216069    0.275778   -2.746101 |
                                       |    0.275778    0.349519   -2.952630 |
                                       |   -2.746101   -2.952630   -0.570436 |
  Two-photon absorption cross-section [a.u.]:                        78.973031
  Two-photon absorption matrix [a.u.]:
                                       |    0.151554    0.213093   -2.077551 |
                                       |    0.213093    0.280112   -2.315723 |
                                       |   -2.077551   -2.315723   -0.439769 |

  Dip. moment [a.u.]:                  [   0.338874,    0.240639,    0.036800]
  Total dipole [Debye]:                                               1.060542
  <r^2> [a.u.]:                        [ 180.339052,   41.389022,   10.769016]
  Total <r^2> [a.u.]:                                               232.497090

  V1^2 = 0.9633, V2^2 = 0.0367

  Important amplitudes:
      occ i     occ j     vir a      vir b          v   
    -----------------------------------------------------
     8 (A) A             11 (A) A                 0.6688
     7 (A) A              9 (A) A                 0.1470
     8 (A) A             21 (A) A                -0.0772
     8 (A) A             16 (A) A                 0.0672
     8 (A) A             10 (A) A                 0.0384
     8 (A) A             13 (A) A                 0.0181
     8 (A) A   8 (A) B    9 (A) A   13 (A) B      0.0166
     5 (A) A   8 (A) B   11 (A) A   11 (A) B     -0.0156
     8 (A) A   8 (A) B   11 (A) A   17 (A) B      0.0137
     7 (A) A             20 (A) A                 0.0133
     7 (A) A   8 (A) B   13 (A) A   11 (A) B     -0.0127
     4 (A) A   8 (A) B   12 (A) A   11 (A) B     -0.0110
     8 (A) A   8 (A) B    9 (A) A   22 (A) B     -0.0108
     5 (A) A   8 (A) A   11 (A) A   21 (A) A     -0.0108
     7 (A) A   8 (A) A   11 (A) A   22 (A) A     -0.0093
     6 (A) A              9 (A) A                 0.0092
     6 (A) A   8 (A) B   10 (A) A   11 (A) B      0.0090
     6 (A) A   8 (A) B   15 (A) A   11 (A) B     -0.0090
     7 (A) A   8 (A) B   22 (A) A   11 (A) B      0.0087
     3 (A) A   4 (A) B   11 (A) A    9 (A) B     -0.0083
     6 (A) A   8 (A) A   11 (A) A   15 (A) A      0.0080
     3 (A) A   8 (A) B   11 (A) A   18 (A) B     -0.0079
     7 (A) A   8 (A) A   13 (A) A   16 (A) A      0.0078
     7 (A) A   8 (A) A   11 (A) A   13 (A) A      0.0075
     4 (A) A   8 (A) B   19 (A) A   11 (A) B      0.0069
     5 (A) A   8 (A) B   21 (A) A   11 (A) B      0.0068
     8 (A) A             24 (A) A                 0.0067
     5 (A) A   8 (A) B    9 (A) A    9 (A) B     -0.0064
     4 (A) A   8 (A) A   11 (A) A   12 (A) A      0.0062
     3 (A) A   6 (A) B   11 (A) A   28 (A) B      0.0060
     6 (A) A   8 (A) A   11 (A) A   18 (A) A      0.0058
     6 (A) A   8 (A) B   18 (A) A   11 (A) B     -0.0057
     7 (A) A   8 (A) B   16 (A) A   13 (A) B     -0.0056
     3 (A) A   8 (A) B   11 (A) A   30 (A) B     -0.0056
     3 (A) A   5 (A) B   11 (A) A   25 (A) B     -0.0054
     8 (A) A             14 (A) A                -0.0054
     3 (A) A   8 (A) A   11 (A) A   18 (A) A     -0.0054
     8 (A) A   8 (A) B   20 (A) A   22 (A) B     -0.0054
     7 (A) A   8 (A) B   12 (A) A   10 (A) B      0.0053
     6 (A) A   8 (A) B   11 (A) A   10 (A) B      0.0053
    -----------------------------------------------------

  Density matrix analysis:
  ------------------------
  NOs
    Occupation of frontier NOs:
       0.9425   1.0257
    Number of electrons: 16.000000
    Number of unpaired electrons: n_u =  2.32225, n_u,nl =  2.04854
    NO participation ratio (PR_NO):  2.910888
  
  
  Mulliken Population Analysis
  Atom      Charge (e)              h+              e-           Del q
  --------------------------------------------------------------------
   1 H       -0.065073        0.043740       -0.162465       -0.118725
   2 C        0.286132        0.492119       -0.123144        0.368974
   3 H       -0.191829        0.046377       -0.289290       -0.242913
   4 C        0.224683        0.503692       -0.143241        0.360451
   5 H       -0.078631        0.046868       -0.183785       -0.136917
   6 H       -0.175283        0.045713       -0.276583       -0.230870
  --------------------------------------------------------------------
  Sum:        0.000000        1.178509       -1.178509       -0.000000
  
  Multipole moment analysis of the density matrix
    Molecular charge:                      0.000000
    Number of electrons:                   16.000000
      Center of electronic charge [Ang]: [ -1.554054,  -0.109089,   0.006712]
    Total nuclear charge:                  16.000000
      Center of nuclear charge [Ang]:    [ -1.542846,  -0.101131,   0.007929]
    Dipole moment [D]:                     1.060541
      Cartesian components [D]:          [  0.861332,   0.611643,   0.093537]
    RMS size of the density [Ang]:         1.281438
      Cartesian components [Ang]:        [  0.860913,   0.844086,   0.434087]
  
  Exciton analysis of the difference density matrix
    <r_h> [Ang]:                  [ -1.555541,  -0.106505,   0.009418]
    <r_e> [Ang]:                  [ -1.709279,  -0.216138,  -0.010189]
    |<r_e - r_h>| [Ang]:            0.189840
    Hole size [Ang]:                1.394260
      Cartesian components [Ang]: [  0.817811,   0.806521,   0.790361]
    Electron size [Ang]:            2.104612
      Cartesian components [Ang]: [  1.391722,   1.429018,   0.671125]

  Transition density matrix analysis:
  -----------------------------------
  
  CT numbers (Mulliken)
    omega =     0.9292
    <Phe> =    -0.0143
  
  Exciton analysis of the transition density matrix
    Trans. dipole moment [D]:             0.058405
      Cartesian components [D]:         [  0.002281,   0.004720,  -0.058170]
    <r_h> [Ang]:                        [ -1.542937,  -0.102534,   0.011375]
    <r_e> [Ang]:                        [ -1.744331,  -0.234242,  -0.013666]
    |<r_e - r_h>| [Ang]:                  0.241937
    Hole size [Ang]:                      1.227716
      Cartesian components [Ang]:       [  0.658652,   0.648379,   0.808127]
    Electron size [Ang]:                  2.238016
      Cartesian components [Ang]:       [  1.476874,   1.523223,   0.712284]
    RMS electron-hole separation [Ang]:   2.553031
      Cartesian components [Ang]:       [  1.621511,   1.651889,   1.077001]
    Covariance(r_h, r_e) [Ang^2]:         0.028285
    Correlation coefficient:              0.010294
    Center-of-mass size [Ang]:            1.281851
      Cartesian components [Ang]:       [  0.812592,   0.832139,   0.538872]

  Decomposition into state-averaged NTOs
    H- 0 -> L+ 2: -0.6533 ( 85.4%)
    H- 1 -> L+ 0:  0.1450 (  4.2%)
    H- 0 -> L+ 1:  0.1244 (  3.1%)
                   omega =  92.9%
  ----------------------------------------------------------------------------


  Excited state 5 (singlet, A)                                     [converged]
  ----------------------------------------------------------------------------
  Term symbol:  6 (1) A                                     R^2 =  4.86717e-13

  Total energy:                                            -77.9453945087 a.u.
  Excitation energy:                                              10.156548 eV

  Osc. strength:                                                      0.000331
  Trans. dip. moment [a.u.]:           [   0.001401,   -0.005220,    0.036083]
  <i|r^2|0> [a.u.]:                    [   0.081480,   -0.086905,    0.007946]
[...]
    16   -1.165317091136e-03
    17   -1.588055833275e-03
    18    5.949288907213e-04
    19   -2.861434299114e-03
    20    6.998283181898e-03
    21    8.164821476171e-01
    22   -1.423409934233e-03
    23    1.287364519272e-02
    24    6.782333393169e-04
    25    7.571085636788e-02
    26   -5.970756071085e-02
    27   -1.407527718682e+00
    28    9.312910979671e-02
    29   -1.096735483045e-01
    30   -1.178387837317e-04
    31    4.034859932047e-01
    32   -4.260022677081e-01
    33    7.760072541800e-04
    34    1.539116621401e-02
    35   -1.581154314691e-03
    36   -1.332265264368e-03
    37   -1.626792536499e-03
    38   -2.974199541967e-03
    39    1.641561458770e-02
    40    1.008504502601e+00
    41   -5.238557378663e-04
    42   -1.361931225090e-02
    43   -6.697137025417e-04
    44    9.445522212218e-03
    45    9.481767036433e-01
    46    1.401618203935e-02
    47    3.281604418167e-04
    48    7.351220916077e-04
Sym=X
Ene= 0.230957
Spin=Alpha
Occup=0
     1   -3.049542506172e-02
     2   -1.131068477444e+00
     3    1.153130779607e-02
     4    3.693906006654e-03
     5    7.007647063148e-04
     6    4.843121301699e-03
     7   -1.936969733513e-03
     8   -1.337464898689e-01
     9    1.404853099017e-01
    10    1.646319590837e-01
    11    1.518244795746e-02
    12    5.274729112270e-01
    13    5.949383884327e-01
    14    5.564567322940e-02
    15    2.147154067889e-03
    16   -3.991387562583e-04
    17   -1.185202414317e-04
    18   -3.495157161603e-03
    19   -1.250406707192e-03
    20    3.069840128403e-02
    21    1.279725118630e+00
    22    3.064866627522e-03
    23    1.498327503901e-02
    24    9.737405742379e-04
    25    1.984499875638e-03
    26   -2.430159079459e-03
    27   -5.436097912750e-02
    28    1.600147121142e-01
    29    1.677456339728e-01
    30    1.604550073162e-02
    31    5.425662974594e-01
    32    5.129371124410e-01
    33    5.148800719303e-02
    34    6.866063827451e-04
    35   -2.202280411659e-04
    36   -1.555118707294e-04
    37   -6.212718789665e-04
    38   -5.545306729264e-04
    39   -3.231218671138e-02
    40   -1.086524731956e+00
    41    2.118688727971e-03
    42    1.183781952484e-02
    43    7.299780050252e-04
    44    2.636672654079e-02
    45    1.174170525237e+00
    46    1.340354128090e-02
    47    3.794169841896e-03
    48    7.957670278226e-04
Sym=X
Ene= 0.236359
Spin=Alpha
Occup=0
     1    1.702785131444e-02
     2    1.156883860588e+00
     3   -1.755671454045e-02
     4   -9.185447485172e-03
     5   -1.071241442738e-03
     6    9.134096237993e-02
     7   -8.779585160850e-02
     8   -1.648329963222e+00
     9   -6.399496484212e-02
    10    5.176124868012e-02
    11    2.910757981287e-03
    12   -2.600057381326e-01
    13    2.277260007550e-01
    14    1.296340564680e-02
    15    2.317205196840e-02
    16   -2.150034470684e-03
    17   -3.117870327009e-03
    18    7.911405542628e-04
    19   -1.354617320770e-02
    20    1.818147691246e-02
    21    1.118030824369e+00
    22    7.789066843942e-03
    23    1.789877550491e-02
    24    1.502456737102e-03
    25   -8.245059593414e-02
    26    7.670784623015e-02
    27    1.438428459564e+00
    28   -5.872837265844e-02
    29    5.391144021567e-02
    30   -2.597003500159e-03
    31   -2.439632131016e-01
    32    2.035399504141e-01
    33   -1.113661092848e-02
    34   -1.929443475492e-02
    35    2.350165092828e-03
    36    2.109097131939e-03
    37    2.858365942743e-04
    38    1.157750240154e-02
    39   -2.037638455513e-02
    40   -9.556829206954e-01
    41    8.901210707653e-03
    42    1.370049022135e-02
    43    9.528261728542e-04
    44   -2.264483956058e-02
    45   -1.049474450330e+00
    46   -1.524526125401e-02
    47   -9.419569189227e-03
    48   -1.377640551420e-03
Sym=X
Ene= 0.302618
Spin=Alpha
Occup=0
     1   -2.845570238203e-02
     2    1.704571520742e+00
     3   -2.389508658803e-02
     4   -3.834399764737e-04
     5   -8.881005767215e-04
     6    4.906855426351e-04
     7    2.949020117868e-04
     8   -2.333252329156e-02
     9   -1.347522564358e-01
    10   -1.405740911700e-01
    11   -1.345198931402e-02
    12   -1.132306004599e+00
    13   -1.221972319183e+00
    14   -1.156269410539e-01
    15    2.551486000740e-04
    16   -1.281374343284e-03
    17    2.347361283963e-03
    18   -3.649705609909e-02
    19   -2.908047295669e-03
    20    2.714871602371e-02
    21   -1.691579010840e+00
    22    1.596195246848e-03
    23   -2.339286620484e-02
    24   -1.366361436080e-03
    25   -2.874944934618e-04
    26    6.107587893349e-04
    27   -4.430478914988e-02
    28    1.371653663736e-01
    29    1.451746334299e-01
    30    1.382457143642e-02
    31    1.105906163426e+00
    32    1.148947327491e+00
    33    1.105487282065e-01
    34    6.639552528602e-04
    35   -1.963615959340e-03
    36    1.045627160246e-03
    37   -3.070273408274e-02
    38   -3.045727412951e-03
    39    9.765033503751e-03
    40   -1.581993953281e+00
    41   -2.474228444617e-03
    42    2.252329258490e-02
    43    1.006739219639e-03
    44   -1.743854004119e-02
    45    1.643522483832e+00
    46    2.306181101075e-02
    47   -2.058317157660e-04
    48    1.088596080724e-03
Sym=X
Ene= 0.461744
Spin=Alpha
Occup=0
     1   -1.335361871305e-01
     2   -6.881358872692e-01
     3   -1.556427932095e-02
     4   -1.256701726744e-02
     5   -1.415835226788e-03
     6    6.050741262271e-02
     7    2.322695737884e-02
     8   -3.578933282744e+00
     9    9.213821892765e-02
    10   -8.497735115844e-02
    11   -1.993206440525e-03
    12    2.481146346153e+00
    13   -2.301230433604e+00
    14   -3.252485359068e-02
    15    5.730490119582e-02
    16   -3.644693682201e-03
    17   -4.868416058126e-03
    18    8.295949334687e-05
    19    1.294944585992e-02
    20   -1.491693005242e-01
    21   -6.822585712586e-01
    22    9.440470637140e-03
    23    1.752433567742e-02
    24    1.316011671594e-03
    25   -6.395139967626e-02
    26   -8.334099183294e-03
    27    3.657081962385e+00
    28    1.161666866000e-01
    29   -1.123153976562e-01
    30    6.806729995070e-04
    31    2.434117845735e+00
    32   -2.209487075260e+00
    33   -1.529280099028e-02
    34   -4.822981957372e-02
    35    1.877100587439e-03
    36    3.611605593082e-03
    37    3.233110073662e-04
    38   -2.696781634342e-02
    39    1.011792494778e-01
    40    6.439791911200e-01
    41    6.252897644750e-03
    42    1.476413019338e-02
    43    1.150043515579e-03
    44    7.297849897999e-02
    45    7.599043499040e-01
    46   -1.304078972247e-02
    47   -1.054875638906e-02
    48   -1.065646719992e-03
Sym=X
Ene= 0.580612
Spin=Alpha
Occup=0
     1    2.418025334564e-01
     2   -3.734470418883e-02
     3   -1.925458111576e-02
     4    2.124353363193e-02
     5    5.088917489182e-04
     6    1.658607784983e-03
     7   -1.636960903805e-01
     8   -7.925279503400e-01
     9    3.194843260753e-01
    10   -3.040467740314e-01
    11   -3.542808901723e-03
    12   -4.976249281408e-01
    13    4.853813174607e-01
    14    6.642274552418e-03
    15   -8.051773121731e-04
    16    2.965409384746e-03
    17    3.057921233647e-03
    18   -7.384647408283e-03
    19    5.896941737640e-02
    20    2.479094352929e-01
    21   -5.443024756751e-02
    22   -2.392224896690e-02
    23    1.656197250118e-02
    24    4.029847350670e-05
    25   -1.488142120045e-02
    26   -1.752044381580e-01
    27   -3.191607848230e-02
    28   -2.900266194521e-01
    29    2.808975993326e-01
    30    4.319128562681e-03
    31    9.985300535139e-01
    32   -9.321251979881e-01
    33   -7.882051344164e-03
    34   -1.413152441962e-03
    35    2.909716164277e-03
    36    3.228046063971e-03
    37   -1.055585683692e-02
    38    5.927321261029e-02
    39    2.369013169246e-01
    40    1.003111472948e-01
    41    3.364868855994e-02
    42   -2.404157935345e-02
    43    2.539242979532e-04
    44    2.079287021555e-01
    45    1.878694338327e-01
    46    2.663461432445e-02
    47   -3.067509657310e-02
    48   -3.976525987494e-04
Sym=X
Ene= 0.608980
Spin=Alpha
Occup=0
     1   -5.087741791080e-01
     2    1.511231788571e-01
     3   -6.026292748815e-02
     4    3.681989158505e-02
     5   -1.676173553057e-04
     6   -1.156969316431e-03
     7    5.969864170123e-04
     8   -1.118516595145e-01
     9   -3.927265951141e-02
    10   -4.487342098067e-02
    11   -4.248025433828e-03
    12    3.520548071149e-01
    13    2.516468119446e-01
    14    2.845354028373e-02
    15    6.692205453701e-03
    16   -5.717514090620e-03
    17    7.707730427791e-03
    18   -1.371665971513e-01
    19   -8.158848862350e-03
    20    4.731165344725e-01
    21   -1.674528178601e-01
    22    4.287395363722e-02
    23   -5.304166737335e-02
    24   -1.493946457122e-03
    25    9.963651461661e-04
    26    6.872513420304e-03
    27    4.355378890729e-02
    28   -4.012495868422e-02
    29   -2.073356851857e-02
    30   -2.821105227041e-03
    31    3.294105769868e-01
    32    1.475654719156e-01
    33    2.265505462107e-02
    34   -4.653052959241e-04
    35    8.420463229976e-03
    36   -7.172674576011e-03
    37    1.601131755536e-01
    38    5.751307858646e-03
    39   -5.430388395537e-01
    40    3.801083292598e-01
    41    4.104791227462e-02
    42   -5.904199030924e-02
    43   -1.073450572582e-03
    44    5.498458389862e-01
    45   -2.812550687630e-01
    46   -6.170225768670e-02
    47    3.339425108064e-02
    48   -1.175483223446e-03
Sym=X
Ene= 0.688544
Spin=Alpha
Occup=0
     1   -5.535585280452e-03
     2    2.685502707962e-03
     3   -5.995801130827e-04
     4    5.023116705949e-04
     5   -2.089297956886e-02
     6   -4.158359246656e-04
     7   -6.398175858866e-03
     8    5.748604644277e-03
     9    3.032885564342e-02
    10    3.541973517021e-02
    11   -6.699251709541e-01
    12   -2.642951830774e-02
    13   -3.421246876012e-02
    14    6.156304497683e-01
    15    8.274324245326e-04
    16    8.390300462930e-02
    17   -7.748056100426e-02
    18   -7.761255128506e-03
    19   -2.692372220500e-03
    20   -5.810258654283e-03
    21    2.330882703165e-03
    22    1.428887991395e-03
    23    2.736808645333e-03
    24   -2.173495477115e-02
    25   -4.569432218735e-04
    26   -6.368154265263e-03
    27    4.151649911824e-03
    28    2.676158574860e-02
    29    3.912430063507e-02
    30   -6.717557785036e-01
    31   -2.398075133794e-02
    32   -3.632345421259e-02
    33    6.101556601161e-01
    34    4.113244367081e-03
    35   -8.414937130845e-02
    36    7.640834232748e-02
    37    7.745531724501e-03
    38    8.622427747263e-04
    39   -6.021778921886e-03
    40    5.719408948440e-03
    41    1.999305942042e-04
    42   -9.953708284102e-04
    43   -1.355034081586e-02
    44   -6.038163374142e-03
    45    5.039615042478e-03
    46    2.637910243424e-03
    47    1.497809525226e-03
    48   -1.895181773284e-02
Sym=X
Ene= 0.704524
Spin=Alpha
Occup=0
     1   -4.350421315153e-01
     2    1.650041277222e-01
     3   -7.111564308793e-02
     4   -4.612544842298e-02
     5   -5.108569233307e-03
     6   -4.409501204337e-02
     7   -3.236212125238e-01
     8    6.975759902232e-01
     9    2.064687173341e-01
    10   -1.798358375475e-01
    11    8.299880006807e-03
    12   -1.971806054218e-01
    13    1.306017364785e-01
    14   -9.767643469737e-03
    15    1.739209314010e-01
    16   -1.747469819262e-02
    17   -2.055277703566e-02
    18    5.342508129011e-03
    19   -8.449514530225e-02
    20   -4.565891695337e-01
    21    1.254593136468e-01
    22    3.901559201782e-02
    23    7.250404465703e-02
    24    6.158506425325e-03
    25   -4.727927134054e-02
    26   -2.693800519949e-01
    27    2.271593517180e-01
    28   -1.799332840624e-01
    29    1.872111481432e-01
    30    1.124171679831e-02
    31   -9.092296868594e-02
    32    3.435997750438e-02
    33   -1.290483949478e-02
    34    2.071897366065e-01
    35   -1.872168209643e-02
    36   -2.329426790540e-02
    37    1.859845724620e-03
    38   -6.870899408245e-02
    39   -5.353227021257e-01
    40    2.202030687667e-01
    41   -4.205090659930e-02
    42   -8.451600408564e-02
    43   -6.375700226969e-03
    44   -5.287702837571e-01
    45    1.447619330027e-01
    46    8.552092192809e-02
    47    4.378239310180e-02
    48    6.259477694796e-03
Sym=X
Ene= 0.775937
Spin=Alpha
Occup=0
     1   -5.483257001972e-01
     2    4.832172893291e-01
     3   -1.152873797694e-01
     4   -2.900376200977e-02
     5   -6.336498036947e-03
     6   -9.317555944342e-02
     7    1.606194749636e-01
     8    6.358073300501e-01
     9   -8.096910490129e-02
    10    7.787549177216e-02
    11    7.950307996340e-03
    12   -3.504179386178e-01
    13    2.913130211219e-01
    14   -1.364472306928e-02
    15    2.218287535914e-01
    16   -1.596756855195e-02
    17   -2.365580034588e-02
    18    5.303243966402e-03
    19   -1.886646316218e-02
    20   -5.515492660913e-01
    21    4.657520041429e-01
    22    2.220324255059e-02
    23    1.194534496074e-01
    24    7.766645698377e-03
    25    8.391678711230e-02
    26   -2.911400877914e-01
    27   -5.135551692523e-01
    28   -1.471686829828e-01
    29    8.713461345114e-02
    30   -7.885432680938e-03
    31   -2.224730623289e-01
    32    3.096810297967e-01
    33    2.302459241504e-02
    34   -1.826636716384e-01
    35    1.426609525918e-02
    36    1.670319708499e-02
    37   -7.969794287329e-03
    38   -7.903071401811e-04
    39    5.473750344002e-01
    40   -5.582526849275e-01
    41    2.042382829842e-02
    42    1.056891748014e-01
    43    6.655115373450e-03
    44    4.978174545569e-01
    45   -4.133919594443e-01
    46   -9.176091734087e-02
    47   -2.532672183239e-02
    48   -5.259630354641e-03
Sym=X
Ene= 0.807218
Spin=Alpha
Occup=0
     1   -4.630480899966e-03
     2    5.813849205754e-03
     3   -3.726577690720e-04
     4    2.228158484465e-03
     5   -3.443202119567e-02
     6   -9.148880890226e-04
     7    1.261405530138e-03
     8    2.983533283016e-04
     9    2.871429894883e-02
    10    4.563977359393e-02
    11   -7.631456231468e-01
    12   -4.807390696386e-02
    13   -6.233494509226e-02
    14    1.126471969112e+00
    15    4.218016636260e-03
    16   -6.676642941123e-02
    17    6.056426121216e-02
    18    6.217196349564e-03
    19    1.898712470767e-03
    20   -4.676453159758e-03
    21    5.878461751676e-03
    22    1.139642063737e-03
    23    3.920310998750e-03
    24   -3.686394553588e-02
    25    7.125571800922e-04
    26   -2.040156952560e-03
    27    1.376153299069e-03
    28   -3.632651492293e-02
    29   -3.960802026383e-02
    30    7.656965496311e-01
    31    4.721697374402e-02
    32    6.422533935764e-02
    33   -1.122849261059e+00
    34   -1.278575317173e-03
    35   -6.619813043117e-02
    36    6.089657879704e-02
    37    6.082074242581e-03
    38    8.005785153364e-05
    39    3.934689556534e-03
    40   -7.148497527234e-03
    41   -1.724324202586e-03
    42    4.269783751597e-04
    43    2.552061256709e-02
    44    3.426852627006e-03
    45   -5.227044649962e-03
    46   -2.838674792572e-03
    47   -1.001753124109e-03
    48    2.878276740997e-02
Sym=X
Ene= 0.858231
Spin=Alpha
Occup=0
     1    3.140118007258e-03
     2   -1.014294900258e+00
     3    1.323840370522e-01
     4    6.243307583137e-02
     5    8.851130337310e-03
     6    2.458558743608e-03
     7   -3.210737962612e-02
     8    4.278420176899e-02
     9   -3.482748075937e-01
    10   -3.976686641910e-01
    11   -3.659650388565e-02
    12    8.221638101028e-01
    13    9.251975837035e-01
    14    8.607616699879e-02
    15   -5.010582366695e-03
    16    9.904618571459e-03
    17   -1.124161660172e-02
    18    2.169215331209e-01
    19    7.498085021402e-03
    20    1.429249662354e-02
    21    1.015677168277e+00
    22    5.506370895475e-02
    23    1.307379768124e-01
    24    9.817134161907e-03
    25   -4.818714926823e-03
    26   -1.872950069743e-02
    27   -6.527064960549e-03
    28   -4.361361077387e-01
    29   -5.017948939288e-01
    30   -4.629982963932e-02
    31    9.799090709236e-01
    32    1.098069935411e+00
    33    1.022073184555e-01
    34    1.744537150876e-02
    35   -1.224222969680e-02
    36    1.088958267882e-02
    37   -2.388321814312e-01
    38   -7.681895397325e-03
    39    1.629137395138e-02
    40   -1.125260917297e+00
    41    4.326696437473e-02
    42    1.587374258673e-01
    43    9.938314428128e-03
    44   -4.710932574868e-02
    45    1.119338925234e+00
    46    1.625741626319e-01
    47    4.752770492816e-02
    48    1.017094847759e-02
Sym=X
Ene= 0.928481
Spin=Alpha
Occup=0
     1   -1.317455748496e-01
     2    1.373937854178e+00
     3   -1.950050415050e-01
     4   -6.997824347851e-03
     5   -7.728636097924e-03
     6    4.027067742279e-03
     7   -2.649149252906e-02
     8    9.945192710501e-02
     9    5.271523102183e-01
    10    5.033247883291e-01
    11    5.003329821796e-02
    12   -1.553443389577e+00
    13   -1.491894910809e+00
    14   -1.477905072484e-01
    15   -1.142388985641e-02
    16   -5.423460115621e-03
    17    1.029113734719e-02
    18   -1.525610003241e-01
    19   -2.393665330915e-02
    20    1.514290795347e-01
    21   -1.322871233415e+00
    22    1.278961152662e-02
    23   -2.003573871787e-01
    24   -1.146087382196e-02
    25   -5.584498925353e-03
    26   -5.245382211768e-02
    27    9.064173168339e-03
    28   -3.902564478578e-01
    29   -5.083168514746e-01
    30   -4.445232810142e-02
    31    1.160775280851e+00
    32    1.451947364617e+00
    33    1.288031123366e-01
    34    1.444177031226e-02
    35   -5.059512409258e-03
    36    3.200713520992e-03
    37   -9.252790163003e-02
    38    2.242155178104e-02
    39    1.314327252367e-01
    40   -1.165250546162e+00
    41   -1.223167779818e-02
    42    1.691135677048e-01
    43    8.012467387635e-03
    44   -1.395821162670e-01
    45    1.038853360405e+00
    46    1.566987506906e-01
    47   -2.170892511383e-02
    48    5.993748481546e-03
Sym=X
Ene= 0.970358
Spin=Alpha
Occup=0
     1   -5.758094322432e-02
     2    7.740298359309e-01
     3   -6.920831373132e-02
     4   -9.594560955953e-02
     5   -7.657532243787e-03
     6    2.628222309960e-02
     7    2.133314454835e-01
     8    5.763371336556e-01
     9    4.440040258486e-01
    10   -4.732408813297e-01
    11   -1.143648106879e-02
    12   -1.325664695921e+00
    13    1.470770405694e+00
    14    3.679832188021e-02
    15   -5.714717670113e-02
    16   -1.147242760707e-02
    17   -8.575415595465e-03
    18    2.696655133947e-02
    19   -2.979000221309e-01
    20   -4.401603361447e-02
    21    9.540848069750e-01
    22    9.255626966089e-02
    23    9.740456697447e-02
    24    9.933626215895e-03
    25   -2.767470574783e-02
    26   -2.886920973571e-01
    27   -4.478727581443e-01
    28    5.378637528708e-01
    29   -4.220713403597e-01
    30    3.344943535562e-03
    31   -1.673152566609e+00
    32    1.256855922168e+00
    33   -1.182513965805e-02
    34    5.894590405221e-02
    35    1.265643163366e-02
    36    6.279765812752e-03
    37   -1.259696316025e-03
    38    2.920382220993e-01
    39    6.003078462357e-02
    40   -7.731315731768e-01
    41    9.195541864452e-02
    42    7.870459126839e-02
    43    7.247048927084e-03
    44    7.184878737429e-02
    45   -1.067805352949e+00
    46   -1.126506383465e-01
    47   -9.488358360455e-02
    48   -1.110679355769e-02
[5D]

======= END OF MOLDEN-FORMATTED INPUT FILE =======


        *************************************************************
        *                                                           *
        *  Thank you very much for using Q-Chem.  Have a nice day.  *
        *                                                           *
        *************************************************************


