                  Welcome to Q-Chem
     A Quantum Leap Into The Future Of Chemistry


 Q-Chem 5.4 (devel), Q-Chem, Inc., Pleasanton, CA (2021)

 E. Epifanovsky,  A. T. B. Gilbert,  Xintian Feng,  Joonho Lee,  Yuezhi Mao,  
 N. Mardirossian,  P. Pokhilko,  A. White,  M. Wormit,  M. P. Coons,  
 A. L. Dempwolff,  Zhengting Gan,  D. Hait,  P. R. Horn,  L. D. Jacobson,  
 I. Kaliman,  J. Kussmann,  A. W. Lange,  Ka Un Lao,  D. S. Levine,  Jie Liu,  
 S. C. McKenzie,  A. F. Morrison,  K. Nanda,  F. Plasser,  D. R. Rehn,  
 M. L. Vidal,  Zhi-Qiang You,  Ying Zhu,  B. Alam,  B. Albrecht,  
 A. Aldossary,  E. Alguire,  J. H. Andersen,  D. Barton,  K. Begam,  A. Behn,  
 Y. A. Bernard,  E. J. Berquist,  H. Burton,  A. Carreras,  K. Carter-Fenk,  
 R. Chakraborty,  A. D. Chien,  K. D. Closser,  V. Cofer-Shabica,  
 S. Dasgupta,  Jia Deng,  M. de Wergifosse,  M. Diedenhofen,  Hainam Do,  
 S. Ehlert,  Po-Tung Fang,  S. Fatehi,  Qingguo Feng,  T. Friedhoff,  
 J. Gayvert,  Qinghui Ge,  G. Gidofalvi,  M. Goldey,  J. Gomes,  
 C. Gonzalez-Espinoza,  S. Gulania,  A. Gunina,  M. W. D. Hanson-Heine,  
 P. H. P. Harbach,  A. W. Hauser,  M. F. Herbst,  M. Hernandez Vera,  
 M. Hodecker,  Z. C. Holden,  S. Houck,  Xunkun Huang,  Kerwin Hui,  
 B. C. Huynh,  M. Ivanov,  Hyunjun Ji,  Hanjie Jiang,  B. Kaduk,  S. Kaehler,  
 K. Khistyaev,  Jaehoon Kim,  P. Klunzinger,  Z. Koczor-Benda,  
 Joong Hoon Koh,  D. Kosenkov,  L. Koulias,  T. Kowalczyk,  C. M. Krauter,  
 K. Kue,  A. Kunitsa,  T. Kus,  A. Landau,  K. V. Lawler,  D. Lefrancois,  
 S. Lehtola,  Rain Li,  Yi-Pei Li,  Jiashu Liang,  M. Liebenthal,  
 Hung-Hsuan Lin,  You-Sheng Lin,  Fenglai Liu,  Kuan-Yu Liu,  
 M. Loipersberger,  A. Luenser,  A. Manjanath,  P. Manohar,  E. Mansoor,  
 S. F. Manzer,  Shan-Ping Mao,  A. V. Marenich,  T. Markovich,  S. Mason,  
 S. A. Maurer,  P. F. McLaughlin,  M. F. S. J. Menger,  J.-M. Mewes,  
 S. A. Mewes,  P. Morgante,  J. W. Mullinax,  K. J. Oosterbaan,  G. Paran,  
 Alexander C. Paul,  Suranjan K. Paul,  F. Pavosevic,  Zheng Pei,  S. Prager,  
 E. I. Proynov,  E. Ramos,  B. Rana,  A. E. Rask,  A. Rettig,  R. M. Richard,  
 F. Rob,  E. Rossomme,  T. Scheele,  M. Scheurer,  M. Schneider,  
 N. Sergueev,  S. M. Sharada,  W. Skomorowski,  D. W. Small,  C. J. Stein,  
 Yu-Chuan Su,  E. J. Sundstrom,  Zhen Tao,  J. Thirman,  T. Tsuchimochi,  
 N. M. Tubman,  S. P. Veccham,  O. Vydrov,  J. Wenzel,  J. Witte,  A. Yamada,  
 Kun Yao,  S. Yeganeh,  S. R. Yost,  A. Zech,  Igor Ying Zhang,  Xing Zhang,  
 Yu Zhang,  D. Zuev,  A. Aspuru-Guzik,  A. T. Bell,  N. A. Besley,  
 K. B. Bravaya,  B. R. Brooks,  D. Casanova,  Jeng-Da Chai,  S. Coriani,  
 C. J. Cramer,  A. E. DePrince, III,  R. A. DiStasio Jr.,  A. Dreuw,  
 B. D. Dunietz,  T. R. Furlani,  W. A. Goddard III,  S. Grimme,  
 S. Hammes-Schiffer,  T. Head-Gordon,  W. J. Hehre,  Chao-Ping Hsu,  
 T.-C. Jagau,  Yousung Jung,  A. Klamt,  Jing Kong,  D. S. Lambrecht,  
 WanZhen Liang,  N. J. Mayhall,  C. W. McCurdy,  J. B. Neaton,  
 C. Ochsenfeld,  J. A. Parkhill,  R. Peverati,  V. A. Rassolov,  Yihan Shao,  
 L. V. Slipchenko,  T. Stauch,  R. P. Steele,  J. E. Subotnik,  
 A. J. W. Thom,  A. Tkatchenko,  D. G. Truhlar,  T. Van Voorhis,  
 T. A. Wesolowski,  K. B. Whaley,  H. L. Woodcock III,  P. M. Zimmerman,  
 S. Faraji,  P. M. W. Gill,  M. Head-Gordon,  J. M. Herbert,  A. I. Krylov

 Additional authors for Version 5.4.1: 
 S. Kotaru,  Shaozhi Li,  Xiangyuan Li,  F. Matz,  A. Molle,  Haisheng Ren,  
 Yingli Su,  Hung-Yi Tsai,  C. Utku,  Fang Wang

 Contributors to earlier versions of Q-Chem not listed above: 
 R. D. Adamson,  B. Austin,  R. Baer,  J. Baker,  G. J. O. Beran,  
 K. Brandhorst,  S. T. Brown,  E. F. C. Byrd,  A. K. Chakraborty,  
 G. K. L. Chan,  Chun-Min Chang,  Yunqing Chen,  C.-L. Cheng,  
 Siu Hung Chien,  D. M. Chipman,  D. L. Crittenden,  H. Dachsel,  
 R. J. Doerksen,  A. D. Dutoi,  R. G. Edgar,  J. Fosso-Tande,  
 L. Fusti-Molnar,  D. Ghosh,  A. Ghysels,  A. Golubeva-Zadorozhnaya,  
 J. Gonthier,  M. S. Gordon,  S. R. Gwaltney,  G. Hawkins,  J. E. Herr,  
 A. Heyden,  S. Hirata,  E. G. Hohenstein,  G. Kedziora,  F. J. Keil,  
 C. Kelley,  Jihan Kim,  R. A. King,  R. Z. Khaliullin,  P. P. Korambath,  
 W. Kurlancheek,  A. Laurent,  A. M. Lee,  M. S. Lee,  S. V. Levchenko,  
 Ching Yeh Lin,  D. Liotard,  E. Livshits,  R. C. Lochan,  I. Lotan,  
 L. A. Martinez-Martinez,  P. E. Maslen,  N. Nair,  D. P. O'Neill,  
 D. Neuhauser,  E. Neuscamman,  C. M. Oana,  R. Olivares-Amaya,  R. Olson,  
 T. M. Perrine,  B. Peters,  P. A. Pieniazek,  A. Prociuk,  Y. M. Rhee,  
 J. Ritchie,  M. A. Rohrdanz,  E. Rosta,  N. J. Russ,  H. F. Schaefer III,  
 M. W. Schmidt,  N. E. Schultz,  S. Sharma,  N. Shenvi,  C. D. Sherrill,  
 A. C. Simmonett,  A. Sodt,  T. Stein,  D. Stuck,  K. S. Thanthiriwatte,  
 V. Vanovschi,  L. Vogt,  Tao Wang,  A. Warshel,  M. A. Watson,  
 C. F. Williams,  Q. Wu,  X. Xu,  Jun Yang,  W. Zhang,  Yan Zhao

 Please cite Q-Chem as follows:
 Y. Shao et al., Mol. Phys. 113, 184-215 (2015)
 DOI: 10.1080/00268976.2014.952696

 Q-Chem 5.4.1 for Intel X86 EM64T Linux

 Parts of Q-Chem use Armadillo 9.800.1 (Horizon Scraper).
 http://arma.sourceforge.net/

 Q-Chem begins on Wed Mar 15 17:57:17 2023  

 Host: cpu121.yggdrasil
0

     Scratch files written to /srv/beegfs/scratch/users/f/fum/qchem94848//
 Processing $rem in /home/share/wesolowski/qc5.aug2021.FDE/config/preferences:
 Processing $rem in /home/fum/.qchemrc:

 Checking the input file for inconsistencies... 	...done.

--------------------------------------------------------------
User input:
--------------------------------------------------------------
$comment
generated from CCJob.Templates
$end

$rem
sym_ignore = true
method = adc(2)
ee_states = 10
basis = cc-pVDZ
mem_static = 1024
mem_total = 40000
adc_davidson_maxiter = 900
adc_davidson_conv = 6
adc_print = 3
adc_prop_es = true
adc_prop_es2es = true
adc_prop_tpa = true
molden_format = True
state_analysis = true
print_orbitals = 15
gen_scfman = false
fde_export_density = true
fde_details = 3
$end

$molecule
0 1
H -0.0348278765 -0.2442097827 0.0636489606
C -1.0765972949 -0.5242748755 -0.0023551776
H -1.313264467 -1.5767591607 -0.0757276926
C -2.043634118 0.3926884087 0.0461254933
H -1.8137616575 1.4459188338 0.0804456828
H -3.085977293 0.114931858 -0.0593381042                     
$end
--------------------------------------------------------------
 ----------------------------------------------------------------
             Standard Nuclear Orientation (Angstroms)
    I     Atom           X                Y                Z
 ----------------------------------------------------------------
    1      H      -0.0348278765    -0.2442097827     0.0636489606
    2      C      -1.0765972949    -0.5242748755    -0.0023551776
    3      H      -1.3132644670    -1.5767591607    -0.0757276926
    4      C      -2.0436341180     0.3926884087     0.0461254933
    5      H      -1.8137616575     1.4459188338     0.0804456828
    6      H      -3.0859772930     0.1149318580    -0.0593381042
 ----------------------------------------------------------------
 Nuclear Repulsion Energy =          33.41052995 hartrees
 There are        8 alpha and        8 beta electrons
 Requested basis set is cc-pVDZ
 There are 24 shells and 48 basis functions
 Total memory of 40000 MB is distributed as follows: 
   MEM_STATIC is set to 1024 MB
   QALLOC/CCMAN JOB total memory use is  38976 MB
 Warning: actual memory use might exceed 40000 MB

 Total QAlloc Memory Limit  40000 MB
 Mega-Array Size      1001 MB
 MEM_STATIC part      1024 MB

                       Distance Matrix (Angstroms)
             H (  1)   C (  2)   H (  3)   C (  4)   H (  5)
   C (  2)  1.080776
   H (  3)  1.851895  1.081258
   C (  4)  2.107427  1.333541  2.104047
   H (  5)  2.453859  2.105215  3.067812  1.078570
   H (  6)  3.074674  2.109370  2.450428  1.083859  1.846510

 A cutoff of  1.0D-11 yielded    300 shell pairs
 There are      1220 function pairs (      1329 Cartesian)
 Smallest overlap matrix eigenvalue = 4.82E-03

 Scale SEOQF with 1.000000e-01/1.000000e-01/1.000000e+00

 Standard Electronic Orientation quadrupole field applied
 Nucleus-field energy     =     0.0000000021 hartrees
 Guess from superposition of atomic densities
 Warning:  Energy on first SCF cycle will be non-variational
 SAD guess density has 16.000000 electrons
 A restricted Hartree-Fock SCF calculation will be
 performed using Pulay DIIS extrapolation
 SCF converges when DIIS error is below 1.0E-08
 using 10 threads for integral computing
 -------------------------------------------------------
 OpenMP Integral computing Module                
 Release: version 1.0, May 2013, Q-Chem Inc. Pittsburgh 
 -------------------------------------------------------
 ---------------------------------------
  Cycle       Energy         DIIS Error
 ---------------------------------------
    1     -78.4365770972      1.01E-01
    2     -78.0173260715      7.20E-03
    3     -78.0379292019      1.84E-03
    4     -78.0394100259      5.71E-04
    5     -78.0395309100      5.81E-05
    6     -78.0395327952      9.51E-06
    7     -78.0395328570      2.50E-06
    8     -78.0395328602      1.09E-06
    9     -78.0395328606      1.14E-07
   10     -78.0395328606      3.24E-08
   11     -78.0395328606      6.82E-09 Convergence criterion met
 ---------------------------------------
 SCF time:  CPU 1.97 s  wall 3.28 s
 SCF   energy in the final basis set = -78.03953286
 Total energy in the final basis set = -78.03953286
Exporting Density Matrix to file 'Densmat_SCF.txt'.
Export successful
================================================================================
|                                                                              |
|                                 A D C  M A N                                 |
|                                                                              |
 ------------------------------------------------------------------------------ 
|                                                                              |
| Components:                                                                  |
|                                                                              |
| - libvmm - 1.3-trunk                                                         |
|   Authors:                                                                   |
|   Evgeny Epifanovsky, Ilya Kaliman                                           |
|                                                                              |
| - libtensor - 2.5-trunk                                                      |
|   Authors:                                                                   |
|   Evgeny Epifanovsky, Michael Wormit, Dmitry Zuev, Sam Manzer,               |
|   Ilya Kaliman                                                               |
|                                                                              |
| - libwfa - 1.1-trunk                                                         |
|   Authors:                                                                   |
|   Felix Plasser, Stefanie Mewes (Baeppler), Benjamin Thomitzni,              |
|   Michael Wormit, Feng Chen, Anna I. Krylov, Pavel Pokhilko                  |
|                                                                              |
| - libadc - 1.1-trunk                                                         |
|   Authors:                                                                   |
|   Michael Wormit, Adrian L. Dempwolff, Philipp H. P. Harbach,                |
|   Caroline Krauter, Dirk Rehn, Matthias Schneider, Jan Wenzel                |
|                                                                              |
| - adcman - 2.6-trunk                                                         |
|   Authors:                                                                   |
|   Michael Wormit, Adrian L. Dempwolff, Philipp H. P. Harbach,                |
|   Caroline Krauter, Daniel Lefrancois, Jan-Michael Mewes, Dirk Rehn,         |
|   Matthias Schneider, Jan Wenzel, Andreas Dreuw                              |
|                                                                              |
| Authors of earlier versions of ADCMAN:                                       |
| Andreas Dreuw, Jan Hendrik Starcke, Dirk Rehn, Michael Wormit                |
|                                                                              |
================================================================================

 Created directory /srv/beegfs/scratch/users/f/fum/qchem94848/plots
  Import QC data ...  CPU 0.00 s  wall 0.09 s

 Alpha MOs, Restricted
 -- Occupied --                  
-11.235 -11.234  -1.032  -0.790  -0.641  -0.582  -0.505  -0.374
  1 A     2 A     3 A     4 A     5 A     6 A     7 A     8 A                  
 -- Virtual --                   
  0.168   0.204   0.233   0.239   0.303   0.462   0.578   0.615
  9 A    10 A    11 A    12 A    13 A    14 A    15 A    16 A                  
  0.689   0.710   0.785   0.808   0.862   0.935   0.972   1.010
 17 A    18 A    19 A    20 A    21 A    22 A    23 A    24 A                  
  1.119   1.235   1.255   1.265   1.300   1.600   1.726   1.750
 25 A    26 A    27 A    28 A    29 A    30 A    31 A    32 A                  
  1.819   1.859   1.868   1.920   1.976   1.978   2.218   2.259
 33 A    34 A    35 A    36 A    37 A    38 A    39 A    40 A                  
  2.373   2.454   2.507   2.631   2.720   2.823   3.135   3.392
 41 A    42 A    43 A    44 A    45 A    46 A    47 A    48 A                  

 Beta MOs, Restricted
 -- Occupied --                  
-11.235 -11.234  -1.032  -0.790  -0.641  -0.582  -0.505  -0.374
  1 A     2 A     3 A     4 A     5 A     6 A     7 A     8 A                  
 -- Virtual --                   
  0.168   0.204   0.233   0.239   0.303   0.462   0.578   0.615
  9 A    10 A    11 A    12 A    13 A    14 A    15 A    16 A                  
  0.689   0.710   0.785   0.808   0.862   0.935   0.972   1.010
 17 A    18 A    19 A    20 A    21 A    22 A    23 A    24 A                  
  1.119   1.235   1.255   1.265   1.300   1.600   1.726   1.750
 25 A    26 A    27 A    28 A    29 A    30 A    31 A    32 A                  
  1.819   1.859   1.868   1.920   1.976   1.978   2.218   2.259
 33 A    34 A    35 A    36 A    37 A    38 A    39 A    40 A                  
  2.373   2.454   2.507   2.631   2.720   2.823   3.135   3.392
 41 A    42 A    43 A    44 A    45 A    46 A    47 A    48 A                  
  Import AO data ...  CPU 0.00 s  wall 0.06 s
  Using point group: C1
  Irreducible representations in point group: A
  Molecular orbitals: 
  Occupied MOs:
  Block   0:   1 (  A) A   2 (  A) A   3 (  A) A   4 (  A) A   5 (  A) A
                  -11.24      -11.23      -1.032     -0.7898      -0.641
               6 (  A) A   7 (  A) A   8 (  A) A
                 -0.5816     -0.5045     -0.3739
  Block   1:   1 (  A) B   2 (  A) B   3 (  A) B   4 (  A) B   5 (  A) B
                  -11.24      -11.23      -1.032     -0.7898      -0.641
               6 (  A) B   7 (  A) B   8 (  A) B
                 -0.5816     -0.5045     -0.3739
  Virtual MOs:
  Block   0:   9 (  A) A  10 (  A) A  11 (  A) A  12 (  A) A  13 (  A) A
                  0.1677      0.2036       0.233      0.2394      0.3032
              14 (  A) A  15 (  A) A  16 (  A) A  17 (  A) A  18 (  A) A
                  0.4617      0.5776      0.6151      0.6895      0.7097
              19 (  A) A  20 (  A) A  21 (  A) A  22 (  A) A
                  0.7847      0.8078      0.8622       0.935
  Block   1:  23 (  A) A  24 (  A) A  25 (  A) A  26 (  A) A  27 (  A) A
                  0.9718        1.01       1.119       1.235       1.255
              28 (  A) A  29 (  A) A  30 (  A) A  31 (  A) A  32 (  A) A
                   1.265         1.3         1.6       1.726        1.75
              33 (  A) A  34 (  A) A  35 (  A) A  36 (  A) A
                   1.819       1.859       1.868        1.92
  Block   2:  37 (  A) A  38 (  A) A  39 (  A) A  40 (  A) A  41 (  A) A
                   1.976       1.978       2.218       2.259       2.373
              42 (  A) A  43 (  A) A  44 (  A) A  45 (  A) A  46 (  A) A
                   2.454       2.507       2.631        2.72       2.823
              47 (  A) A  48 (  A) A
                   3.135       3.392
  Block   3:   9 (  A) B  10 (  A) B  11 (  A) B  12 (  A) B  13 (  A) B
                  0.1677      0.2036       0.233      0.2394      0.3032
              14 (  A) B  15 (  A) B  16 (  A) B  17 (  A) B  18 (  A) B
                  0.4617      0.5776      0.6151      0.6895      0.7097
              19 (  A) B  20 (  A) B  21 (  A) B  22 (  A) B
                  0.7847      0.8078      0.8622       0.935
  Block   4:  23 (  A) B  24 (  A) B  25 (  A) B  26 (  A) B  27 (  A) B
                  0.9718        1.01       1.119       1.235       1.255
              28 (  A) B  29 (  A) B  30 (  A) B  31 (  A) B  32 (  A) B
                   1.265         1.3         1.6       1.726        1.75
              33 (  A) B  34 (  A) B  35 (  A) B  36 (  A) B
                   1.819       1.859       1.868        1.92
  Block   5:  37 (  A) B  38 (  A) B  39 (  A) B  40 (  A) B  41 (  A) B
                   1.976       1.978       2.218       2.259       2.373
              42 (  A) B  43 (  A) B  44 (  A) B  45 (  A) B  46 (  A) B
                   2.454       2.507       2.631        2.72       2.823
              47 (  A) B  48 (  A) B
                   3.135       3.392
  Import MO data ...  CPU 0.01 s  wall 0.01 s
  Import HF data ...  CPU 0.10 s  wall 0.04 s
  Import 2e integrals ...  CPU 0.89 s  wall 0.14 s

--------------------------------------------------------------------------------
                                   HF Summary                                   
--------------------------------------------------------------------------------
  Energy:                                                  -78.0395328606 a.u.
  Dip. moment [a.u.]:                  [   0.002496,    0.000896,   -0.021467]
  Total dipole [Debye]:                                               0.054977
  <r^2> [a.u.]:                        [ 175.354302,   34.910320,   11.673762]
  Total <r^2> [a.u.]:                                               221.938384
--------------------------------------------------------------------------------
  HF properties ...  CPU 0.01 s  wall 0.01 s
  MP(1) calculation ...  CPU 0.01 s  wall 0.00 s
  N^6 prerequesite intermediates ...  CPU 0.46 s  wall 0.07 s
  Difference density matrix of state mp2_gs printed to ASCII file 'State_mp2_gs_Difference.txt'
Exporting MP density matrix to file 'Densmat_MP.txt'.
Export successful
  Total density matrix of state mp2_gs printed to ASCII file 'State_mp2_gs_Total.txt'
Exporting MP density matrix to file 'Densmat_MP.txt'.
Export successful

--------------------------------------------------------------------------------
                                 MP(2) Summary                                  
--------------------------------------------------------------------------------
  MP energy contribution:                                   -0.2798326691 a.u.
  Total energy:                                            -78.3193655297 a.u.
  Dip. moment [a.u.]:                  [   0.002057,    0.000969,   -0.021175]
  Total dipole [Debye]:                                               0.054132
  <r^2> [a.u.]:                        [ 175.397450,   34.951264,   11.505304]
  Total <r^2> [a.u.]:                                               221.854019

  Density matrix analysis:
  ------------------------
  NOs
    Occupation of frontier NOs:
       0.0455   1.9381
    Number of electrons: 16.000000
    Number of unpaired electrons: n_u =  0.40397, n_u,nl =  0.04525
    NO participation ratio (PR_NO): 13.841546
  
  
  Mulliken Population Analysis
  Atom      Charge (e)              h+              e-           Del q
  --------------------------------------------------------------------
   1 H        0.051008        0.014061       -0.011204        0.002857
   2 C       -0.100621        0.093148       -0.099048       -0.005900
   3 H        0.050855        0.014078       -0.011199        0.002879
   4 C       -0.102523        0.093378       -0.098997       -0.005618
   5 H        0.050021        0.014140       -0.011211        0.002929
   6 H        0.051261        0.014071       -0.011219        0.002853
  --------------------------------------------------------------------
  Sum:        0.000000        0.242877       -0.242877        0.000000
  
  Multipole moment analysis of the density matrix
    Molecular charge:                      0.000000
    Number of electrons:                   16.000000
      Center of electronic charge [Ang]: [ -1.560644,  -0.065634,   0.017679]
    Total nuclear charge:                  16.000000
      Center of nuclear charge [Ang]:    [ -1.560576,  -0.065602,   0.016978]
    Dipole moment [D]:                     0.054132
      Cartesian components [D]:          [  0.005228,   0.002464,  -0.053822]
    RMS size of the density [Ang]:         1.201087
      Cartesian components [Ang]:        [  0.796340,   0.779360,   0.448387]
  
  Exciton analysis of the difference density matrix
    <r_h> [Ang]:                  [ -1.561648,  -0.065776,   0.021132]
    <r_e> [Ang]:                  [ -1.560690,  -0.065934,   0.020498]
    |<r_e - r_h>| [Ang]:            0.001160
    Hole size [Ang]:                1.394034
      Cartesian components [Ang]: [  0.847189,   0.833641,   0.728454]
    Electron size [Ang]:            1.359800
      Cartesian components [Ang]: [  0.877762,   0.861477,   0.580040]
--------------------------------------------------------------------------------
  MP(2) calculation ...  CPU 0.14 s  wall 0.32 s
  Start ADC(2)-s ...  CPU 0.01 s  wall 0.00 s
  ADC(2) intermediates ...  CPU 0.02 s  wall 0.01 s
  Starting Davidson for singlet states of irrep A ... 
--------------------------------------------------------------------------------
   It NVec Conv  Avg. Norm  Max. Norm  Conv. states           Remark
--------------------------------------------------------------------------------
        10    0  1.330e-01  4.685e-01  0.4117 n n n n n n n n Guess.
    1   20    0  2.514e-02  1.109e-01  0.3257 n n n n n n n n 
    2   30    0  6.398e-03  2.659e-02  0.3209 n n n n n n n n 
    3   40    0  2.343e-03  1.164e-02  0.3206 n n n n n n n n 
    4   50    0  7.202e-04  4.105e-03  0.3205 n n n n n n n n 
    5   20    0  6.166e-04  4.519e-03  0.3205 n n n n n n n n Subspace collapsed.
    6   30    0  6.420e-04  4.514e-03  0.3205 n n n n n n n n 
    7   40    0  3.508e-04  2.585e-03  0.3205 n n n n n n n n 
    8   50    0  2.505e-04  1.914e-03  0.3205 n n n n n n n n 
    9   20    0  1.772e-04  1.371e-03  0.3205 n n n n n n n n Subspace collapsed.
   10   30    0  7.378e-05  5.535e-04  0.3205 n n n n n n n n 
   11   40    1  3.797e-05  2.778e-04  0.3205 n n n y n n n n 
   12   50    4  2.010e-05  1.581e-04  0.3205 y y y y n n n n 
   13   20    5  1.409e-05  1.172e-04  0.3205 y y y y y n n n Subspace collapsed.
   14   30    6  1.612e-05  1.412e-04  0.3205 y y y y y y n n 
   15   40    6  1.355e-05  1.224e-04  0.3205 y y y y y y n n 
   16   50    6  4.861e-06  4.345e-05  0.3205 y y y y y y n n 
   17   20    7  2.260e-06  1.985e-05  0.3205 y y y y y y y n Subspace collapsed.
   18   30    7  1.761e-06  1.482e-05  0.3205 y y y y y y y n 
   19   40    7  7.065e-07  6.005e-06  0.3205 y y y y y y y n 
   20   50    7  3.654e-07  3.067e-06  0.3205 y y y y y y y n 
   21   20    9  2.355e-07  2.023e-06  0.3205 y y y y y y y y Subspace collapsed.
   22   30    8  3.243e-07  2.926e-06  0.3205 y y y y y y y y 
   23   40    8  2.649e-07  2.328e-06  0.3205 y y y y y y y y 
   24   50    9  1.623e-07  1.337e-06  0.3205 y y y y y y y y 
   25   19   10  7.334e-08  5.965e-07  0.3205 y y y y y y y y Converged.
--------------------------------------------------------------------------------
  Davidson Summary: 
 ------------------------------------------------------------
  State  0: excitation energy =   0.3205 a.u.   (converged)
  State  1: excitation energy =   0.3322 a.u.   (converged)
  State  2: excitation energy =   0.3370 a.u.   (converged)
  State  3: excitation energy =   0.3613 a.u.   (converged)
  State  4: excitation energy =   0.3749 a.u.   (converged)
  State  5: excitation energy =   0.3867 a.u.   (converged)
  State  6: excitation energy =   0.4246 a.u.   (converged)
  State  7: excitation energy =   0.4466 a.u.   (converged)
  State  8: excitation energy =   0.4559 a.u.   (converged)
  State  9: excitation energy =   0.4646 a.u.   (converged)
 ------------------------------------------------------------

  Singlet states of irrep A ...  CPU 109.21 s  wall 28.76 s
  TDMs ...  CPU 1.05 s  wall 0.37 s
  SDMs ...  CPU 3.15 s  wall 0.79 s
  Starting TPA DIIS iterations ... 
------------------------------------ 
   It     Res. Norm  Remark
------------------------------------
                       Guess.
    1     4.418e+00  
    2     5.865e+00  
    3     1.082e+00  
    4     2.592e-01  
    5     6.623e-02  
    6     2.704e-02  
    7     8.269e-03  
    8     1.492e-03  
    9     5.557e-04  
   10     9.451e-05  
   11     3.348e-05  
   12     5.916e-06  
   13     2.652e-06  
   14     8.401e-07  Converged.
   ... Converged in 14 steps (norm: 8.40102e-07)
------------------------------------
  Starting TPA DIIS iterations ... 
------------------------------------ 
   It     Res. Norm  Remark
------------------------------------
                       Guess.
    1     4.181e+00  
    2     5.543e+00  
    3     1.028e+00  
    4     2.568e-01  
    5     6.582e-02  
    6     2.684e-02  
    7     8.130e-03  
    8     1.490e-03  
    9     5.545e-04  
   10     9.258e-05  
   11     3.303e-05  
   12     5.646e-06  
   13     2.701e-06  
   14     8.431e-07  Converged.
   ... Converged in 14 steps (norm: 8.4307e-07)
------------------------------------
  Starting TPA DIIS iterations ... 
------------------------------------ 
   It     Res. Norm  Remark
------------------------------------
                       Guess.
    1     8.007e-01  
    2     7.097e-01  
    3     2.109e-01  
    4     1.352e-01  
    5     1.687e-02  
    6     6.213e-03  
    7     1.049e-03  
    8     4.518e-04  
    9     1.289e-04  
   10     2.528e-05  
   11     7.411e-06  
   12     1.991e-06  
   13     1.534e-06  
   14     6.615e-07  Converged.
   ... Converged in 14 steps (norm: 6.61478e-07)
------------------------------------
  Starting TPA DIIS iterations ... 
------------------------------------ 
   It     Res. Norm  Remark
------------------------------------
                       Guess.
    1     4.706e+00  
    2     6.382e+00  
    3     1.163e+00  
    4     2.881e-01  
    5     7.460e-02  
    6     3.073e-02  
    7     9.376e-03  
    8     1.695e-03  
    9     6.368e-04  
   10     1.084e-04  
   11     3.932e-05  
   12     7.022e-06  
   13     3.251e-06  
   14     1.038e-06  
   15     4.706e-07  Converged.
   ... Converged in 15 steps (norm: 4.70599e-07)
------------------------------------
  Starting TPA DIIS iterations ... 
------------------------------------ 
   It     Res. Norm  Remark
------------------------------------
                       Guess.
    1     4.453e+00  
    2     6.031e+00  
    3     1.105e+00  
    4     2.852e-01  
    5     7.415e-02  
    6     3.052e-02  
    7     9.219e-03  
    8     1.693e-03  
    9     6.351e-04  
   10     1.062e-04  
   11     3.876e-05  
   12     6.701e-06  
   13     3.317e-06  
   14     1.050e-06  
   15     4.885e-07  Converged.
   ... Converged in 15 steps (norm: 4.88516e-07)
------------------------------------
  Starting TPA DIIS iterations ... 
------------------------------------ 
   It     Res. Norm  Remark
------------------------------------
                       Guess.
    1     8.249e-01  
    2     7.550e-01  
    3     2.241e-01  
    4     1.441e-01  
    5     1.834e-02  
    6     6.878e-03  
    7     1.185e-03  
    8     5.309e-04  
    9     1.543e-04  
   10     2.796e-05  
   11     8.626e-06  
   12     2.348e-06  
   13     1.812e-06  
   14     8.059e-07  Converged.
   ... Converged in 14 steps (norm: 8.05851e-07)
------------------------------------
  Starting TPA DIIS iterations ... 
------------------------------------ 
   It     Res. Norm  Remark
------------------------------------
                       Guess.
    1     4.835e+00  
    2     6.617e+00  
    3     1.199e+00  
    4     3.014e-01  
    5     7.846e-02  
    6     3.244e-02  
    7     9.887e-03  
    8     1.789e-03  
    9     6.747e-04  
   10     1.149e-04  
   11     4.209e-05  
   12     7.549e-06  
   13     3.544e-06  
   14     1.136e-06  
   15     5.173e-07  Converged.
   ... Converged in 15 steps (norm: 5.17333e-07)
------------------------------------
  Starting TPA DIIS iterations ... 
------------------------------------ 
   It     Res. Norm  Remark
------------------------------------
                       Guess.
    1     4.574e+00  
    2     6.253e+00  
    3     1.140e+00  
    4     2.982e-01  
    5     7.800e-02  
    6     3.222e-02  
    7     9.723e-03  
    8     1.787e-03  
    9     6.727e-04  
   10     1.125e-04  
   11     4.149e-05  
   12     7.203e-06  
   13     3.618e-06  
   14     1.153e-06  
   15     5.372e-07  Converged.
   ... Converged in 15 steps (norm: 5.37182e-07)
------------------------------------
  Starting TPA DIIS iterations ... 
------------------------------------ 
   It     Res. Norm  Remark
------------------------------------
                       Guess.
    1     8.355e-01  
    2     7.754e-01  
    3     2.300e-01  
    4     1.480e-01  
    5     1.901e-02  
    6     7.184e-03  
    7     1.249e-03  
    8     5.684e-04  
    9     1.663e-04  
   10     2.893e-05  
   11     9.207e-06  
   12     2.521e-06  
   13     1.948e-06  
   14     8.744e-07  Converged.
   ... Converged in 14 steps (norm: 8.74382e-07)
------------------------------------
  Starting TPA DIIS iterations ... 
------------------------------------ 
   It     Res. Norm  Remark
------------------------------------
                       Guess.
    1     5.582e+00  
    2     8.013e+00  
    3     1.409e+00  
    4     3.832e-01  
    5     1.022e-01  
    6     4.304e-02  
    7     1.303e-02  
    8     2.371e-03  
    9     9.127e-04  
   10     1.550e-04  
   11     6.005e-05  
   12     1.096e-05  
   13     5.542e-06  
   14     1.834e-06  
   15     8.425e-07  Converged.
   ... Converged in 15 steps (norm: 8.4249e-07)
------------------------------------
  Starting TPA DIIS iterations ... 
------------------------------------ 
   It     Res. Norm  Remark
------------------------------------
                       Guess.
    1     5.279e+00  
    2     7.572e+00  
    3     1.338e+00  
    4     3.783e-01  
    5     1.016e-01  
    6     4.281e-02  
    7     1.282e-02  
    8     2.369e-03  
    9     9.080e-04  
   10     1.516e-04  
   11     5.911e-05  
   12     1.047e-05  
   13     5.677e-06  
   14     1.893e-06  
   15     8.757e-07  Converged.
   ... Converged in 15 steps (norm: 8.75657e-07)
------------------------------------
  Starting TPA DIIS iterations ... 
------------------------------------ 
   It     Res. Norm  Remark
------------------------------------
                       Guess.
    1     8.961e-01  
    2     8.962e-01  
    3     2.628e-01  
    4     1.700e-01  
    5     2.296e-02  
    6     9.062e-03  
    7     1.658e-03  
    8     8.010e-04  
    9     2.402e-04  
   10     3.251e-05  
   11     1.304e-05  
   12     3.695e-06  
   13     2.876e-06  
   14     1.305e-06  
   15     7.063e-07  Converged.
   ... Converged in 15 steps (norm: 7.06311e-07)
------------------------------------
  Starting TPA DIIS iterations ... 
------------------------------------ 
   It     Res. Norm  Remark
------------------------------------
                       Guess.
    1     6.083e+00  
    2     8.981e+00  
    3     1.548e+00  
    4     4.421e-01  
    5     1.192e-01  
    6     5.077e-02  
    7     1.529e-02  
    8     2.795e-03  
    9     1.089e-03  
   10     1.841e-04  
   11     7.381e-05  
   12     1.357e-05  
   13     7.178e-06  
   14     2.436e-06  
   15     1.114e-06  
   16     4.148e-07  Converged.
   ... Converged in 16 steps (norm: 4.14826e-07)
------------------------------------
  Starting TPA DIIS iterations ... 
------------------------------------ 
   It     Res. Norm  Remark
------------------------------------
                       Guess.
    1     5.751e+00  
    2     8.486e+00  
    3     1.470e+00  
    4     4.358e-01  
    5     1.186e-01  
    6     5.052e-02  
    7     1.504e-02  
    8     2.793e-03  
    9     1.082e-03  
   10     1.801e-04  
   11     7.260e-05  
   12     1.297e-05  
   13     7.363e-06  
   14     2.532e-06  
   15     1.158e-06  
   16     4.269e-07  Converged.
   ... Converged in 16 steps (norm: 4.26946e-07)
------------------------------------
  Starting TPA DIIS iterations ... 
------------------------------------ 
   It     Res. Norm  Remark
------------------------------------
                       Guess.
    1     9.358e-01  
    2     9.792e-01  
    3     2.838e-01  
    4     1.843e-01  
    5     2.569e-02  
    6     1.041e-02  
    7     1.969e-03  
    8     9.607e-04  
    9     2.910e-04  
   10     3.441e-05  
   11     1.610e-05  
   12     4.658e-06  
   13     3.652e-06  
   14     1.629e-06  
   15     8.663e-07  Converged.
   ... Converged in 15 steps (norm: 8.66279e-07)
------------------------------------
  Starting TPA DIIS iterations ... 
------------------------------------ 
   It     Res. Norm  Remark
------------------------------------
                       Guess.
    1     6.585e+00  
    2     9.977e+00  
    3     1.687e+00  
    4     5.041e-01  
    5     1.371e-01  
    6     5.900e-02  
    7     1.768e-02  
    8     3.247e-03  
    9     1.279e-03  
   10     2.149e-04  
   11     8.889e-05  
   12     1.643e-05  
   13     9.059e-06  
   14     3.157e-06  
   15     1.432e-06  
   16     5.427e-07  Converged.
   ... Converged in 16 steps (norm: 5.42749e-07)
------------------------------------
  Starting TPA DIIS iterations ... 
------------------------------------ 
   It     Res. Norm  Remark
------------------------------------
                       Guess.
    1     6.225e+00  
    2     9.426e+00  
    3     1.602e+00  
    4     4.963e-01  
    5     1.365e-01  
    6     5.874e-02  
    7     1.739e-02  
    8     3.244e-03  
    9     1.269e-03  
   10     2.102e-04  
   11     8.739e-05  
   12     1.572e-05  
   13     9.303e-06  
   14     3.299e-06  
   15     1.489e-06  
   16     5.573e-07  Converged.
   ... Converged in 16 steps (norm: 5.57285e-07)
------------------------------------
  Starting TPA DIIS iterations ... 
------------------------------------ 
   It     Res. Norm  Remark
------------------------------------
                       Guess.
    1     9.751e-01  
    2     1.064e+00  
    3     3.042e-01  
    4     1.983e-01  
    5     2.848e-02  
    6     1.183e-02  
    7     2.308e-03  
    8     1.114e-03  
    9     3.413e-04  
   10     3.722e-05  
   11     1.958e-05  
   12     5.783e-06  
   13     4.558e-06  
   14     2.005e-06  
   15     9.301e-07  Converged.
   ... Converged in 15 steps (norm: 9.3008e-07)
------------------------------------
  Starting TPA DIIS iterations ... 
------------------------------------ 
   It     Res. Norm  Remark
------------------------------------
                       Guess.
    1     8.727e+00  
    2     1.447e+01  
    3     2.270e+00  
    4     7.973e-01  
    5     2.221e-01  
    6     9.875e-02  
    7     2.897e-02  
    8     5.459e-03  
    9     2.230e-03  
   10     3.617e-04  
   11     1.652e-04  
   12     3.107e-05  
   13     1.968e-05  
   14     7.647e-06  
   15     3.367e-06  
   16     1.299e-06  
   17     5.979e-07  Converged.
   ... Converged in 17 steps (norm: 5.97917e-07)
------------------------------------
  Starting TPA DIIS iterations ... 
------------------------------------ 
   It     Res. Norm  Remark
------------------------------------
                       Guess.
    1     8.247e+00  
    2     1.367e+01  
    3     2.154e+00  
    4     7.808e-01  
    5     2.212e-01  
    6     9.846e-02  
    7     2.850e-02  
    8     5.446e-03  
    9     2.196e-03  
   10     3.531e-04  
   11     1.622e-04  
   12     3.007e-05  
   13     2.024e-05  
   14     8.060e-06  
   15     3.506e-06  
   16     1.327e-06  
   17     6.046e-07  Converged.
   ... Converged in 17 steps (norm: 6.04637e-07)
------------------------------------
  Starting TPA DIIS iterations ... 
------------------------------------ 
   It     Res. Norm  Remark
------------------------------------
                       Guess.
    1     1.141e+00  
    2     1.446e+00  
    3     3.844e-01  
    4     2.559e-01  
    5     4.095e-02  
    6     1.842e-02  
    7     4.018e-03  
    8     1.594e-03  
    9     5.414e-04  
   10     6.384e-05  
   11     3.904e-05  
   12     1.260e-05  
   13     9.690e-06  
   14     4.491e-06  
   15     2.511e-06  
   16     1.039e-06  
   17     5.739e-07  Converged.
   ... Converged in 17 steps (norm: 5.73857e-07)
------------------------------------
  Starting TPA DIIS iterations ... 
------------------------------------ 
   It     Res. Norm  Remark
------------------------------------
                       Guess.
    1     1.054e+01  
    2     1.856e+01  
    3     2.751e+00  
    4     1.074e+00  
    5     3.029e-01  
    6     1.376e-01  
    7     3.974e-02  
    8     7.682e-03  
    9     3.198e-03  
   10     5.014e-04  
   11     2.412e-04  
   12     4.673e-05  
   13     3.160e-05  
   14     1.329e-05  
   15     5.974e-06  
   16     2.268e-06  
   17     1.234e-06  
   18     3.062e-07  Converged.
   ... Converged in 18 steps (norm: 3.06217e-07)
------------------------------------
  Starting TPA DIIS iterations ... 
------------------------------------ 
   It     Res. Norm  Remark
------------------------------------
                       Guess.
    1     9.961e+00  
    2     1.753e+01  
    3     2.609e+00  
    4     1.048e+00  
    5     3.017e-01  
    6     1.373e-01  
    7     3.907e-02  
    8     7.645e-03  
    9     3.130e-03  
   10     4.885e-04  
   11     2.371e-04  
   12     4.579e-05  
   13     3.247e-05  
   14     1.399e-05  
   15     6.202e-06  
   16     2.307e-06  
   17     1.223e-06  
   18     3.070e-07  Converged.
   ... Converged in 18 steps (norm: 3.07031e-07)
------------------------------------
  Starting TPA DIIS iterations ... 
------------------------------------ 
   It     Res. Norm  Remark
------------------------------------
                       Guess.
    1     1.281e+00  
    2     1.792e+00  
    3     4.458e-01  
    4     3.027e-01  
    5     5.214e-02  
    6     2.423e-02  
    7     5.700e-03  
    8     1.786e-03  
    9     6.961e-04  
   10     9.516e-05  
   11     6.070e-05  
   12     2.125e-05  
   13     1.536e-05  
   14     7.478e-06  
   15     4.935e-06  
   16     2.018e-06  
   17     1.064e-06  
   18     1.973e-07  Converged.
   ... Converged in 18 steps (norm: 1.97265e-07)
------------------------------------
  Starting TPA DIIS iterations ... 
------------------------------------ 
   It     Res. Norm  Remark
------------------------------------
                       Guess.
    1     1.149e+01  
    2     2.079e+01  
    3     2.998e+00  
    4     1.226e+00  
    5     3.479e-01  
    6     1.595e-01  
    7     4.574e-02  
    8     8.971e-03  
    9     3.758e-03  
   10     5.789e-04  
   11     2.843e-04  
   12     5.633e-05  
   13     3.877e-05  
   14     1.688e-05  
   15     7.776e-06  
   16     2.935e-06  
   17     1.736e-06  
   18     4.350e-07  Converged.
   ... Converged in 18 steps (norm: 4.35043e-07)
------------------------------------
  Starting TPA DIIS iterations ... 
------------------------------------ 
   It     Res. Norm  Remark
------------------------------------
                       Guess.
    1     1.086e+01  
    2     1.964e+01  
    3     2.843e+00  
    4     1.195e+00  
    5     3.466e-01  
    6     1.592e-01  
    7     4.496e-02  
    8     8.913e-03  
    9     3.668e-03  
   10     5.633e-04  
   11     2.796e-04  
   12     5.550e-05  
   13     3.978e-05  
   14     1.774e-05  
   15     8.047e-06  
   16     2.971e-06  
   17     1.699e-06  
   18     4.187e-07  Converged.
   ... Converged in 18 steps (norm: 4.18743e-07)
------------------------------------
  Starting TPA DIIS iterations ... 
------------------------------------ 
   It     Res. Norm  Remark
------------------------------------
                       Guess.
    1     1.354e+00  
    2     1.981e+00  
    3     4.761e-01  
    4     3.267e-01  
    5     5.820e-02  
    6     2.720e-02  
    7     6.630e-03  
    8     1.842e-03  
    9     7.738e-04  
   10     1.119e-04  
   11     7.345e-05  
   12     2.693e-05  
   13     1.880e-05  
   14     9.257e-06  
   15     6.209e-06  
   16     2.605e-06  
   17     1.386e-06  
   18     2.509e-07  Converged.
   ... Converged in 18 steps (norm: 2.50922e-07)
------------------------------------
  Starting TPA DIIS iterations ... 
------------------------------------ 
   It     Res. Norm  Remark
------------------------------------
                       Guess.
    1     1.252e+01  
    2     2.326e+01  
    3     3.261e+00  
    4     1.395e+00  
    5     3.982e-01  
    6     1.843e-01  
    7     5.245e-02  
    8     1.045e-02  
    9     4.399e-03  
   10     6.654e-04  
   11     3.332e-04  
   12     6.786e-05  
   13     4.716e-05  
   14     2.119e-05  
   15     1.006e-05  
   16     3.788e-06  
   17     2.424e-06  
   18     7.313e-07  Converged.
   ... Converged in 18 steps (norm: 7.31302e-07)
------------------------------------
  Starting TPA DIIS iterations ... 
------------------------------------ 
   It     Res. Norm  Remark
------------------------------------
                       Guess.
    1     1.182e+01  
    2     2.198e+01  
    3     3.092e+00  
    4     1.357e+00  
    5     3.967e-01  
    6     1.840e-01  
    7     5.154e-02  
    8     1.037e-02  
    9     4.282e-03  
   10     6.465e-04  
   11     3.276e-04  
   12     6.718e-05  
   13     4.829e-05  
   14     2.222e-05  
   15     1.037e-05  
   16     3.808e-06  
   17     2.346e-06  
   18     6.798e-07  Converged.
   ... Converged in 18 steps (norm: 6.79793e-07)
------------------------------------
  Starting TPA DIIS iterations ... 
------------------------------------ 
   It     Res. Norm  Remark
------------------------------------
                       Guess.
    1     1.433e+00  
    2     2.190e+00  
    3     5.074e-01  
    4     3.520e-01  
    5     6.484e-02  
    6     3.027e-02  
    7     7.656e-03  
    8     1.890e-03  
    9     8.558e-04  
   10     1.295e-04  
   11     8.797e-05  
   12     3.400e-05  
   13     2.290e-05  
   14     1.132e-05  
   15     7.549e-06  
   16     3.299e-06  
   17     1.782e-06  
   18     3.142e-07  Converged.
   ... Converged in 18 steps (norm: 3.14248e-07)
------------------------------------
  Two-photon absorbption ...  CPU 120.52 s  wall 25.20 s
  Transition density matrix of state singlet_A_1 printed to ASCII file 'State_singlet_A_1_Transition.txt'
  Transition density matrix of state singlet_A_2 printed to ASCII file 'State_singlet_A_2_Transition.txt'
  Transition density matrix of state singlet_A_3 printed to ASCII file 'State_singlet_A_3_Transition.txt'
  Transition density matrix of state singlet_A_4 printed to ASCII file 'State_singlet_A_4_Transition.txt'
  Transition density matrix of state singlet_A_5 printed to ASCII file 'State_singlet_A_5_Transition.txt'
  Transition density matrix of state singlet_A_6 printed to ASCII file 'State_singlet_A_6_Transition.txt'
  Transition density matrix of state singlet_A_7 printed to ASCII file 'State_singlet_A_7_Transition.txt'
  Transition density matrix of state singlet_A_8 printed to ASCII file 'State_singlet_A_8_Transition.txt'
  Transition density matrix of state singlet_A_9 printed to ASCII file 'State_singlet_A_9_Transition.txt'
  Transition density matrix of state singlet_A_10 printed to ASCII file 'State_singlet_A_10_Transition.txt'
  Transition properties ...  CPU 0.16 s  wall 1.26 s
  Difference density matrix of state singlet_A_1 printed to ASCII file 'State_singlet_A_1_Difference.txt'
  Total density matrix of state singlet_A_1 printed to ASCII file 'State_singlet_A_1_Total.txt'
  Difference density matrix of state singlet_A_2 printed to ASCII file 'State_singlet_A_2_Difference.txt'
  Total density matrix of state singlet_A_2 printed to ASCII file 'State_singlet_A_2_Total.txt'
  Difference density matrix of state singlet_A_3 printed to ASCII file 'State_singlet_A_3_Difference.txt'
  Total density matrix of state singlet_A_3 printed to ASCII file 'State_singlet_A_3_Total.txt'
  Difference density matrix of state singlet_A_4 printed to ASCII file 'State_singlet_A_4_Difference.txt'
  Total density matrix of state singlet_A_4 printed to ASCII file 'State_singlet_A_4_Total.txt'
  Difference density matrix of state singlet_A_5 printed to ASCII file 'State_singlet_A_5_Difference.txt'
  Total density matrix of state singlet_A_5 printed to ASCII file 'State_singlet_A_5_Total.txt'
  Difference density matrix of state singlet_A_6 printed to ASCII file 'State_singlet_A_6_Difference.txt'
  Total density matrix of state singlet_A_6 printed to ASCII file 'State_singlet_A_6_Total.txt'
  Difference density matrix of state singlet_A_7 printed to ASCII file 'State_singlet_A_7_Difference.txt'
  Total density matrix of state singlet_A_7 printed to ASCII file 'State_singlet_A_7_Total.txt'
  Difference density matrix of state singlet_A_8 printed to ASCII file 'State_singlet_A_8_Difference.txt'
  Total density matrix of state singlet_A_8 printed to ASCII file 'State_singlet_A_8_Total.txt'
  Difference density matrix of state singlet_A_9 printed to ASCII file 'State_singlet_A_9_Difference.txt'
  Total density matrix of state singlet_A_9 printed to ASCII file 'State_singlet_A_9_Total.txt'
  Difference density matrix of state singlet_A_10 printed to ASCII file 'State_singlet_A_10_Difference.txt'
  Total density matrix of state singlet_A_10 printed to ASCII file 'State_singlet_A_10_Total.txt'
  Properties ...  CPU 0.30 s  wall 0.94 s
  ISR TDMS ...  CPU 15.57 s  wall 4.25 s
  ISR transition properties ...  CPU 0.23 s  wall 0.10 s
  Sum-over-states TPA ...  CPU 0.00 s  wall 0.00 s

--------------------------------------------------------------------------------
                   State-averaged natural transition orbitals
--------------------------------------------------------------------------------
--------------------------------------------------------------------------------
  SA-NTO decomposition ...  CPU 0.01 s  wall 0.04 s

--------------------------------------------------------------------------------
                             Excited State Summary
--------------------------------------------------------------------------------
--------------------------------------------------------------------------------

  Excited state 1 (singlet, A)                                     [converged]
  ----------------------------------------------------------------------------
  Term symbol:  2 (1) A                                     R^2 =  7.63695e-13

  Total energy:                                            -77.9988263228 a.u.
  Excitation energy:                                               8.722315 eV

  Osc. strength:                                                      0.443018
  Trans. dip. moment [a.u.]:           [  -1.044452,    0.989239,    0.060660]
  <i|r^2|0> [a.u.]:                    [  -6.166649,    0.255055,   -0.010038]
  Two-photon absorption cross-section (SoS) [a.u.]:                   0.011048
  Two-photon absorption matrix (SoS) [a.u.]:
                                       |   -0.014467   -0.000849   -0.017481 |
                                       |   -0.000849   -0.004714    0.011526 |
                                       |   -0.017481    0.011526   -0.025538 |
  Two-photon absorption cross-section [a.u.]:                         0.027443
  Two-photon absorption matrix [a.u.]:
                                       |   -0.021947   -0.000070   -0.037817 |
                                       |   -0.000070   -0.012772    0.031339 |
                                       |   -0.037817    0.031339   -0.014110 |

  Dip. moment [a.u.]:                  [   0.006415,   -0.002424,   -0.025881]
  Total dipole [Debye]:                                               0.068054
  <r^2> [a.u.]:                        [ 176.191609,   35.658445,   11.912258]
  Total <r^2> [a.u.]:                                               223.762311

  V1^2 = 0.9714, V2^2 = 0.0286

  Important amplitudes:
      occ i     occ j     vir a      vir b          v   
    -----------------------------------------------------
     8 (A) A              9 (A) A                 0.6808
     6 (A) A             14 (A) A                 0.0624
     4 (A) A             10 (A) A                -0.0602
     7 (A) A             16 (A) A                 0.0566
     5 (A) A             13 (A) A                 0.0512
     6 (A) A             23 (A) A                 0.0486
     8 (A) A             20 (A) A                -0.0347
     6 (A) A             19 (A) A                 0.0309
     3 (A) A             12 (A) A                -0.0280
     5 (A) A             22 (A) A                -0.0214
     7 (A) A             11 (A) A                 0.0209
     4 (A) A             24 (A) A                -0.0187
     3 (A) A             26 (A) A                -0.0185
     8 (A) A   8 (A) B   17 (A) A   20 (A) B      0.0183
     8 (A) A             10 (A) A                 0.0169
     8 (A) A   8 (A) B    9 (A) A   28 (A) B     -0.0168
     6 (A) A             26 (A) A                -0.0162
     7 (A) A             21 (A) A                 0.0147
     3 (A) A             14 (A) A                 0.0139
     6 (A) A             12 (A) A                 0.0131
     3 (A) A   4 (A) B    9 (A) A    9 (A) B      0.0129
     3 (A) A             19 (A) A                 0.0119
     6 (A) A              9 (A) A                -0.0118
     8 (A) A   8 (A) B   18 (A) A   19 (A) B     -0.0112
     7 (A) A             32 (A) A                 0.0095
     7 (A) A             36 (A) A                 0.0085
     3 (A) A             23 (A) A                 0.0081
     4 (A) A              9 (A) A                -0.0078
     6 (A) A             35 (A) A                 0.0070
     8 (A) A   8 (A) B   25 (A) A   29 (A) B      0.0067
     6 (A) A             40 (A) A                 0.0066
     3 (A) A   6 (A) B    9 (A) A   28 (A) B     -0.0065
     6 (A) A   8 (A) A   19 (A) A   28 (A) A      0.0060
     5 (A) A   7 (A) B    9 (A) A    9 (A) B     -0.0060
     5 (A) A   8 (A) B   11 (A) A   20 (A) B      0.0059
     7 (A) A   8 (A) B   13 (A) A   20 (A) B      0.0059
     5 (A) A   8 (A) B   16 (A) A    9 (A) B     -0.0059
     5 (A) A   8 (A) B   11 (A) A    9 (A) B      0.0059
     7 (A) A   8 (A) B   22 (A) A   20 (A) B     -0.0057
     6 (A) A   8 (A) A    9 (A) A   18 (A) A     -0.0056
    -----------------------------------------------------

  Density matrix analysis:
  ------------------------
  NOs
    Occupation of frontier NOs:
       0.9498   1.0214
    Number of electrons: 16.000000
    Number of unpaired electrons: n_u =  2.31363, n_u,nl =  2.03267
    NO participation ratio (PR_NO):  2.862760
  
  
  Mulliken Population Analysis
  Atom      Charge (e)              h+              e-           Del q
  --------------------------------------------------------------------
   1 H        0.058565        0.020380       -0.012823        0.007558
   2 C       -0.114666        0.490750       -0.504795       -0.014045
   3 H        0.058292        0.020331       -0.012893        0.007437
   4 C       -0.116117        0.490835       -0.504430       -0.013595
   5 H        0.056339        0.020370       -0.014052        0.006318
   6 H        0.057588        0.020492       -0.014165        0.006327
  --------------------------------------------------------------------
  Sum:        0.000000        1.063158       -1.063158       -0.000000
  
  Multipole moment analysis of the density matrix
    Molecular charge:                      0.000000
    Number of electrons:                   16.000000
      Center of electronic charge [Ang]: [ -1.560788,  -0.065522,   0.017834]
    Total nuclear charge:                  16.000000
      Center of nuclear charge [Ang]:    [ -1.560576,  -0.065602,   0.016978]
    Dipole moment [D]:                     0.068054
      Cartesian components [D]:          [  0.016305,  -0.006162,  -0.065784]
    RMS size of the density [Ang]:         1.214729
      Cartesian components [Ang]:        [  0.804740,   0.787269,   0.456254]
  
  Exciton analysis of the difference density matrix
    <r_h> [Ang]:                  [ -1.561131,  -0.065860,   0.028367]
    <r_e> [Ang]:                  [ -1.563300,  -0.064171,   0.030709]
    |<r_e - r_h>| [Ang]:            0.003612
    Hole size [Ang]:                1.286360
      Cartesian components [Ang]: [  0.729300,   0.713254,   0.783653]
    Electron size [Ang]:            1.466512
      Cartesian components [Ang]: [  0.856900,   0.833797,   0.849212]

  Transition density matrix analysis:
  -----------------------------------
  
  CT numbers (Mulliken)
    omega =     0.9533
    <Phe> =    -0.1607
  
  Exciton analysis of the transition density matrix
    Trans. dipole moment [D]:             1.829860
      Cartesian components [D]:         [ -1.327366,   1.257198,   0.077091]
    <r_h> [Ang]:                        [ -1.560563,  -0.066021,   0.026447]
    <r_e> [Ang]:                        [ -1.563471,  -0.064242,   0.032367]
    |<r_e - r_h>| [Ang]:                  0.006832
    Hole size [Ang]:                      1.214673
      Cartesian components [Ang]:       [  0.649935,   0.636918,   0.804581]
    Electron size [Ang]:                  1.489711
      Cartesian components [Ang]:       [  0.867605,   0.842783,   0.869607]
    RMS electron-hole separation [Ang]:   1.940063
      Cartesian components [Ang]:       [  1.109549,   1.077878,   1.170864]
    Covariance(r_h, r_e) [Ang^2]:        -0.034564
    Correlation coefficient:             -0.019101
    Center-of-mass size [Ang]:            0.952043
      Cartesian components [Ang]:       [  0.528966,   0.517222,   0.599218]

  Decomposition into state-averaged NTOs
    H- 0 -> L+ 0: -0.6689 ( 89.5%)
    H- 2 -> L+ 5: -0.0836 (  1.4%)
                   omega =  95.3%
  ----------------------------------------------------------------------------


  Excited state 2 (singlet, A)                                     [converged]
  ----------------------------------------------------------------------------
  Term symbol:  3 (1) A                                     R^2 =  6.51821e-13

  Total energy:                                            -77.9872016593 a.u.
  Excitation energy:                                               9.038639 eV

  Osc. strength:                                                      0.000071
  Trans. dip. moment [a.u.]:           [   0.008291,    0.011523,    0.010826]
  <i|r^2|0> [a.u.]:                    [   0.071168,   -0.169039,    0.149202]
  Two-photon absorption cross-section (SoS) [a.u.]:                   4.846590
  Two-photon absorption matrix (SoS) [a.u.]:
                                       |    0.099261   -0.051563    0.543344 |
                                       |   -0.051563   -0.187311    0.527244 |
                                       |    0.543344    0.527244    0.120232 |
  Two-photon absorption cross-section [a.u.]:                         1.106705
  Two-photon absorption matrix [a.u.]:
                                       |    0.366632    0.024026   -0.060695 |
                                       |    0.024026   -0.341192   -0.092364 |
                                       |   -0.060695   -0.092364   -0.014008 |

  Dip. moment [a.u.]:                  [   0.004016,    0.019756,   -0.047235]
  Total dipole [Debye]:                                               0.130536
  <r^2> [a.u.]:                        [ 174.522879,   34.002491,   13.230067]
  Total <r^2> [a.u.]:                                               221.755437

  V1^2 = 0.9541, V2^2 = 0.0459

  Important amplitudes:
      occ i     occ j     vir a      vir b          v   
    -----------------------------------------------------
     7 (A) A              9 (A) A                 0.6695
     8 (A) A             11 (A) A                 0.1450
     7 (A) A             20 (A) A                -0.0757
     5 (A) A   8 (A) B    9 (A) A    9 (A) B     -0.0317
     8 (A) A             16 (A) A                -0.0270
     8 (A) A             10 (A) A                -0.0182
     8 (A) A             21 (A) A                 0.0172
     7 (A) A             10 (A) A                -0.0162
     5 (A) A             28 (A) A                -0.0151
     4 (A) A   7 (A) B    9 (A) A   19 (A) B      0.0135
     5 (A) A   7 (A) B    9 (A) A   16 (A) B      0.0134
     7 (A) A   8 (A) B   20 (A) A   17 (A) B      0.0105
     7 (A) A   8 (A) A    9 (A) A   28 (A) A      0.0098
     5 (A) A   8 (A) B    9 (A) A   20 (A) B      0.0095
     4 (A) A   6 (A) B    9 (A) A   16 (A) B      0.0091
     5 (A) A   6 (A) A    9 (A) A   23 (A) A      0.0091
     5 (A) A   6 (A) A    9 (A) A   14 (A) A      0.0089
     5 (A) A   6 (A) B    9 (A) A   19 (A) B      0.0087
     8 (A) A   7 (A) B    9 (A) A   28 (A) B     -0.0085
     4 (A) A   5 (A) A    9 (A) A   10 (A) A      0.0085
     6 (A) A   7 (A) B    9 (A) A   18 (A) B     -0.0083
     5 (A) A   6 (A) B    9 (A) A   23 (A) B      0.0080
     3 (A) A   7 (A) B    9 (A) A   18 (A) B      0.0080
     5 (A) A   7 (A) A    9 (A) A   16 (A) A      0.0079
     4 (A) A   8 (A) B    9 (A) A   25 (A) B      0.0074
     7 (A) A   8 (A) B   17 (A) A   20 (A) B      0.0074
     4 (A) A   7 (A) B   19 (A) A    9 (A) B      0.0074
     5 (A) A   5 (A) B    9 (A) A   13 (A) B      0.0072
     7 (A) A   8 (A) B   19 (A) A   18 (A) B     -0.0071
     7 (A) A             12 (A) A                -0.0070
     5 (A) A   8 (A) A    9 (A) A   20 (A) A      0.0069
     4 (A) A   5 (A) B    9 (A) A   18 (A) B     -0.0068
     7 (A) A   7 (A) B   20 (A) A   22 (A) B     -0.0065
     7 (A) A   8 (A) B   17 (A) A    9 (A) B     -0.0065
     5 (A) A   6 (A) B    9 (A) A   14 (A) B      0.0063
     4 (A) A   5 (A) B   10 (A) A    9 (A) B     -0.0062
     4 (A) A   7 (A) A    9 (A) A   19 (A) A      0.0061
     5 (A) A   7 (A) B   11 (A) A   20 (A) B      0.0060
     4 (A) A   7 (A) B    9 (A) A   14 (A) B     -0.0060
     6 (A) A   7 (A) A   19 (A) A   28 (A) A      0.0057
    -----------------------------------------------------

  Density matrix analysis:
  ------------------------
  NOs
    Occupation of frontier NOs:
       0.9594   1.0524
    Number of electrons: 16.000000
    Number of unpaired electrons: n_u =  2.35562, n_u,nl =  2.06195
    NO participation ratio (PR_NO):  3.020354
  
  
  Mulliken Population Analysis
  Atom      Charge (e)              h+              e-           Del q
  --------------------------------------------------------------------
   1 H        0.152702        0.123042       -0.021348        0.101694
   2 C       -0.303304        0.270293       -0.472977       -0.202683
   3 H        0.149020        0.125267       -0.027102        0.098166
   4 C       -0.303333        0.273847       -0.474657       -0.200810
   5 H        0.154045        0.125147       -0.021123        0.104024
   6 H        0.150870        0.127194       -0.027584        0.099609
  --------------------------------------------------------------------
  Sum:        0.000000        1.044791       -1.044791        0.000000
  
  Multipole moment analysis of the density matrix
    Molecular charge:                      0.000000
    Number of electrons:                   16.000000
      Center of electronic charge [Ang]: [ -1.560709,  -0.066256,   0.018540]
    Total nuclear charge:                  16.000000
      Center of nuclear charge [Ang]:    [ -1.560576,  -0.065602,   0.016978]
    Dipole moment [D]:                     0.130536
      Cartesian components [D]:          [  0.010208,   0.050215,  -0.120058]
    RMS size of the density [Ang]:         1.200237
      Cartesian components [Ang]:        [  0.786542,   0.768579,   0.480839]
  
  Exciton analysis of the difference density matrix
    <r_h> [Ang]:                  [ -1.568964,  -0.064009,   0.014206]
    <r_e> [Ang]:                  [ -1.569956,  -0.073525,   0.027405]
    |<r_e - r_h>| [Ang]:            0.016301
    Hole size [Ang]:                1.486502
      Cartesian components [Ang]: [  1.007305,   0.994377,   0.454136]
    Electron size [Ang]:            1.475904
      Cartesian components [Ang]: [  0.881558,   0.856261,   0.817293]

  Transition density matrix analysis:
  -----------------------------------
  
  CT numbers (Mulliken)
    omega =     0.9216
    <Phe> =    -0.0124
  
  Exciton analysis of the transition density matrix
    Trans. dipole moment [D]:             0.022689
      Cartesian components [D]:         [  0.010537,   0.014644,   0.013759]
    <r_h> [Ang]:                        [ -1.569780,  -0.063090,   0.011187]
    <r_e> [Ang]:                        [ -1.569751,  -0.074773,   0.030554]
    |<r_e - r_h>| [Ang]:                  0.022619
    Hole size [Ang]:                      1.515537
      Cartesian components [Ang]:       [  1.031065,   1.018299,   0.443646]
    Electron size [Ang]:                  1.472875
      Cartesian components [Ang]:       [  0.871920,   0.845346,   0.833372]
    RMS electron-hole separation [Ang]:   2.093653
      Cartesian components [Ang]:       [  1.334440,   1.308540,   0.943598]
    Covariance(r_h, r_e) [Ang^2]:         0.041671
    Correlation coefficient:              0.018668
    Center-of-mass size [Ang]:            1.066484
      Cartesian components [Ang]:       [  0.682999,   0.669131,   0.472403]

  Decomposition into state-averaged NTOs
    H- 1 -> L+ 0: -0.6620 ( 87.7%)
    H- 0 -> L+ 2:  0.1450 (  4.2%)
                   omega =  92.2%
  ----------------------------------------------------------------------------


  Excited state 3 (singlet, A)                                     [converged]
  ----------------------------------------------------------------------------
  Term symbol:  4 (1) A                                     R^2 =  7.90025e-13

  Total energy:                                            -77.9823657150 a.u.
  Excitation energy:                                               9.170231 eV

  Osc. strength:                                                      0.027141
  Trans. dip. moment [a.u.]:           [  -0.071008,    0.031802,    0.338753]
  <i|r^2|0> [a.u.]:                    [  -0.436294,   -0.003318,   -0.017583]
  Two-photon absorption cross-section (SoS) [a.u.]:                   0.282079
  Two-photon absorption matrix (SoS) [a.u.]:
                                       |    0.020560   -0.000594    0.016594 |
                                       |   -0.000594    0.018394    0.007906 |
                                       |    0.016594    0.007906    0.200832 |
  Two-photon absorption cross-section [a.u.]:                         0.318865
  Two-photon absorption matrix [a.u.]:
                                       |    0.086349   -0.032072    0.026522 |
                                       |   -0.032072    0.086106    0.015447 |
                                       |    0.026522    0.015447    0.126889 |

  Dip. moment [a.u.]:                  [   0.018250,    0.037358,    0.031492]
  Total dipole [Debye]:                                               0.132571
  <r^2> [a.u.]:                        [ 180.970512,   40.566641,   11.081585]
  Total <r^2> [a.u.]:                                               232.618739

  V1^2 = 0.9588, V2^2 = 0.0412

  Important amplitudes:
      occ i     occ j     vir a      vir b          v   
    -----------------------------------------------------
     8 (A) A             10 (A) A                -0.6886
     8 (A) A             24 (A) A                -0.0506
     8 (A) A             18 (A) A                 0.0313
     4 (A) A              9 (A) A                 0.0233
     8 (A) A   8 (A) B    9 (A) A   12 (A) B      0.0218
     7 (A) A              9 (A) A                -0.0189
     8 (A) A   8 (A) B   10 (A) A   17 (A) B     -0.0172
     8 (A) A             15 (A) A                -0.0169
     5 (A) A   8 (A) B   11 (A) A   10 (A) B     -0.0165
     8 (A) A              9 (A) A                 0.0163
     7 (A) A   8 (A) B   13 (A) A   10 (A) B     -0.0141
     4 (A) A   8 (A) B   12 (A) A   10 (A) B     -0.0110
     6 (A) A   8 (A) A   10 (A) A   15 (A) A      0.0110
     7 (A) A   8 (A) B   22 (A) A   10 (A) B      0.0108
     6 (A) A   8 (A) B   15 (A) A   10 (A) B     -0.0107
     4 (A) A   8 (A) A   10 (A) A   12 (A) A      0.0106
     7 (A) A   8 (A) A   10 (A) A   22 (A) A     -0.0098
     7 (A) A   8 (A) A   10 (A) A   13 (A) A      0.0097
     5 (A) A   8 (A) B   21 (A) A   10 (A) B     -0.0094
     5 (A) A   8 (A) A   10 (A) A   11 (A) A      0.0094
     6 (A) A   8 (A) A   10 (A) A   18 (A) A      0.0087
     6 (A) A   8 (A) B   10 (A) A   10 (A) B      0.0087
     7 (A) A   8 (A) A   12 (A) A   16 (A) A      0.0081
     5 (A) A   8 (A) A   10 (A) A   21 (A) A      0.0079
     3 (A) A   4 (A) B   10 (A) A    9 (A) B     -0.0079
     4 (A) A   8 (A) B   19 (A) A   10 (A) B      0.0075
     8 (A) A   8 (A) B    9 (A) A   23 (A) B      0.0075
     8 (A) A   8 (A) B   10 (A) A   28 (A) B      0.0073
     5 (A) A   8 (A) B   10 (A) A   11 (A) B     -0.0071
     3 (A) A   8 (A) B   10 (A) A   10 (A) B     -0.0071
     3 (A) A   8 (A) A   10 (A) A   24 (A) A      0.0071
     7 (A) A   8 (A) B   16 (A) A   12 (A) B     -0.0070
     3 (A) A   8 (A) B   10 (A) A   18 (A) B      0.0068
     8 (A) A   8 (A) B    9 (A) A   19 (A) B     -0.0067
     6 (A) A   8 (A) B   18 (A) A   10 (A) B     -0.0066
     3 (A) A   6 (A) B   10 (A) A   28 (A) B      0.0062
     7 (A) A   8 (A) B   12 (A) A   11 (A) B      0.0057
     6 (A) A             28 (A) A                -0.0056
     5 (A) A   8 (A) A   10 (A) A   16 (A) A     -0.0056
     3 (A) A   8 (A) A   10 (A) A   18 (A) A      0.0055
    -----------------------------------------------------

  Density matrix analysis:
  ------------------------
  NOs
    Occupation of frontier NOs:
       0.9820   0.9845
    Number of electrons: 16.000000
    Number of unpaired electrons: n_u =  2.28708, n_u,nl =  2.02478
    NO participation ratio (PR_NO):  2.696038
  
  
  Mulliken Population Analysis
  Atom      Charge (e)              h+              e-           Del q
  --------------------------------------------------------------------
   1 H       -0.159380        0.053987       -0.264375       -0.210388
   2 C        0.326388        0.538187       -0.111177        0.427010
   3 H       -0.168932        0.053396       -0.273182       -0.219786
   4 C        0.323873        0.536234       -0.109838        0.426396
   5 H       -0.157147        0.054136       -0.261305       -0.207168
   6 H       -0.164803        0.053810       -0.269874       -0.216064
  --------------------------------------------------------------------
  Sum:        0.000000        1.289750       -1.289750       -0.000000
  
  Multipole moment analysis of the density matrix
    Molecular charge:                      0.000000
    Number of electrons:                   16.000000
      Center of electronic charge [Ang]: [ -1.561180,  -0.066838,   0.015937]
    Total nuclear charge:                  16.000000
      Center of nuclear charge [Ang]:    [ -1.560576,  -0.065602,   0.016978]
    Dipole moment [D]:                     0.132571
      Cartesian components [D]:          [  0.046387,   0.094954,   0.080045]
    RMS size of the density [Ang]:         1.276416
      Cartesian components [Ang]:        [  0.854414,   0.839953,   0.440106]
  
  Exciton analysis of the difference density matrix
    <r_h> [Ang]:                  [ -1.560611,  -0.066325,   0.023528]
    <r_e> [Ang]:                  [ -1.567255,  -0.081255,   0.001919]
    |<r_e - r_h>| [Ang]:            0.027092
    Hole size [Ang]:                1.410528
      Cartesian components [Ang]: [  0.834332,   0.819464,   0.788643]
    Electron size [Ang]:            2.074698
      Cartesian components [Ang]: [  1.373078,   1.374234,   0.728362]

  Transition density matrix analysis:
  -----------------------------------
  
  CT numbers (Mulliken)
    omega =     0.9259
    <Phe> =    -0.0113
  
  Exciton analysis of the transition density matrix
    Trans. dipole moment [D]:             0.441722
      Cartesian components [D]:         [ -0.090242,   0.040416,   0.430512]
    <r_h> [Ang]:                        [ -1.560108,  -0.064872,   0.029451]
    <r_e> [Ang]:                        [ -1.569293,  -0.086492,  -0.003835]
    |<r_e - r_h>| [Ang]:                  0.040739
    Hole size [Ang]:                      1.213823
      Cartesian components [Ang]:       [  0.637631,   0.623538,   0.823403]
    Electron size [Ang]:                  2.293201
      Cartesian components [Ang]:       [  1.516700,   1.520037,   0.804910]
    RMS electron-hole separation [Ang]:   2.585096
      Cartesian components [Ang]:       [  1.637832,   1.636167,   1.150297]
    Covariance(r_h, r_e) [Ang^2]:         0.025538
    Correlation coefficient:              0.009175
    Center-of-mass size [Ang]:            1.302230
      Cartesian components [Ang]:       [  0.826362,   0.824932,   0.576556]

  Decomposition into state-averaged NTOs
    H- 0 -> L+ 1:  0.6786 ( 92.1%)
                   omega =  92.6%
  ----------------------------------------------------------------------------


  Excited state 4 (singlet, A)                                     [converged]
  ----------------------------------------------------------------------------
  Term symbol:  5 (1) A                                     R^2 =  6.52004e-13

  Total energy:                                            -77.9580231493 a.u.
  Excitation energy:                                               9.832626 eV

  Osc. strength:                                                      0.000014
  Trans. dip. moment [a.u.]:           [   0.002465,   -0.000061,    0.007204]
  <i|r^2|0> [a.u.]:                    [   0.014921,    0.034747,   -0.037033]
  Two-photon absorption cross-section (SoS) [a.u.]:                 151.998970
  Two-photon absorption matrix (SoS) [a.u.]:
                                       |   -0.238270    0.311978   -3.046995 |
                                       |    0.311978    0.857286   -3.002591 |
                                       |   -3.046995   -3.002591   -0.643132 |
  Two-photon absorption cross-section [a.u.]:                        95.894615
  Two-photon absorption matrix [a.u.]:
                                       |   -0.456751    0.225276   -2.410322 |
                                       |    0.225276    0.935484   -2.336107 |
                                       |   -2.410322   -2.336107   -0.503964 |

  Dip. moment [a.u.]:                  [  -0.048867,   -0.045344,    0.026249]
  Total dipole [Debye]:                                               0.182105
  <r^2> [a.u.]:                        [ 181.104965,   40.460428,   10.801984]
  Total <r^2> [a.u.]:                                               232.367377

  V1^2 = 0.9635, V2^2 = 0.0365

  Important amplitudes:
      occ i     occ j     vir a      vir b          v   
    -----------------------------------------------------
     8 (A) A             11 (A) A                -0.6704
     7 (A) A              9 (A) A                 0.1470
     8 (A) A             21 (A) A                -0.0781
     8 (A) A             16 (A) A                 0.0646
     8 (A) A   8 (A) B    9 (A) A   13 (A) B     -0.0167
     5 (A) A   8 (A) B   11 (A) A   11 (A) B     -0.0156
     8 (A) A   8 (A) B   11 (A) A   17 (A) B     -0.0139
     7 (A) A             20 (A) A                -0.0133
     7 (A) A   8 (A) B   13 (A) A   11 (A) B     -0.0128
     8 (A) A             12 (A) A                -0.0117
     5 (A) A   8 (A) A   11 (A) A   21 (A) A      0.0110
     4 (A) A   8 (A) B   12 (A) A   11 (A) B     -0.0110
     8 (A) A   8 (A) B    9 (A) A   22 (A) B      0.0107
     7 (A) A   8 (A) A   11 (A) A   22 (A) A     -0.0096
     6 (A) A   8 (A) B   15 (A) A   11 (A) B     -0.0090
     6 (A) A   8 (A) B   10 (A) A   11 (A) B      0.0090
     7 (A) A   8 (A) B   22 (A) A   11 (A) B      0.0089
     3 (A) A   4 (A) B   11 (A) A    9 (A) B     -0.0083
     3 (A) A   8 (A) B   11 (A) A   18 (A) B      0.0081
     6 (A) A   8 (A) A   11 (A) A   15 (A) A      0.0080
     7 (A) A   8 (A) A   13 (A) A   16 (A) A     -0.0078
     7 (A) A   8 (A) A   11 (A) A   13 (A) A      0.0077
     5 (A) A   8 (A) B   21 (A) A   11 (A) B     -0.0071
     4 (A) A   8 (A) B   19 (A) A   11 (A) B      0.0070
     5 (A) A   8 (A) B    9 (A) A    9 (A) B     -0.0066
     4 (A) A   8 (A) A   11 (A) A   12 (A) A      0.0063
     6 (A) A   8 (A) A   11 (A) A   18 (A) A      0.0062
     3 (A) A   6 (A) B   11 (A) A   28 (A) B      0.0060
     6 (A) A   8 (A) B   18 (A) A   11 (A) B     -0.0060
     7 (A) A   8 (A) B   16 (A) A   13 (A) B      0.0057
     6 (A) A              9 (A) A                 0.0057
     3 (A) A   8 (A) A   11 (A) A   18 (A) A      0.0056
     5 (A) A   8 (A) B   10 (A) A   10 (A) B     -0.0056
     8 (A) A             10 (A) A                -0.0055
     3 (A) A   8 (A) B   11 (A) A   30 (A) B      0.0055
     6 (A) A   8 (A) B   11 (A) A   10 (A) B      0.0054
     7 (A) A   8 (A) B   12 (A) A   10 (A) B      0.0054
     8 (A) A   8 (A) B   20 (A) A   22 (A) B     -0.0053
     3 (A) A   8 (A) A   11 (A) A   24 (A) A      0.0053
     3 (A) A   5 (A) B   11 (A) A   25 (A) B      0.0053
    -----------------------------------------------------

  Density matrix analysis:
  ------------------------
  NOs
    Occupation of frontier NOs:
       0.9427   1.0257
    Number of electrons: 16.000000
    Number of unpaired electrons: n_u =  2.31931, n_u,nl =  2.04779
    NO participation ratio (PR_NO):  2.903425
  
  
  Mulliken Population Analysis
  Atom      Charge (e)              h+              e-           Del q
  --------------------------------------------------------------------
   1 H       -0.156678        0.045795       -0.253480       -0.207685
   2 C        0.276736        0.498167       -0.120810        0.377358
   3 H       -0.119767        0.046431       -0.217052       -0.170622
   4 C        0.272826        0.497847       -0.122498        0.375349
   5 H       -0.135923        0.046714       -0.232659       -0.185944
   6 H       -0.137195        0.045817       -0.234273       -0.188456
  --------------------------------------------------------------------
  Sum:        0.000000        1.180772       -1.180772        0.000000
  
  Multipole moment analysis of the density matrix
    Molecular charge:                      0.000000
    Number of electrons:                   16.000000
      Center of electronic charge [Ang]: [ -1.558960,  -0.064103,   0.016110]
    Total nuclear charge:                  16.000000
      Center of nuclear charge [Ang]:    [ -1.560576,  -0.065602,   0.016978]
    Dipole moment [D]:                     0.182105
      Cartesian components [D]:          [ -0.124207,  -0.115254,   0.066718]
    RMS size of the density [Ang]:         1.277544
      Cartesian components [Ang]:        [  0.859827,   0.839059,   0.434505]
  
  Exciton analysis of the difference density matrix
    <r_h> [Ang]:                  [ -1.559694,  -0.064457,   0.024690]
    <r_e> [Ang]:                  [ -1.536872,  -0.043701,   0.003437]
    |<r_e - r_h>| [Ang]:            0.037462
    Hole size [Ang]:                1.394680
      Cartesian components [Ang]: [  0.818955,   0.805181,   0.791282]
    Electron size [Ang]:            2.124138
      Cartesian components [Ang]: [  1.447389,   1.398964,   0.678180]

  Transition density matrix analysis:
  -----------------------------------
  
  CT numbers (Mulliken)
    omega =     0.9297
    <Phe> =    -0.0134
  
  Exciton analysis of the transition density matrix
    Trans. dipole moment [D]:             0.009677
      Cartesian components [D]:         [  0.003133,  -0.000077,   0.009155]
    <r_h> [Ang]:                        [ -1.561457,  -0.065642,   0.028594]
    <r_e> [Ang]:                        [ -1.532579,  -0.039332,   0.000549]
    |<r_e - r_h>| [Ang]:                  0.048090
    Hole size [Ang]:                      1.227821
      Cartesian components [Ang]:       [  0.658376,   0.648065,   0.808762]
    Electron size [Ang]:                  2.263215
      Cartesian components [Ang]:       [  1.543108,   1.490503,   0.720668]
    RMS electron-hole separation [Ang]:   2.564569
      Cartesian components [Ang]:       [  1.669329,   1.617752,   1.083159]
    Covariance(r_h, r_e) [Ang^2]:         0.027493
    Correlation coefficient:              0.009894
    Center-of-mass size [Ang]:            1.292737
      Cartesian components [Ang]:       [  0.843128,   0.816508,   0.541865]

  Decomposition into state-averaged NTOs
    H- 0 -> L+ 2: -0.6655 ( 88.6%)
    H- 1 -> L+ 0: -0.1450 (  4.2%)
                   omega =  93.0%
  ----------------------------------------------------------------------------


  Excited state 5 (singlet, A)                                     [converged]
  ----------------------------------------------------------------------------
  Term symbol:  6 (1) A                                     R^2 =  2.73038e-11

  Total energy:                                            -77.9444911254 a.u.
  Excitation energy:                                              10.200851 eV

  Osc. strength:                                                      0.000002
  Trans. dip. moment [a.u.]:           [  -0.002245,    0.002053,   -0.000843]
  <i|r^2|0> [a.u.]:                    [   0.050709,   -0.128154,    0.039355]
  Two-photon absorption cross-section (SoS) [a.u.]:                 169.422379
  Two-photon absorption matrix (SoS) [a.u.]:
                                       |   -0.108428    0.279393   -3.225581 |
                                       |    0.279393   -0.783303    3.199880 |
                                       |   -3.225581    3.199880    0.176456 |
  Two-photon absorption cross-section [a.u.]:                        75.039576
  Two-photon absorption matrix [a.u.]:
                                       |   -0.299415    0.040000   -2.122437 |
                                       |    0.040000   -0.767488    2.078214 |
                                       |   -2.122437    2.078214    0.170959 |

  Dip. moment [a.u.]:                  [   0.009650,   -0.008178,   -0.012760]
  Total dipole [Debye]:                                               0.045667
  <r^2> [a.u.]:                        [ 178.217070,   38.074273,   12.042005]
  Total <r^2> [a.u.]:                                               228.333349

[...]
    16   -2.224728818471e-03
    17   -1.047734844073e-03
    18   -2.137911319718e-05
    19   -3.302746234709e-03
    20    1.117084047545e-02
    21    9.436299229184e-01
    22   -2.077456415229e-04
    23    1.412506724108e-02
    24    4.732946288907e-04
    25    6.998239186970e-02
    26   -5.174144763898e-02
    27   -1.395735970285e+00
    28    9.829398020567e-02
    29   -9.190510747169e-02
    30    1.495131463589e-02
    31    3.826184055022e-01
    32   -3.616448738846e-01
    33    6.033569596500e-02
    34    1.560886843315e-02
    35   -3.036890324786e-03
    36   -2.940765833093e-04
    37    3.856442582208e-04
    38   -3.052637263746e-03
    39    9.051425812956e-03
    40    9.257881333762e-01
    41    3.211992634480e-04
    42   -1.398039839060e-02
    43   -6.274682030497e-06
    44    1.003010989228e-02
    45    9.398982817546e-01
    46    1.401048200290e-02
    47    3.590860115330e-04
    48    1.497960312190e-03
Sym=X
Ene= 0.232979
Spin=Alpha
Occup=0
     1    2.635065474360e-02
     2    1.248199432791e+00
     3   -1.461703992503e-02
     4   -3.836319018494e-03
     5   -1.103131334547e-03
     6    3.929374599461e-03
     7   -3.856298079552e-03
     8   -7.080395784350e-02
     9   -1.561666997095e-01
    10   -1.574013768683e-01
    11   -1.647157415769e-02
    12   -5.603639656176e-01
    13   -5.576214728260e-01
    14   -5.850431347513e-02
    15    7.035172166298e-04
    16   -1.050692843344e-03
    17   -1.156551073229e-03
    18   -3.169483368079e-04
    19   -4.132512949621e-04
    20   -2.497806614891e-02
    21   -1.149260647658e+00
    22   -2.489091339831e-03
    23   -1.334734361901e-02
    24   -6.970594088302e-04
    25   -2.815713313293e-03
    26    3.064856284315e-03
    27    3.895637502901e-02
    28   -1.541201825089e-01
    29   -1.587408085301e-01
    30   -1.740646115251e-02
    31   -5.424703308307e-01
    32   -5.571615921844e-01
    33   -6.087189413601e-02
    34   -2.068043677633e-04
    35    1.619039570644e-03
    36    1.612723523451e-03
    37    3.948024056878e-04
    38    1.490702356363e-04
    39    2.461819208973e-02
    40    1.158038890280e+00
    41   -2.548371411933e-03
    42   -1.366531807866e-02
    43   -6.871546229178e-04
    44   -2.681685687066e-02
    45   -1.217267419119e+00
    46   -1.417269508374e-02
    47   -3.705571664422e-03
    48   -1.228657193173e-03
Sym=X
Ene= 0.239383
Spin=Alpha
Occup=0
     1   -1.621188701845e-02
     2   -1.042525716751e+00
     3    1.640831063933e-02
     4    9.060866753912e-03
     5    1.184893694227e-03
     6   -8.639030430302e-02
     7    7.943884462935e-02
     8    1.592809842599e+00
     9    5.230152063586e-02
    10   -6.139431297595e-02
    11   -4.281247874425e-03
    12    2.074298768715e-01
    13   -2.354559716781e-01
    14   -2.336981353053e-02
    15   -2.237688499917e-02
    16    1.604402178288e-03
    17    3.820168564337e-03
    18   -4.670421963834e-04
    19    1.288924502424e-02
    20   -1.710323248057e-02
    21   -1.129515396141e+00
    22   -8.540055579027e-03
    23   -1.778312875363e-02
    24   -1.571909655624e-03
    25    8.644977239935e-02
    26   -7.905513026476e-02
    27   -1.597802435496e+00
    28    5.220152396852e-02
    29   -6.246967329234e-02
    30    1.310379123930e-02
    31    2.044161592670e-01
    32   -2.469394829003e-01
    33    4.930021093710e-02
    34    2.256042185314e-02
    35   -3.232238702051e-03
    36   -2.231524353271e-03
    37    9.784624927543e-04
    38   -1.276310724156e-02
    39    1.665543776811e-02
    40    1.141677186019e+00
    41   -8.609975697525e-03
    42   -1.813072830144e-02
    43   -4.178094245205e-04
    44    1.508811966823e-02
    45    1.038430718162e+00
    46    1.614951589969e-02
    47    9.184090014412e-03
    48    2.335596737758e-03
Sym=X
Ene= 0.303233
Spin=Alpha
Occup=0
     1   -2.071243768572e-02
     2    1.687097183680e+00
     3   -2.286318504378e-02
     4    2.859745354377e-04
     5   -3.099523237219e-04
     6   -2.644844827357e-04
     7    1.237813201187e-04
     8    6.917886280034e-03
     9   -1.337290557159e-01
    10   -1.397676166437e-01
    11   -1.464622363500e-02
    12   -1.142879189980e+00
    13   -1.189787012070e+00
    14   -1.247477199783e-01
    15   -2.450482321147e-05
    16   -9.222021044596e-04
    17    2.646077968734e-03
    18   -3.260050489224e-02
    19   -1.524404183898e-03
    20    2.035939584122e-02
    21   -1.689222719131e+00
    22    1.400770319627e-03
    23   -2.283940458353e-02
    24   -2.053630595613e-03
    25    1.403073672151e-04
    26    1.519813619391e-04
    27   -3.421532265359e-04
    28    1.349076510837e-01
    29    1.406131963061e-01
    30    1.487766390844e-02
    31    1.135895346457e+00
    32    1.196712727421e+00
    33    1.253317047833e-01
    34   -4.772446858541e-04
    35   -3.829281471263e-03
    36   -4.584262204880e-04
    37   -3.236025956671e-02
    38   -1.215359450570e-03
    39    1.983930531152e-02
    40   -1.694424465913e+00
    41   -1.497195058072e-03
    42    2.284382567078e-02
    43    1.165351437587e-03
    44   -1.900723034138e-02
    45    1.690149366112e+00
    46    2.299739184241e-02
    47   -4.096963463742e-04
    48    1.209800741565e-03
Sym=X
Ene= 0.461671
Spin=Alpha
Occup=0
     1   -1.171462239676e-01
     2   -7.107419204374e-01
     3   -1.572666814358e-02
     4   -1.012861310190e-02
     5   -1.283954028865e-03
     6    6.081904882369e-02
     7    1.675950097737e-02
     8   -3.577735018298e+00
     9    1.031668491309e-01
    10   -9.978824329091e-02
    11    4.328161675451e-03
    12    2.420488301785e+00
    13   -2.293848656285e+00
    14   -1.327857197842e-01
    15    5.363066539930e-02
    16   -3.324305220169e-03
    17   -4.683560846229e-03
    18   -9.395686615993e-04
    19    1.795261777542e-02
    20   -1.195779252163e-01
    21   -7.028860066700e-01
    22    8.951754710272e-03
    23    1.619277866974e-02
    24    1.457061565993e-03
    25   -6.107925388773e-02
    26   -1.628428850140e-02
    27    3.581035124646e+00
    28    1.049802955657e-01
    29   -1.014858049777e-01
    30    1.471365480223e-02
    31    2.410979342830e+00
    32   -2.295308303479e+00
    33   -8.583199088897e-02
    34   -5.231931277193e-02
    35    2.194776195848e-03
    36    5.451431670246e-03
    37    1.021644376371e-03
    38   -1.910707725922e-02
    39    1.122746580050e-01
    40    7.161891725435e-01
    41    8.753809855114e-03
    42    1.597829046385e-02
    43    1.834851351333e-03
    44    1.127827750512e-01
    45    7.048659691485e-01
    46   -1.545432881789e-02
    47   -9.573657458274e-03
    48   -8.448417560882e-04
Sym=X
Ene= 0.577637
Spin=Alpha
Occup=0
     1    2.490127787672e-01
     2    3.824296830039e-02
     3   -1.826670885183e-02
     4    2.576834130225e-02
     5    9.546796098255e-04
     6   -4.394939191786e-03
     7   -1.572711400868e-01
     8   -4.641887780293e-01
     9    2.999810871009e-01
    10   -2.870412686378e-01
    11   -1.274339786189e-02
    12   -7.222585955368e-01
    13    6.957442527885e-01
    14    8.268204468957e-03
    15   -5.774330767920e-03
    16    4.058387709015e-03
    17    3.539807585408e-03
    18   -3.317389939370e-03
    19    6.044179063779e-02
    20    2.538612881830e-01
    21    3.273122426602e-02
    22   -2.635169205589e-02
    23    1.665414954115e-02
    24    3.406771744907e-05
    25   -5.676960452422e-03
    26   -1.576733936467e-01
    27   -4.093670373664e-01
    28   -2.985668560974e-01
    29    2.838408124938e-01
    30    1.459640140432e-02
    31    7.595263344870e-01
    32   -7.322654448090e-01
    33    6.273626441241e-04
    34   -5.731230450398e-03
    35    4.297210152275e-03
    36    3.356258623288e-03
    37   -2.847302194902e-03
    38    6.046611143980e-02
    39    2.491249590735e-01
    40    5.516493622766e-02
    41    2.682091663582e-02
    42   -1.695878754248e-02
    43    9.581509808355e-04
    44    2.502679422534e-01
    45    4.794718912720e-02
    46    1.839093431661e-02
    47   -2.606163949190e-02
    48    3.498916915413e-05
Sym=X
Ene= 0.615051
Spin=Alpha
Occup=0
     1   -5.178694667300e-01
     2    2.018800864766e-01
     3   -6.101367202890e-02
     4    3.790081570993e-02
     5    4.952947346029e-04
     6   -3.340574329086e-04
     7   -1.644069964648e-04
     8    3.023973899978e-04
     9   -3.940359238836e-02
    10   -3.894769433359e-02
    11   -4.127118503415e-03
    12    2.908949779234e-01
    13    2.910150665020e-01
    14    3.074977423321e-02
    15    1.155094154196e-03
    16   -5.671989486871e-03
    17    1.023782133041e-02
    18   -1.476674346789e-01
    19   -6.652464085242e-03
    20    5.109569501027e-01
    21   -2.016000468520e-01
    22    4.155181880284e-02
    23   -5.873376280715e-02
    24   -2.680543275399e-03
    25    1.469117271769e-04
    26   -2.447824300217e-03
    27    1.609076058959e-02
    28   -3.925209632742e-02
    29   -4.192374551432e-02
    30   -4.118345628222e-03
    31    2.886181619758e-01
    32    3.055828917707e-01
    33    3.153245770737e-02
    34   -1.294768242629e-05
    35    1.367021440640e-02
    36   -2.076864212551e-03
    37    1.492557165030e-01
    38    6.389958830075e-03
    39   -5.164936679968e-01
    40    2.004241482970e-01
    41    4.043282021586e-02
    42   -5.878593126626e-02
    43    5.214841899651e-06
    44    5.217858965410e-01
    45   -2.136371393171e-01
    46   -6.120611052323e-02
    47    3.789421913421e-02
    48   -2.217058571846e-03
Sym=X
Ene= 0.689488
Spin=Alpha
Occup=0
     1   -2.867582717943e-02
     2   -1.706523975262e-02
     3   -1.616925704035e-03
     4   -1.934130890549e-03
     5   -2.133395459357e-02
     6   -1.886243611809e-03
     7   -8.864240557206e-03
     8   -1.604868005709e-02
     9    3.224588870226e-02
    10    3.915962212099e-02
    11   -6.706791364049e-01
    12    2.344691512564e-02
    13   -8.622590541937e-02
    14    6.121583335313e-01
    15   -8.734310877015e-04
    16    8.164684133623e-02
    17   -7.879966884307e-02
    18   -8.166545255406e-03
    19   -1.045270718174e-02
    20   -2.856371841903e-02
    21   -1.720897522194e-02
    22    4.047577141661e-03
    23    3.971941831964e-03
    24   -2.064117295946e-02
    25    3.084484298152e-05
    26   -2.715502049891e-02
    27    3.828697403280e-02
    28    2.455876245213e-02
    29    4.654416574739e-02
    30   -6.687841277749e-01
    31    3.059360004812e-02
    32   -9.309619321136e-02
    33    6.106576060498e-01
    34    1.291095238966e-02
    35   -8.292347233948e-02
    36    7.746482761890e-02
    37    8.324580588162e-03
    38    6.040252174693e-03
    39    2.853398390703e-03
    40    3.820051360328e-02
    41    1.967607284132e-03
    42   -5.227492556090e-03
    43   -2.165228080417e-02
    44    2.844405794450e-03
    45    3.824910430454e-02
    46    7.462199002064e-03
    47    5.755277386980e-04
    48   -2.006625691236e-02
Sym=X
Ene= 0.709662
Spin=Alpha
Occup=0
     1   -4.803946848305e-01
     2    1.603825319140e-01
     3   -8.147425762110e-02
     4   -4.447524687057e-02
     5   -3.168516949672e-03
     6   -4.848394651183e-02
     7   -3.180040946385e-01
     8    5.138864983491e-01
     9    2.007579635206e-01
    10   -1.934675985093e-01
    11    1.561821280028e-02
    12   -9.832363235796e-02
    13    8.779655828545e-02
    14    1.650368548877e-02
    15    1.955555416857e-01
    16   -1.722628635840e-02
    17   -2.723133844053e-02
    18    2.755098965940e-03
    19   -7.735197185295e-02
    20   -4.794471633503e-01
    21    1.566425044900e-01
    22    4.111257336500e-02
    23    8.239565980456e-02
    24    1.008628284419e-02
    25   -4.604394493610e-02
    26   -3.195262446493e-01
    27    4.530823388316e-01
    28   -2.081749383390e-01
    29    1.903531102763e-01
    30    2.716110148330e-02
    31    6.765175510191e-02
    32   -4.081760479149e-02
    33   -6.469516105674e-02
    34    1.919630016010e-01
    35   -1.746708417739e-02
    36   -2.645933748011e-02
    37    2.384126393869e-03
    38   -7.618726458691e-02
    39   -4.685300818764e-01
    40    1.261712866833e-01
    41   -4.060362289953e-02
    42   -8.052074367073e-02
    43   -8.161973909294e-03
    44   -4.721865920953e-01
    45    1.482376864836e-01
    46    7.963080164578e-02
    47    4.462165676355e-02
    48    4.941785051836e-03
Sym=X
Ene= 0.784667
Spin=Alpha
Occup=0
     1    5.238197383180e-01
     2   -4.681844312486e-01
     3    1.101836459715e-01
     4    2.577030905887e-02
     5    4.897927315026e-03
     6    9.039734550313e-02
     7   -2.172526747839e-01
     8   -6.349951427510e-01
     9    1.124969413242e-01
    10   -1.047304991881e-01
    11   -4.797535598361e-02
    12    3.112110128207e-01
    13   -2.963472896153e-01
    14    5.912853395727e-02
    15   -2.043107453759e-01
    16    1.333179248455e-02
    17    2.538078985298e-02
    18    6.333817391620e-04
    19    8.765312758786e-03
    20    5.307028501885e-01
    21   -4.643078780585e-01
    22   -1.976183340422e-02
    23   -1.108498512193e-01
    24   -9.426129260301e-03
    25   -9.150168779547e-02
    26    2.132555675477e-01
    27    6.511963215938e-01
    28    1.046047151194e-01
    29   -1.105928228666e-01
    30    2.250483852654e-02
    31    3.202984485569e-01
    32   -2.717509961489e-01
    33   -7.939283516578e-02
    34    2.088103045697e-01
    35   -2.392646722330e-02
    36   -1.626299516029e-02
    37    7.947962079261e-04
    38   -9.304775289107e-03
    39   -5.404821161125e-01
    40    4.542331483504e-01
    41   -2.092262323625e-02
    42   -1.119470424609e-01
    43   -7.605072809812e-03
    44   -5.386826595419e-01
    45    4.786336285335e-01
    46    1.114676368884e-01
    47    2.757131772369e-02
    48    6.929499625245e-03
Sym=X
Ene= 0.807782
Spin=Alpha
Occup=0
     1   -2.218212785911e-02
     2    2.295498873194e-02
     3   -2.900447131590e-03
     4    2.278302850208e-03
     5   -3.409574184357e-02
     6   -4.949832590365e-03
     7    2.458241955585e-02
     8   -9.074336090199e-04
     9    1.296909518046e-02
    10    6.741327981371e-02
    11   -7.606775252207e-01
    12   -4.300095965674e-02
    13   -7.767040680228e-02
    14    1.123623125691e+00
    15    1.712325082089e-02
    16   -6.545746760082e-02
    17    6.014091170985e-02
    18    6.407482936080e-03
    19    7.562851124835e-03
    20   -2.280826845325e-02
    21    2.235854269816e-02
    22    1.099401879267e-03
    23    6.478660693883e-03
    24   -3.401416332172e-02
    25    3.573437079908e-03
    26    6.572097821500e-03
    27   -1.612034085371e-02
    28   -4.051659932034e-02
    29   -4.082531864294e-02
    30    7.628905269832e-01
    31    3.006772202362e-02
    32    8.825680058580e-02
    33   -1.124425089268e+00
    34   -8.584173250855e-03
    35   -6.367620294799e-02
    36    6.251965182337e-02
    37    6.683748823907e-03
    38    1.994442374152e-03
    39    2.254204206630e-02
    40   -3.075854053470e-02
    41   -4.055025998202e-03
    42    9.384534587658e-03
    43    3.515330060628e-02
    44    2.253072684856e-02
    45   -3.179713472600e-02
    46   -1.315960397978e-02
    47   -2.447459183167e-04
    48    3.310653073669e-02
Sym=X
Ene= 0.862181
Spin=Alpha
Occup=0
     1    1.277311606130e-02
     2   -1.090513915716e+00
     3    1.474521069764e-01
     4    5.650816506263e-02
     5    1.208543336195e-02
     6   -3.558257014748e-04
     7    4.734951694826e-03
     8   -4.703940493430e-03
     9   -4.079420990351e-01
    10   -4.240694588058e-01
    11   -4.444494669714e-02
    12    9.438883025256e-01
    13    9.849876139582e-01
    14    1.027932457148e-01
    15    7.016429668769e-04
    16    1.317503986226e-02
    17   -1.201560806048e-02
    18    2.357867504608e-01
    19    1.051700795731e-02
    20   -1.654673071188e-02
    21    1.097434870939e+00
    22    5.039499893029e-02
    23    1.515273175644e-01
    24    9.551692944589e-03
    25    8.443570280294e-04
    26    4.737537649701e-03
    27   -2.421931334992e-03
    28   -4.122388993720e-01
    29   -4.285129529804e-01
    30   -4.507581869751e-02
    31    9.595274861946e-01
    32    1.005882063927e+00
    33    1.056955496655e-01
    34   -3.178744215190e-03
    35   -1.448034796761e-02
    36    1.082257997933e-02
    37   -2.360124650264e-01
    38   -1.118251734439e-02
    39    1.429065776328e-02
    40   -1.105886674976e+00
    41    4.839712184836e-02
    42    1.529381227349e-01
    43    6.788239044471e-03
    44   -8.156575684867e-03
    45    1.100265962513e+00
    46    1.484496651236e-01
    47    5.548845230694e-02
    48    1.506671977138e-02
Sym=X
Ene= 0.934995
Spin=Alpha
Occup=0
     1   -1.097142374454e-01
     2    1.281684814250e+00
     3   -1.818606454731e-01
     4    5.214741743965e-03
     5   -1.705349659319e-03
     6   -5.668239026446e-04
     7    4.591989707126e-03
     8   -2.238818967382e-02
     9    4.697510298800e-01
    10    5.063018223257e-01
    11    5.259164593783e-02
    12   -1.464833108161e+00
    13   -1.569836335814e+00
    14   -1.635930359590e-01
    15    2.198601180303e-03
    16    2.411440026333e-03
    17    1.514242849025e-02
    18   -1.191250449469e-01
    19   -6.702285595896e-04
    20    1.110387490635e-01
    21   -1.298749389008e+00
    22    1.089841107644e-02
    23   -1.819243186084e-01
    24   -1.684230402809e-02
    25    1.016558008973e-03
    26    1.143261209728e-02
    27   -4.014587846698e-03
    28   -4.817813862752e-01
    29   -4.871343957225e-01
    30   -5.226288222970e-02
    31    1.495734811588e+00
    32    1.516491495307e+00
    33    1.620447402889e-01
    34   -3.283964120110e-03
    35   -7.553671336770e-03
    36    5.689700162290e-03
    37   -1.179042880328e-01
    38   -1.017399741153e-02
    39    1.121419635376e-01
    40   -1.262616414991e+00
    41   -1.604170548018e-02
    42    1.790424372477e-01
    43    1.192768323426e-02
    44   -1.104066095973e-01
    45    1.295563175223e+00
    46    1.825240585197e-01
    47   -3.899337402367e-03
    48    6.734920849422e-03
Sym=X
Ene= 0.971787
Spin=Alpha
Occup=0
     1   -6.403616464799e-02
     2    9.410510786600e-01
     3   -9.255773667674e-02
     4   -9.842426171247e-02
     5   -1.229459540589e-02
     6    2.509836285426e-02
     7    2.509493235874e-01
     8    5.242824363349e-01
     9    4.870281751595e-01
    10   -4.483428573590e-01
    11   -2.108145418319e-02
    12   -1.519440197743e+00
    13    1.383694882019e+00
    14    6.889783154514e-02
    15   -5.282558259446e-02
    16   -2.394605686993e-02
    17    1.476459973095e-03
    18    1.379458876631e-02
    19   -3.013747186712e-01
    20   -6.504341155352e-02
    21    8.943793500100e-01
    22    9.531490718422e-02
    23    9.133097258096e-02
    24    7.383465665821e-03
    25   -2.505550535830e-02
    26   -2.352796599105e-01
    27   -5.516890149123e-01
    28    4.691719622650e-01
    29   -4.644679843119e-01
    30    3.497542765780e-03
    31   -1.451634658528e+00
    32    1.452024760647e+00
    33    3.674577293142e-03
    34    5.307407742716e-02
    35    2.568834550175e-02
    36   -2.219116824938e-03
    37   -1.857959136201e-02
    38    2.979862556951e-01
    39    6.283353963348e-02
    40   -9.374686215636e-01
    41    9.401649025059e-02
    42    9.667492415300e-02
    43    2.971830390986e-03
    44    6.513726586572e-02
    45   -8.796905016446e-01
    46   -8.427570292514e-02
    47   -9.721242530948e-02
    48   -1.742858408935e-02
[5D]

======= END OF MOLDEN-FORMATTED INPUT FILE =======


        *************************************************************
        *                                                           *
        *  Thank you very much for using Q-Chem.  Have a nice day.  *
        *                                                           *
        *************************************************************


