                  Welcome to Q-Chem
     A Quantum Leap Into The Future Of Chemistry


 Q-Chem 5.4 (devel), Q-Chem, Inc., Pleasanton, CA (2021)

 E. Epifanovsky,  A. T. B. Gilbert,  Xintian Feng,  Joonho Lee,  Yuezhi Mao,  
 N. Mardirossian,  P. Pokhilko,  A. White,  M. Wormit,  M. P. Coons,  
 A. L. Dempwolff,  Zhengting Gan,  D. Hait,  P. R. Horn,  L. D. Jacobson,  
 I. Kaliman,  J. Kussmann,  A. W. Lange,  Ka Un Lao,  D. S. Levine,  Jie Liu,  
 S. C. McKenzie,  A. F. Morrison,  K. Nanda,  F. Plasser,  D. R. Rehn,  
 M. L. Vidal,  Zhi-Qiang You,  Ying Zhu,  B. Alam,  B. Albrecht,  
 A. Aldossary,  E. Alguire,  J. H. Andersen,  D. Barton,  K. Begam,  A. Behn,  
 Y. A. Bernard,  E. J. Berquist,  H. Burton,  A. Carreras,  K. Carter-Fenk,  
 R. Chakraborty,  A. D. Chien,  K. D. Closser,  V. Cofer-Shabica,  
 S. Dasgupta,  Jia Deng,  M. de Wergifosse,  M. Diedenhofen,  Hainam Do,  
 S. Ehlert,  Po-Tung Fang,  S. Fatehi,  Qingguo Feng,  T. Friedhoff,  
 J. Gayvert,  Qinghui Ge,  G. Gidofalvi,  M. Goldey,  J. Gomes,  
 C. Gonzalez-Espinoza,  S. Gulania,  A. Gunina,  M. W. D. Hanson-Heine,  
 P. H. P. Harbach,  A. W. Hauser,  M. F. Herbst,  M. Hernandez Vera,  
 M. Hodecker,  Z. C. Holden,  S. Houck,  Xunkun Huang,  Kerwin Hui,  
 B. C. Huynh,  M. Ivanov,  Hyunjun Ji,  Hanjie Jiang,  B. Kaduk,  S. Kaehler,  
 K. Khistyaev,  Jaehoon Kim,  P. Klunzinger,  Z. Koczor-Benda,  
 Joong Hoon Koh,  D. Kosenkov,  L. Koulias,  T. Kowalczyk,  C. M. Krauter,  
 K. Kue,  A. Kunitsa,  T. Kus,  A. Landau,  K. V. Lawler,  D. Lefrancois,  
 S. Lehtola,  Rain Li,  Yi-Pei Li,  Jiashu Liang,  M. Liebenthal,  
 Hung-Hsuan Lin,  You-Sheng Lin,  Fenglai Liu,  Kuan-Yu Liu,  
 M. Loipersberger,  A. Luenser,  A. Manjanath,  P. Manohar,  E. Mansoor,  
 S. F. Manzer,  Shan-Ping Mao,  A. V. Marenich,  T. Markovich,  S. Mason,  
 S. A. Maurer,  P. F. McLaughlin,  M. F. S. J. Menger,  J.-M. Mewes,  
 S. A. Mewes,  P. Morgante,  J. W. Mullinax,  K. J. Oosterbaan,  G. Paran,  
 Alexander C. Paul,  Suranjan K. Paul,  F. Pavosevic,  Zheng Pei,  S. Prager,  
 E. I. Proynov,  E. Ramos,  B. Rana,  A. E. Rask,  A. Rettig,  R. M. Richard,  
 F. Rob,  E. Rossomme,  T. Scheele,  M. Scheurer,  M. Schneider,  
 N. Sergueev,  S. M. Sharada,  W. Skomorowski,  D. W. Small,  C. J. Stein,  
 Yu-Chuan Su,  E. J. Sundstrom,  Zhen Tao,  J. Thirman,  T. Tsuchimochi,  
 N. M. Tubman,  S. P. Veccham,  O. Vydrov,  J. Wenzel,  J. Witte,  A. Yamada,  
 Kun Yao,  S. Yeganeh,  S. R. Yost,  A. Zech,  Igor Ying Zhang,  Xing Zhang,  
 Yu Zhang,  D. Zuev,  A. Aspuru-Guzik,  A. T. Bell,  N. A. Besley,  
 K. B. Bravaya,  B. R. Brooks,  D. Casanova,  Jeng-Da Chai,  S. Coriani,  
 C. J. Cramer,  A. E. DePrince, III,  R. A. DiStasio Jr.,  A. Dreuw,  
 B. D. Dunietz,  T. R. Furlani,  W. A. Goddard III,  S. Grimme,  
 S. Hammes-Schiffer,  T. Head-Gordon,  W. J. Hehre,  Chao-Ping Hsu,  
 T.-C. Jagau,  Yousung Jung,  A. Klamt,  Jing Kong,  D. S. Lambrecht,  
 WanZhen Liang,  N. J. Mayhall,  C. W. McCurdy,  J. B. Neaton,  
 C. Ochsenfeld,  J. A. Parkhill,  R. Peverati,  V. A. Rassolov,  Yihan Shao,  
 L. V. Slipchenko,  T. Stauch,  R. P. Steele,  J. E. Subotnik,  
 A. J. W. Thom,  A. Tkatchenko,  D. G. Truhlar,  T. Van Voorhis,  
 T. A. Wesolowski,  K. B. Whaley,  H. L. Woodcock III,  P. M. Zimmerman,  
 S. Faraji,  P. M. W. Gill,  M. Head-Gordon,  J. M. Herbert,  A. I. Krylov

 Additional authors for Version 5.4.1: 
 S. Kotaru,  Shaozhi Li,  Xiangyuan Li,  F. Matz,  A. Molle,  Haisheng Ren,  
 Yingli Su,  Hung-Yi Tsai,  C. Utku,  Fang Wang

 Contributors to earlier versions of Q-Chem not listed above: 
 R. D. Adamson,  B. Austin,  R. Baer,  J. Baker,  G. J. O. Beran,  
 K. Brandhorst,  S. T. Brown,  E. F. C. Byrd,  A. K. Chakraborty,  
 G. K. L. Chan,  Chun-Min Chang,  Yunqing Chen,  C.-L. Cheng,  
 Siu Hung Chien,  D. M. Chipman,  D. L. Crittenden,  H. Dachsel,  
 R. J. Doerksen,  A. D. Dutoi,  R. G. Edgar,  J. Fosso-Tande,  
 L. Fusti-Molnar,  D. Ghosh,  A. Ghysels,  A. Golubeva-Zadorozhnaya,  
 J. Gonthier,  M. S. Gordon,  S. R. Gwaltney,  G. Hawkins,  J. E. Herr,  
 A. Heyden,  S. Hirata,  E. G. Hohenstein,  G. Kedziora,  F. J. Keil,  
 C. Kelley,  Jihan Kim,  R. A. King,  R. Z. Khaliullin,  P. P. Korambath,  
 W. Kurlancheek,  A. Laurent,  A. M. Lee,  M. S. Lee,  S. V. Levchenko,  
 Ching Yeh Lin,  D. Liotard,  E. Livshits,  R. C. Lochan,  I. Lotan,  
 L. A. Martinez-Martinez,  P. E. Maslen,  N. Nair,  D. P. O'Neill,  
 D. Neuhauser,  E. Neuscamman,  C. M. Oana,  R. Olivares-Amaya,  R. Olson,  
 T. M. Perrine,  B. Peters,  P. A. Pieniazek,  A. Prociuk,  Y. M. Rhee,  
 J. Ritchie,  M. A. Rohrdanz,  E. Rosta,  N. J. Russ,  H. F. Schaefer III,  
 M. W. Schmidt,  N. E. Schultz,  S. Sharma,  N. Shenvi,  C. D. Sherrill,  
 A. C. Simmonett,  A. Sodt,  T. Stein,  D. Stuck,  K. S. Thanthiriwatte,  
 V. Vanovschi,  L. Vogt,  Tao Wang,  A. Warshel,  M. A. Watson,  
 C. F. Williams,  Q. Wu,  X. Xu,  Jun Yang,  W. Zhang,  Yan Zhao

 Please cite Q-Chem as follows:
 Y. Shao et al., Mol. Phys. 113, 184-215 (2015)
 DOI: 10.1080/00268976.2014.952696

 Q-Chem 5.4.1 for Intel X86 EM64T Linux

 Parts of Q-Chem use Armadillo 9.800.1 (Horizon Scraper).
 http://arma.sourceforge.net/

 Q-Chem begins on Tue Mar 21 11:20:36 2023  

 Host: cpu186.baobab
0

     Scratch files written to /scratch/fum/qchem53247//
 Processing $rem in /home/share/wesolowski/qc5.aug2021.FDE/config/preferences:
 Processing $rem in /home/fum/.qchemrc:

 Checking the input file for inconsistencies... 	...done.

--------------------------------------------------------------
User input:
--------------------------------------------------------------
$comment
generated from CCJob.Templates
$end

$rem
sym_ignore = true
method = adc(2)
ee_states = 10
basis = cc-pVDZ
mem_static = 1024
mem_total = 40000
adc_davidson_maxiter = 900
adc_davidson_conv = 6
adc_print = 3
adc_prop_es = true
adc_prop_es2es = true
adc_prop_tpa = true
molden_format = True
state_analysis = true
print_orbitals = 15
gen_scfman = false
fde_export_density = true
fde_details = 3
$end

$molecule
0 1
H -0.02196679961192225 -0.2461771658772978 0.06535290530641738
C -1.0787505788238314 -0.52379054728216 -0.002365184400061448
H -1.300789876688289 -1.5929715521980032 -0.07805469451018707
C -2.047517292878303 0.39244619836034056 0.007134439914892873
H -1.8229627319413098 1.4621848132916793 0.0824328040144851
H -3.101757047117677 0.11538969537097354 -0.06087606000211921                     
$end
--------------------------------------------------------------
 ----------------------------------------------------------------
             Standard Nuclear Orientation (Angstroms)
    I     Atom           X                Y                Z
 ----------------------------------------------------------------
    1      H      -0.0219667996    -0.2461771659     0.0653529053
    2      C      -1.0787505788    -0.5237905473    -0.0023651844
    3      H      -1.3007898767    -1.5929715522    -0.0780546945
    4      C      -2.0475172929     0.3924461984     0.0071344399
    5      H      -1.8229627319     1.4621848133     0.0824328040
    6      H      -3.1017570471     0.1153896954    -0.0608760600
 ----------------------------------------------------------------
 Nuclear Repulsion Energy =          33.20992904 hartrees
 There are        8 alpha and        8 beta electrons
 Requested basis set is cc-pVDZ
 There are 24 shells and 48 basis functions
 Total memory of 40000 MB is distributed as follows: 
   MEM_STATIC is set to 1024 MB
   QALLOC/CCMAN JOB total memory use is  38976 MB
 Warning: actual memory use might exceed 40000 MB

 Total QAlloc Memory Limit  40000 MB
 Mega-Array Size      1001 MB
 MEM_STATIC part      1024 MB

                       Distance Matrix (Angstroms)
             H (  1)   C (  2)   H (  3)   C (  4)   H (  5)
   C (  2)  1.094736
   H (  3)  1.862742  1.094613
   C (  4)  2.124637  1.333450  2.122909
   H (  5)  2.482414  2.122532  3.103611  1.095644
   H (  6)  3.103510  2.122388  2.482393  1.092157  1.862716

 A cutoff of  1.0D-11 yielded    300 shell pairs
 There are      1220 function pairs (      1329 Cartesian)
 Smallest overlap matrix eigenvalue = 4.81E-03

 Scale SEOQF with 1.000000e-01/1.000000e-01/1.000000e+00

 Standard Electronic Orientation quadrupole field applied
 Nucleus-field energy     =     0.0000000022 hartrees
 Guess from superposition of atomic densities
 Warning:  Energy on first SCF cycle will be non-variational
 SAD guess density has 16.000000 electrons
 A restricted Hartree-Fock SCF calculation will be
 performed using Pulay DIIS extrapolation
 SCF converges when DIIS error is below 1.0E-08
 using 10 threads for integral computing
 -------------------------------------------------------
 OpenMP Integral computing Module                
 Release: version 1.0, May 2013, Q-Chem Inc. Pittsburgh 
 -------------------------------------------------------
 ---------------------------------------
  Cycle       Energy         DIIS Error
 ---------------------------------------
    1     -78.3977759567      9.93E-02
    2     -78.0175845709      7.13E-03
    3     -78.0380507196      1.83E-03
    4     -78.0395268569      5.64E-04
    5     -78.0396444745      5.81E-05
    6     -78.0396463381      9.31E-06
    7     -78.0396463996      2.00E-06
    8     -78.0396464023      4.67E-07
    9     -78.0396464024      1.15E-07
   10     -78.0396464024      1.20E-08
   11     -78.0396464024      3.45E-09 Convergence criterion met
 ---------------------------------------
 SCF time:  CPU 2.13 s  wall 3.13 s
 SCF   energy in the final basis set = -78.03964640
 Total energy in the final basis set = -78.03964640
Exporting Density Matrix to file 'Densmat_SCF.txt'.
Export successful
================================================================================
|                                                                              |
|                                 A D C  M A N                                 |
|                                                                              |
 ------------------------------------------------------------------------------ 
|                                                                              |
| Components:                                                                  |
|                                                                              |
| - libvmm - 1.3-trunk                                                         |
|   Authors:                                                                   |
|   Evgeny Epifanovsky, Ilya Kaliman                                           |
|                                                                              |
| - libtensor - 2.5-trunk                                                      |
|   Authors:                                                                   |
|   Evgeny Epifanovsky, Michael Wormit, Dmitry Zuev, Sam Manzer,               |
|   Ilya Kaliman                                                               |
|                                                                              |
| - libwfa - 1.1-trunk                                                         |
|   Authors:                                                                   |
|   Felix Plasser, Stefanie Mewes (Baeppler), Benjamin Thomitzni,              |
|   Michael Wormit, Feng Chen, Anna I. Krylov, Pavel Pokhilko                  |
|                                                                              |
| - libadc - 1.1-trunk                                                         |
|   Authors:                                                                   |
|   Michael Wormit, Adrian L. Dempwolff, Philipp H. P. Harbach,                |
|   Caroline Krauter, Dirk Rehn, Matthias Schneider, Jan Wenzel                |
|                                                                              |
| - adcman - 2.6-trunk                                                         |
|   Authors:                                                                   |
|   Michael Wormit, Adrian L. Dempwolff, Philipp H. P. Harbach,                |
|   Caroline Krauter, Daniel Lefrancois, Jan-Michael Mewes, Dirk Rehn,         |
|   Matthias Schneider, Jan Wenzel, Andreas Dreuw                              |
|                                                                              |
| Authors of earlier versions of ADCMAN:                                       |
| Andreas Dreuw, Jan Hendrik Starcke, Dirk Rehn, Michael Wormit                |
|                                                                              |
================================================================================

 Created directory /scratch/fum/qchem53247/plots
  Import QC data ...  CPU 0.00 s  wall 0.00 s

 Alpha MOs, Restricted
 -- Occupied --                  
-11.239 -11.237  -1.030  -0.786  -0.635  -0.582  -0.500  -0.374
  1 A     2 A     3 A     4 A     5 A     6 A     7 A     8 A                  
 -- Virtual --                   
  0.168   0.203   0.231   0.236   0.303   0.463   0.580   0.609
  9 A    10 A    11 A    12 A    13 A    14 A    15 A    16 A                  
  0.689   0.705   0.776   0.807   0.858   0.928   0.971   1.006
 17 A    18 A    19 A    20 A    21 A    22 A    23 A    24 A                  
  1.130   1.237   1.241   1.263   1.291   1.593   1.728   1.744
 25 A    26 A    27 A    28 A    29 A    30 A    31 A    32 A                  
  1.811   1.852   1.854   1.901   1.963   1.972   2.224   2.248
 33 A    34 A    35 A    36 A    37 A    38 A    39 A    40 A                  
  2.356   2.423   2.493   2.623   2.679   2.795   3.099   3.369
 41 A    42 A    43 A    44 A    45 A    46 A    47 A    48 A                  

 Beta MOs, Restricted
 -- Occupied --                  
-11.239 -11.237  -1.030  -0.786  -0.635  -0.582  -0.500  -0.374
  1 A     2 A     3 A     4 A     5 A     6 A     7 A     8 A                  
 -- Virtual --                   
  0.168   0.203   0.231   0.236   0.303   0.463   0.580   0.609
  9 A    10 A    11 A    12 A    13 A    14 A    15 A    16 A                  
  0.689   0.705   0.776   0.807   0.858   0.928   0.971   1.006
 17 A    18 A    19 A    20 A    21 A    22 A    23 A    24 A                  
  1.130   1.237   1.241   1.263   1.291   1.593   1.728   1.744
 25 A    26 A    27 A    28 A    29 A    30 A    31 A    32 A                  
  1.811   1.852   1.854   1.901   1.963   1.972   2.224   2.248
 33 A    34 A    35 A    36 A    37 A    38 A    39 A    40 A                  
  2.356   2.423   2.493   2.623   2.679   2.795   3.099   3.369
 41 A    42 A    43 A    44 A    45 A    46 A    47 A    48 A                  
  Import AO data ...  CPU 0.00 s  wall 0.00 s
  Using point group: C1
  Irreducible representations in point group: A
  Molecular orbitals: 
  Occupied MOs:
  Block   0:   1 (  A) A   2 (  A) A   3 (  A) A   4 (  A) A   5 (  A) A
                  -11.24      -11.24       -1.03     -0.7859      -0.635
               6 (  A) A   7 (  A) A   8 (  A) A
                 -0.5823     -0.4995     -0.3744
  Block   1:   1 (  A) B   2 (  A) B   3 (  A) B   4 (  A) B   5 (  A) B
                  -11.24      -11.24       -1.03     -0.7859      -0.635
               6 (  A) B   7 (  A) B   8 (  A) B
                 -0.5823     -0.4995     -0.3744
  Virtual MOs:
  Block   0:   9 (  A) A  10 (  A) A  11 (  A) A  12 (  A) A  13 (  A) A
                  0.1679      0.2026       0.231      0.2364       0.303
              14 (  A) A  15 (  A) A  16 (  A) A  17 (  A) A  18 (  A) A
                  0.4628      0.5798      0.6089      0.6887      0.7048
              19 (  A) A  20 (  A) A  21 (  A) A  22 (  A) A
                  0.7757      0.8074      0.8584       0.928
  Block   1:  23 (  A) A  24 (  A) A  25 (  A) A  26 (  A) A  27 (  A) A
                  0.9706       1.006        1.13       1.237       1.241
              28 (  A) A  29 (  A) A  30 (  A) A  31 (  A) A  32 (  A) A
                   1.263       1.291       1.593       1.728       1.744
              33 (  A) A  34 (  A) A  35 (  A) A  36 (  A) A
                   1.811       1.852       1.854       1.901
  Block   2:  37 (  A) A  38 (  A) A  39 (  A) A  40 (  A) A  41 (  A) A
                   1.963       1.972       2.224       2.248       2.356
              42 (  A) A  43 (  A) A  44 (  A) A  45 (  A) A  46 (  A) A
                   2.423       2.493       2.623       2.679       2.795
              47 (  A) A  48 (  A) A
                   3.099       3.369
  Block   3:   9 (  A) B  10 (  A) B  11 (  A) B  12 (  A) B  13 (  A) B
                  0.1679      0.2026       0.231      0.2364       0.303
              14 (  A) B  15 (  A) B  16 (  A) B  17 (  A) B  18 (  A) B
                  0.4628      0.5798      0.6089      0.6887      0.7048
              19 (  A) B  20 (  A) B  21 (  A) B  22 (  A) B
                  0.7757      0.8074      0.8584       0.928
  Block   4:  23 (  A) B  24 (  A) B  25 (  A) B  26 (  A) B  27 (  A) B
                  0.9706       1.006        1.13       1.237       1.241
              28 (  A) B  29 (  A) B  30 (  A) B  31 (  A) B  32 (  A) B
                   1.263       1.291       1.593       1.728       1.744
              33 (  A) B  34 (  A) B  35 (  A) B  36 (  A) B
                   1.811       1.852       1.854       1.901
  Block   5:  37 (  A) B  38 (  A) B  39 (  A) B  40 (  A) B  41 (  A) B
                   1.963       1.972       2.224       2.248       2.356
              42 (  A) B  43 (  A) B  44 (  A) B  45 (  A) B  46 (  A) B
                   2.423       2.493       2.623       2.679       2.795
              47 (  A) B  48 (  A) B
                   3.099       3.369
  Import MO data ...  CPU 0.19 s  wall 0.23 s
  Import HF data ...  CPU 0.73 s  wall 0.38 s
  Import 2e integrals ...  CPU 1.08 s  wall 0.32 s

--------------------------------------------------------------------------------
                                   HF Summary                                   
--------------------------------------------------------------------------------
  Energy:                                                  -78.0396464024 a.u.
  Dip. moment [a.u.]:                  [  -0.000328,   -0.000383,   -0.000311]
  Total dipole [Debye]:                                               0.001507
  <r^2> [a.u.]:                        [ 176.124316,   35.260376,   11.681089]
  Total <r^2> [a.u.]:                                               223.065782
--------------------------------------------------------------------------------
  HF properties ...  CPU 0.04 s  wall 0.05 s
  MP(1) calculation ...  CPU 0.02 s  wall 0.05 s
  N^6 prerequesite intermediates ...  CPU 0.78 s  wall 0.28 s
  Difference density matrix of state mp2_gs printed to ASCII file 'State_mp2_gs_Difference.txt'
Exporting MP density matrix to file 'Densmat_MP.txt'.
Export successful
  Total density matrix of state mp2_gs printed to ASCII file 'State_mp2_gs_Total.txt'
Exporting MP density matrix to file 'Densmat_MP.txt'.
Export successful

--------------------------------------------------------------------------------
                                 MP(2) Summary                                  
--------------------------------------------------------------------------------
  MP energy contribution:                                   -0.2804887762 a.u.
  Total energy:                                            -78.3201351786 a.u.
  Dip. moment [a.u.]:                  [  -0.000257,   -0.000288,   -0.000299]
  Total dipole [Debye]:                                               0.001241
  <r^2> [a.u.]:                        [ 176.165690,   35.295474,   11.508675]
  Total <r^2> [a.u.]:                                               222.969839

  Density matrix analysis:
  ------------------------
  NOs
    Occupation of frontier NOs:
       0.0455   1.9380
    Number of electrons: 16.000000
    Number of unpaired electrons: n_u =  0.40725, n_u,nl =  0.04580
    NO participation ratio (PR_NO): 13.896555
  
  
  Mulliken Population Analysis
  Atom      Charge (e)              h+              e-           Del q
  --------------------------------------------------------------------
   1 H        0.055132        0.013896       -0.011314        0.002582
   2 C       -0.110541        0.094632       -0.099825       -0.005194
   3 H        0.054926        0.013915       -0.011309        0.002606
   4 C       -0.109343        0.094557       -0.099755       -0.005198
   5 H        0.055147        0.013901       -0.011307        0.002594
   6 H        0.054679        0.013916       -0.011307        0.002609
  --------------------------------------------------------------------
  Sum:        0.000000        0.244816       -0.244816       -0.000000
  
  Multipole moment analysis of the density matrix
    Molecular charge:                      0.000000
    Number of electrons:                   16.000000
      Center of electronic charge [Ang]: [ -1.562809,  -0.065593,   0.002352]
    Total nuclear charge:                  16.000000
      Center of nuclear charge [Ang]:    [ -1.562818,  -0.065603,   0.002342]
    Dipole moment [D]:                     0.001241
      Cartesian components [D]:          [ -0.000654,  -0.000732,  -0.000759]
    RMS size of the density [Ang]:         1.206519
      Cartesian components [Ang]:        [  0.800525,   0.783219,   0.448795]
  
  Exciton analysis of the difference density matrix
    <r_h> [Ang]:                  [ -1.562464,  -0.065490,   0.002418]
    <r_e> [Ang]:                  [ -1.562616,  -0.065696,   0.002390]
    |<r_e - r_h>| [Ang]:            0.000258
    Hole size [Ang]:                1.401656
      Cartesian components [Ang]: [  0.853032,   0.840216,   0.728707]
    Electron size [Ang]:            1.361761
      Cartesian components [Ang]: [  0.880063,   0.863760,   0.577756]
--------------------------------------------------------------------------------
  MP(2) calculation ...  CPU 0.38 s  wall 0.25 s
  Start ADC(2)-s ...  CPU 0.02 s  wall 0.03 s
  ADC(2) intermediates ...  CPU 0.04 s  wall 0.02 s
  Starting Davidson for singlet states of irrep A ... 
--------------------------------------------------------------------------------
   It NVec Conv  Avg. Norm  Max. Norm  Conv. states           Remark
--------------------------------------------------------------------------------
        10    0  1.329e-01  4.687e-01  0.4117 n n n n n n n n Guess.
    1   20    0  2.313e-02  1.125e-01  0.3261 n n n n n n n n 
    2   30    0  5.862e-03  2.486e-02  0.3213 n n n n n n n n 
    3   40    0  1.876e-03  1.102e-02  0.3209 n n n n n n n n 
    4   50    0  5.618e-04  3.572e-03  0.3209 n n n n n n n n 
    5   20    0  2.728e-04  1.900e-03  0.3209 n n n n n n n n Subspace collapsed.
    6   30    0  1.322e-04  1.005e-03  0.3209 n n n n n n n n 
    7   40    0  9.065e-05  7.530e-04  0.3209 n n n n n n n n 
    8   50    0  6.326e-05  5.220e-04  0.3209 n n n n n n n n 
    9   20    0  3.351e-05  2.740e-04  0.3209 n n n n n n n n Subspace collapsed.
   10   30    4  2.837e-05  2.128e-04  0.3209 n y y y y n n n 
   11   40    6  2.283e-05  2.103e-04  0.3209 y y y y y y n n 
   12   50    6  2.718e-05  2.674e-04  0.3209 y y y y y y n n 
   13   20    6  1.218e-05  1.195e-04  0.3209 y y y y y y n n Subspace collapsed.
   14   30    6  1.086e-05  1.066e-04  0.3209 y y y y y y n n 
   15   40    6  8.217e-06  8.089e-05  0.3209 y y y y y y n n 
   16   50    6  1.223e-05  1.217e-04  0.3209 y y y y y y n n 
   17   20    6  5.054e-06  5.026e-05  0.3209 y y y y y y n n Subspace collapsed.
   18   30    6  5.281e-06  5.257e-05  0.3209 y y y y y y n n 
   19   40    7  4.288e-06  4.274e-05  0.3209 y y y y y y y n 
   20   50    8  5.990e-06  5.978e-05  0.3209 y y y y y y y y 
   21   20    8  2.771e-06  2.765e-05  0.3209 y y y y y y y y Subspace collapsed.
   22   30    8  3.138e-06  3.132e-05  0.3209 y y y y y y y y 
   23   32    8  3.168e-06  3.162e-05  0.3209 y y y y y y y y 
   24   41    8  2.256e-06  2.253e-05  0.3209 y y y y y y y y 
   25   48    8  3.490e-06  3.487e-05  0.3209 y y y y y y y y 
   26   50    8  3.457e-06  3.453e-05  0.3209 y y y y y y y y 
   27   15    9  1.454e-06  1.453e-05  0.3209 y y y y y y y y Subspace collapsed.
   28   20    9  1.753e-06  1.752e-05  0.3209 y y y y y y y y 
   29   25    9  1.129e-06  1.128e-05  0.3209 y y y y y y y y 
   30   30    9  1.807e-06  1.806e-05  0.3209 y y y y y y y y 
   31   30    9  1.807e-06  1.806e-05  0.3209 y y y y y y y y 
   32   40    9  1.740e-06  1.740e-05  0.3209 y y y y y y y y 
   33   44    9  1.027e-06  1.027e-05  0.3209 y y y y y y y y 
   34   48    9  4.767e-07  4.766e-06  0.3209 y y y y y y y y 
   35   50    9  2.917e-07  2.917e-06  0.3209 y y y y y y y y 
   36   14    9  1.786e-07  1.786e-06  0.3209 y y y y y y y y Subspace collapsed.
   37   18    9  1.507e-07  1.506e-06  0.3209 y y y y y y y y 
   38   22   10  8.911e-08  8.910e-07  0.3209 y y y y y y y y Converged.
--------------------------------------------------------------------------------
  Davidson Summary: 
 ------------------------------------------------------------
  State  0: excitation energy =   0.3209 a.u.   (converged)
  State  1: excitation energy =   0.3290 a.u.   (converged)
  State  2: excitation energy =   0.3359 a.u.   (converged)
  State  3: excitation energy =   0.3579 a.u.   (converged)
  State  4: excitation energy =   0.3733 a.u.   (converged)
  State  5: excitation energy =   0.3866 a.u.   (converged)
  State  6: excitation energy =   0.4202 a.u.   (converged)
  State  7: excitation energy =   0.4435 a.u.   (converged)
  State  8: excitation energy =   0.4537 a.u.   (converged)
  State  9: excitation energy =   0.4585 a.u.   (converged)
 ------------------------------------------------------------

  Singlet states of irrep A ...  CPU 233.83 s  wall 74.66 s
  TDMs ...  CPU 2.24 s  wall 0.82 s
  SDMs ...  CPU 5.03 s  wall 1.61 s
  Starting TPA DIIS iterations ... 
------------------------------------ 
   It     Res. Norm  Remark
------------------------------------
                       Guess.
    1     4.407e+00  
    2     5.847e+00  
    3     1.087e+00  
    4     2.627e-01  
    5     6.569e-02  
    6     2.770e-02  
    7     8.471e-03  
    8     1.544e-03  
    9     5.805e-04  
   10     9.745e-05  
   11     3.136e-05  
   12     4.865e-06  
   13     1.639e-06  
   14     4.792e-07  Converged.
   ... Converged in 14 steps (norm: 4.79158e-07)
------------------------------------
  Starting TPA DIIS iterations ... 
------------------------------------ 
   It     Res. Norm  Remark
------------------------------------
                       Guess.
    1     4.177e+00  
    2     5.532e+00  
    3     1.036e+00  
    4     2.621e-01  
    5     6.546e-02  
    6     2.785e-02  
    7     8.339e-03  
    8     1.578e-03  
    9     5.940e-04  
   10     9.762e-05  
   11     3.201e-05  
   12     4.865e-06  
   13     1.680e-06  
   14     4.756e-07  Converged.
   ... Converged in 14 steps (norm: 4.75556e-07)
------------------------------------
  Starting TPA DIIS iterations ... 
------------------------------------ 
   It     Res. Norm  Remark
------------------------------------
                       Guess.
    1     6.858e-01  
    2     4.801e-01  
    3     1.689e-01  
    4     6.804e-02  
    5     1.860e-02  
    6     6.613e-03  
    7     1.074e-03  
    8     4.587e-04  
    9     1.270e-04  
   10     3.038e-05  
   11     5.652e-06  
   12     1.904e-06  
   13     1.126e-06  
   14     4.230e-07  Converged.
   ... Converged in 14 steps (norm: 4.23011e-07)
------------------------------------
  Starting TPA DIIS iterations ... 
------------------------------------ 
   It     Res. Norm  Remark
------------------------------------
                       Guess.
    1     4.604e+00  
    2     6.199e+00  
    3     1.142e+00  
    4     2.826e-01  
    5     7.136e-02  
    6     3.029e-02  
    7     9.252e-03  
    8     1.684e-03  
    9     6.367e-04  
   10     1.073e-04  
   11     3.477e-05  
   12     5.427e-06  
   13     1.838e-06  
   14     5.359e-07  Converged.
   ... Converged in 14 steps (norm: 5.35858e-07)
------------------------------------
  Starting TPA DIIS iterations ... 
------------------------------------ 
   It     Res. Norm  Remark
------------------------------------
                       Guess.
    1     4.362e+00  
    2     5.865e+00  
    3     1.089e+00  
    4     2.817e-01  
    5     7.111e-02  
    6     3.047e-02  
    7     9.109e-03  
    8     1.724e-03  
    9     6.518e-04  
   10     1.075e-04  
   11     3.548e-05  
   12     5.424e-06  
   13     1.884e-06  
   14     5.315e-07  Converged.
   ... Converged in 14 steps (norm: 5.31493e-07)
------------------------------------
  Starting TPA DIIS iterations ... 
------------------------------------ 
   It     Res. Norm  Remark
------------------------------------
                       Guess.
    1     6.942e-01  
    2     4.920e-01  
    3     1.756e-01  
    4     7.420e-02  
    5     1.955e-02  
    6     7.036e-03  
    7     1.167e-03  
    8     5.139e-04  
    9     1.446e-04  
   10     3.357e-05  
   11     6.194e-06  
   12     2.133e-06  
   13     1.312e-06  
   14     4.905e-07  Converged.
   ... Converged in 14 steps (norm: 4.90478e-07)
------------------------------------
  Starting TPA DIIS iterations ... 
------------------------------------ 
   It     Res. Norm  Remark
------------------------------------
                       Guess.
    1     4.784e+00  
    2     6.526e+00  
    3     1.194e+00  
    4     3.014e-01  
    5     7.672e-02  
    6     3.275e-02  
    7     9.990e-03  
    8     1.818e-03  
    9     6.902e-04  
   10     1.167e-04  
   11     3.804e-05  
   12     5.967e-06  
   13     2.030e-06  
   14     5.904e-07  Converged.
   ... Converged in 14 steps (norm: 5.90432e-07)
------------------------------------
  Starting TPA DIIS iterations ... 
------------------------------------ 
   It     Res. Norm  Remark
------------------------------------
                       Guess.
    1     4.532e+00  
    2     6.174e+00  
    3     1.137e+00  
    4     3.003e-01  
    5     7.646e-02  
    6     3.296e-02  
    7     9.838e-03  
    8     1.862e-03  
    9     7.067e-04  
   10     1.170e-04  
   11     3.881e-05  
   12     5.961e-06  
   13     2.082e-06  
   14     5.853e-07  Converged.
   ... Converged in 14 steps (norm: 5.85338e-07)
------------------------------------
  Starting TPA DIIS iterations ... 
------------------------------------ 
   It     Res. Norm  Remark
------------------------------------
                       Guess.
    1     7.015e-01  
    2     5.026e-01  
    3     1.817e-01  
    4     8.008e-02  
    5     2.043e-02  
    6     7.434e-03  
    7     1.255e-03  
    8     5.680e-04  
    9     1.619e-04  
   10     3.618e-05  
   11     6.706e-06  
   12     2.357e-06  
   13     1.499e-06  
   14     5.586e-07  Converged.
   ... Converged in 14 steps (norm: 5.58609e-07)
------------------------------------
  Starting TPA DIIS iterations ... 
------------------------------------ 
   It     Res. Norm  Remark
------------------------------------
                       Guess.
    1     5.436e+00  
    2     7.739e+00  
    3     1.378e+00  
    4     3.734e-01  
    5     9.724e-02  
    6     4.228e-02  
    7     1.282e-02  
    8     2.326e-03  
    9     8.967e-04  
   10     1.531e-04  
   11     5.095e-05  
   12     8.102e-06  
   13     2.807e-06  
   14     8.074e-07  Converged.
   ... Converged in 14 steps (norm: 8.07424e-07)
------------------------------------
  Starting TPA DIIS iterations ... 
------------------------------------ 
   It     Res. Norm  Remark
------------------------------------
                       Guess.
    1     5.147e+00  
    2     7.320e+00  
    3     1.312e+00  
    4     3.714e-01  
    5     9.693e-02  
    6     4.261e-02  
    7     1.263e-02  
    8     2.389e-03  
    9     9.191e-04  
   10     1.535e-04  
   11     5.190e-05  
   12     8.080e-06  
   13     2.879e-06  
   14     7.997e-07  Converged.
   ... Converged in 14 steps (norm: 7.99651e-07)
------------------------------------
  Starting TPA DIIS iterations ... 
------------------------------------ 
   It     Res. Norm  Remark
------------------------------------
                       Guess.
    1     7.256e-01  
    2     5.392e-01  
    3     2.030e-01  
    4     1.031e-01  
    5     2.359e-02  
    6     8.957e-03  
    7     1.607e-03  
    8     7.853e-04  
    9     2.301e-04  
   10     4.267e-05  
   11     8.691e-06  
   12     3.255e-06  
   13     2.308e-06  
   14     8.560e-07  Converged.
   ... Converged in 14 steps (norm: 8.55955e-07)
------------------------------------
  Starting TPA DIIS iterations ... 
------------------------------------ 
   It     Res. Norm  Remark
------------------------------------
                       Guess.
    1     5.987e+00  
    2     8.799e+00  
    3     1.533e+00  
    4     4.389e-01  
    5     1.159e-01  
    6     5.105e-02  
    7     1.540e-02  
    8     2.788e-03  
    9     1.087e-03  
   10     1.867e-04  
   11     6.308e-05  
   12     1.011e-05  
   13     3.555e-06  
   14     1.015e-06  
   15     3.368e-07  Converged.
   ... Converged in 15 steps (norm: 3.36793e-07)
------------------------------------
  Starting TPA DIIS iterations ... 
------------------------------------ 
   It     Res. Norm  Remark
------------------------------------
                       Guess.
    1     5.668e+00  
    2     8.322e+00  
    3     1.459e+00  
    4     4.359e-01  
    5     1.155e-01  
    6     5.151e-02  
    7     1.518e-02  
    8     2.867e-03  
    9     1.114e-03  
   10     1.872e-04  
   11     6.416e-05  
   12     1.007e-05  
   13     3.645e-06  
   14     1.006e-06  
   15     3.301e-07  Converged.
   ... Converged in 15 steps (norm: 3.30128e-07)
------------------------------------
  Starting TPA DIIS iterations ... 
------------------------------------ 
   It     Res. Norm  Remark
------------------------------------
                       Guess.
    1     7.437e-01  
    2     5.680e-01  
    3     2.205e-01  
    4     1.244e-01  
    5     2.633e-02  
    6     1.035e-02  
    7     1.945e-03  
    8     9.838e-04  
    9     2.908e-04  
   10     4.526e-05  
   11     1.056e-05  
   12     4.109e-06  
   13     3.142e-06  
   14     1.173e-06  
   15     4.028e-07  Converged.
   ... Converged in 15 steps (norm: 4.02834e-07)
------------------------------------
  Starting TPA DIIS iterations ... 
------------------------------------ 
   It     Res. Norm  Remark
------------------------------------
                       Guess.
    1     6.540e+00  
    2     9.891e+00  
    3     1.686e+00  
    4     5.084e-01  
    5     1.356e-01  
    6     6.045e-02  
    7     1.813e-02  
    8     3.277e-03  
    9     1.290e-03  
   10     2.226e-04  
   11     7.618e-05  
   12     1.228e-05  
   13     4.376e-06  
   14     1.247e-06  
   15     4.190e-07  Converged.
   ... Converged in 15 steps (norm: 4.1896e-07)
------------------------------------
  Starting TPA DIIS iterations ... 
------------------------------------ 
   It     Res. Norm  Remark
------------------------------------
                       Guess.
    1     6.190e+00  
    2     9.355e+00  
    3     1.605e+00  
    4     5.043e-01  
    5     1.353e-01  
    6     6.106e-02  
    7     1.788e-02  
    8     3.374e-03  
    9     1.324e-03  
   10     2.232e-04  
   11     7.737e-05  
   12     1.221e-05  
   13     4.482e-06  
   14     1.236e-06  
   15     4.087e-07  Converged.
   ... Converged in 15 steps (norm: 4.08668e-07)
------------------------------------
  Starting TPA DIIS iterations ... 
------------------------------------ 
   It     Res. Norm  Remark
------------------------------------
                       Guess.
    1     7.600e-01  
    2     5.955e-01  
    3     2.375e-01  
    4     1.471e-01  
    5     2.916e-02  
    6     1.182e-02  
    7     2.318e-03  
    8     1.182e-03  
    9     3.512e-04  
   10     4.671e-05  
   11     1.264e-05  
   12     5.033e-06  
   13     4.095e-06  
   14     1.553e-06  
   15     5.446e-07  Converged.
   ... Converged in 15 steps (norm: 5.44589e-07)
------------------------------------
  Starting TPA DIIS iterations ... 
------------------------------------ 
   It     Res. Norm  Remark
------------------------------------
                       Guess.
    1     8.365e+00  
    2     1.369e+01  
    3     2.187e+00  
    4     7.612e-01  
    5     2.076e-01  
    6     9.537e-02  
    7     2.811e-02  
    8     5.049e-03  
    9     2.042e-03  
   10     3.555e-04  
   11     1.243e-04  
   12     2.036e-05  
   13     7.422e-06  
   14     2.192e-06  
   15     7.391e-07  Converged.
   ... Converged in 15 steps (norm: 7.39103e-07)
------------------------------------
  Starting TPA DIIS iterations ... 
------------------------------------ 
   It     Res. Norm  Remark
------------------------------------
                       Guess.
    1     7.913e+00  
    2     1.295e+01  
    3     2.080e+00  
    4     7.522e-01  
    5     2.071e-01  
    6     9.657e-02  
    7     2.774e-02  
    8     5.218e-03  
    9     2.097e-03  
   10     3.563e-04  
   11     1.256e-04  
   12     2.018e-05  
   13     7.557e-06  
   14     2.175e-06  
   15     7.089e-07  Converged.
   ... Converged in 15 steps (norm: 7.08892e-07)
------------------------------------
  Starting TPA DIIS iterations ... 
------------------------------------ 
   It     Res. Norm  Remark
------------------------------------
                       Guess.
    1     8.048e-01  
    2     6.777e-01  
    3     2.908e-01  
    4     2.276e-01  
    5     3.912e-02  
    6     1.718e-02  
    7     3.781e-03  
    8     1.723e-03  
    9     5.368e-04  
   10     5.544e-05  
   11     2.102e-05  
   12     8.394e-06  
   13     7.766e-06  
   14     3.269e-06  
   15     1.405e-06  
   16     8.297e-07  Converged.
   ... Converged in 16 steps (norm: 8.29711e-07)
------------------------------------
  Starting TPA DIIS iterations ... 
------------------------------------ 
   It     Res. Norm  Remark
------------------------------------
                       Guess.
    1     1.017e+01  
    2     1.771e+01  
    3     2.670e+00  
    4     1.039e+00  
    5     2.872e-01  
    6     1.349e-01  
    7     3.915e-02  
    8     7.001e-03  
    9     2.890e-03  
   10     5.042e-04  
   11     1.758e-04  
   12     2.957e-05  
   13     1.070e-05  
   14     3.399e-06  
   15     1.171e-06  
   16     2.575e-07  Converged.
   ... Converged in 16 steps (norm: 2.57457e-07)
------------------------------------
  Starting TPA DIIS iterations ... 
------------------------------------ 
   It     Res. Norm  Remark
------------------------------------
                       Guess.
    1     9.616e+00  
    2     1.674e+01  
    3     2.537e+00  
    4     1.023e+00  
    5     2.866e-01  
    6     1.369e-01  
    7     3.866e-02  
    8     7.254e-03  
    9     2.968e-03  
   10     5.052e-04  
   11     1.773e-04  
   12     2.931e-05  
   13     1.085e-05  
   14     3.362e-06  
   15     1.117e-06  
   16     2.511e-07  Converged.
   ... Converged in 16 steps (norm: 2.51089e-07)
------------------------------------
  Starting TPA DIIS iterations ... 
------------------------------------ 
   It     Res. Norm  Remark
------------------------------------
                       Guess.
    1     8.398e-01  
    2     7.500e-01  
    3     3.399e-01  
    4     3.071e-01  
    5     4.971e-02  
    6     2.288e-02  
    7     5.488e-03  
    8     2.022e-03  
    9     7.010e-04  
   10     7.441e-05  
   11     3.142e-05  
   12     1.204e-05  
   13     1.166e-05  
   14     5.653e-06  
   15     2.992e-06  
   16     1.606e-06  
   17     8.343e-07  Converged.
   ... Converged in 17 steps (norm: 8.34297e-07)
------------------------------------
  Starting TPA DIIS iterations ... 
------------------------------------ 
   It     Res. Norm  Remark
------------------------------------
                       Guess.
    1     1.116e+01  
    2     2.002e+01  
    3     2.931e+00  
    4     1.200e+00  
    5     3.341e-01  
    6     1.586e-01  
    7     4.566e-02  
    8     8.149e-03  
    9     3.395e-03  
   10     5.923e-04  
   11     2.051e-04  
   12     3.521e-05  
   13     1.265e-05  
   14     4.168e-06  
   15     1.506e-06  
   16     3.318e-07  Converged.
   ... Converged in 16 steps (norm: 3.31753e-07)
------------------------------------
  Starting TPA DIIS iterations ... 
------------------------------------ 
   It     Res. Norm  Remark
------------------------------------
                       Guess.
    1     1.056e+01  
    2     1.893e+01  
    3     2.785e+00  
    4     1.181e+00  
    5     3.335e-01  
    6     1.610e-01  
    7     4.511e-02  
    8     8.453e-03  
    9     3.486e-03  
   10     5.933e-04  
   11     2.067e-04  
   12     3.492e-05  
   13     1.281e-05  
   14     4.110e-06  
   15     1.441e-06  
   16     3.173e-07  Converged.
   ... Converged in 16 steps (norm: 3.17296e-07)
------------------------------------
  Starting TPA DIIS iterations ... 
------------------------------------ 
   It     Res. Norm  Remark
------------------------------------
                       Guess.
    1     8.563e-01  
    2     7.871e-01  
    3     3.657e-01  
    4     3.479e-01  
    5     5.577e-02  
    6     2.604e-02  
    7     6.502e-03  
    8     2.110e-03  
    9     7.862e-04  
   10     8.730e-05  
   11     3.795e-05  
   12     1.423e-05  
   13     1.390e-05  
   14     7.224e-06  
   15     4.169e-06  
   16     2.167e-06  
   17     1.196e-06  
   18     3.533e-07  Converged.
   ... Converged in 18 steps (norm: 3.53285e-07)
------------------------------------
  Starting TPA DIIS iterations ... 
------------------------------------ 
   It     Res. Norm  Remark
------------------------------------
                       Guess.
    1     1.168e+01  
    2     2.125e+01  
    3     3.066e+00  
    4     1.287e+00  
    5     3.593e-01  
    6     1.714e-01  
    7     4.916e-02  
    8     8.765e-03  
    9     3.667e-03  
   10     6.396e-04  
   11     2.206e-04  
   12     3.831e-05  
   13     1.373e-05  
   14     4.595e-06  
   15     1.717e-06  
   16     3.774e-07  Converged.
   ... Converged in 16 steps (norm: 3.77384e-07)
------------------------------------
  Starting TPA DIIS iterations ... 
------------------------------------ 
   It     Res. Norm  Remark
------------------------------------
                       Guess.
    1     1.104e+01  
    2     2.009e+01  
    3     2.912e+00  
    4     1.265e+00  
    5     3.586e-01  
    6     1.740e-01  
    7     4.857e-02  
    8     9.095e-03  
    9     3.766e-03  
   10     6.406e-04  
   11     2.223e-04  
   12     3.801e-05  
   13     1.389e-05  
   14     4.523e-06  
   15     1.643e-06  
   16     3.544e-07  Converged.
   ... Converged in 16 steps (norm: 3.54383e-07)
------------------------------------
  Starting TPA DIIS iterations ... 
------------------------------------ 
   It     Res. Norm  Remark
------------------------------------
                       Guess.
    1     8.644e-01  
    2     8.058e-01  
    3     3.788e-01  
    4     3.678e-01  
    5     5.897e-02  
    6     2.767e-02  
    7     7.044e-03  
    8     2.143e-03  
    9     8.294e-04  
   10     9.433e-05  
   11     4.155e-05  
   12     1.545e-05  
   13     1.513e-05  
   14     8.101e-06  
   15     4.859e-06  
   16     2.493e-06  
   17     1.402e-06  
   18     3.938e-07  Converged.
   ... Converged in 18 steps (norm: 3.93752e-07)
------------------------------------
  Two-photon absorbption ...  CPU 162.70 s  wall 44.89 s
  Transition density matrix of state singlet_A_1 printed to ASCII file 'State_singlet_A_1_Transition.txt'
  Transition density matrix of state singlet_A_2 printed to ASCII file 'State_singlet_A_2_Transition.txt'
  Transition density matrix of state singlet_A_3 printed to ASCII file 'State_singlet_A_3_Transition.txt'
  Transition density matrix of state singlet_A_4 printed to ASCII file 'State_singlet_A_4_Transition.txt'
  Transition density matrix of state singlet_A_5 printed to ASCII file 'State_singlet_A_5_Transition.txt'
  Transition density matrix of state singlet_A_6 printed to ASCII file 'State_singlet_A_6_Transition.txt'
  Transition density matrix of state singlet_A_7 printed to ASCII file 'State_singlet_A_7_Transition.txt'
  Transition density matrix of state singlet_A_8 printed to ASCII file 'State_singlet_A_8_Transition.txt'
  Transition density matrix of state singlet_A_9 printed to ASCII file 'State_singlet_A_9_Transition.txt'
  Transition density matrix of state singlet_A_10 printed to ASCII file 'State_singlet_A_10_Transition.txt'
  Transition properties ...  CPU 0.35 s  wall 0.60 s
  Difference density matrix of state singlet_A_1 printed to ASCII file 'State_singlet_A_1_Difference.txt'
  Total density matrix of state singlet_A_1 printed to ASCII file 'State_singlet_A_1_Total.txt'
  Difference density matrix of state singlet_A_2 printed to ASCII file 'State_singlet_A_2_Difference.txt'
  Total density matrix of state singlet_A_2 printed to ASCII file 'State_singlet_A_2_Total.txt'
  Difference density matrix of state singlet_A_3 printed to ASCII file 'State_singlet_A_3_Difference.txt'
  Total density matrix of state singlet_A_3 printed to ASCII file 'State_singlet_A_3_Total.txt'
  Difference density matrix of state singlet_A_4 printed to ASCII file 'State_singlet_A_4_Difference.txt'
  Total density matrix of state singlet_A_4 printed to ASCII file 'State_singlet_A_4_Total.txt'
  Difference density matrix of state singlet_A_5 printed to ASCII file 'State_singlet_A_5_Difference.txt'
  Total density matrix of state singlet_A_5 printed to ASCII file 'State_singlet_A_5_Total.txt'
  Difference density matrix of state singlet_A_6 printed to ASCII file 'State_singlet_A_6_Difference.txt'
  Total density matrix of state singlet_A_6 printed to ASCII file 'State_singlet_A_6_Total.txt'
  Difference density matrix of state singlet_A_7 printed to ASCII file 'State_singlet_A_7_Difference.txt'
  Total density matrix of state singlet_A_7 printed to ASCII file 'State_singlet_A_7_Total.txt'
  Difference density matrix of state singlet_A_8 printed to ASCII file 'State_singlet_A_8_Difference.txt'
  Total density matrix of state singlet_A_8 printed to ASCII file 'State_singlet_A_8_Total.txt'
  Difference density matrix of state singlet_A_9 printed to ASCII file 'State_singlet_A_9_Difference.txt'
  Total density matrix of state singlet_A_9 printed to ASCII file 'State_singlet_A_9_Total.txt'
  Difference density matrix of state singlet_A_10 printed to ASCII file 'State_singlet_A_10_Difference.txt'
  Total density matrix of state singlet_A_10 printed to ASCII file 'State_singlet_A_10_Total.txt'
  Properties ...  CPU 0.66 s  wall 1.14 s
  ISR TDMS ...  CPU 31.30 s  wall 10.54 s
  ISR transition properties ...  CPU 0.63 s  wall 0.32 s
  Sum-over-states TPA ...  CPU 0.00 s  wall 0.00 s

--------------------------------------------------------------------------------
                   State-averaged natural transition orbitals
--------------------------------------------------------------------------------
--------------------------------------------------------------------------------
  SA-NTO decomposition ...  CPU 0.02 s  wall 0.08 s

--------------------------------------------------------------------------------
                             Excited State Summary
--------------------------------------------------------------------------------
--------------------------------------------------------------------------------

  Excited state 1 (singlet, A)                                     [converged]
  ----------------------------------------------------------------------------
  Term symbol:  2 (1) A                                     R^2 =  6.45129e-14

  Total energy:                                            -77.9992478329 a.u.
  Excitation energy:                                               8.731789 eV

  Osc. strength:                                                      0.446207
  Trans. dip. moment [a.u.]:           [  -1.048269,    0.993395,    0.010454]
  <i|r^2|0> [a.u.]:                    [  -6.189942,    0.244799,   -0.000104]
  Two-photon absorption cross-section (SoS) [a.u.]:                   0.000119
  Two-photon absorption matrix (SoS) [a.u.]:
                                       |    0.004200    0.001929    0.000064 |
                                       |    0.001929   -0.000817    0.000312 |
                                       |    0.000064    0.000312   -0.000895 |
  Two-photon absorption cross-section [a.u.]:                         0.000119
  Two-photon absorption matrix [a.u.]:
                                       |    0.002219    0.000856   -0.000044 |
                                       |    0.000856   -0.003997    0.000601 |
                                       |   -0.000044    0.000601   -0.001325 |

  Dip. moment [a.u.]:                  [  -0.000215,   -0.000190,   -0.000350]
  Total dipole [Debye]:                                               0.001149
  <r^2> [a.u.]:                        [ 176.915588,   35.978813,   11.919633]
  Total <r^2> [a.u.]:                                               224.814035

  V1^2 = 0.9713, V2^2 = 0.0287

  Important amplitudes:
      occ i     occ j     vir a      vir b          v   
    -----------------------------------------------------
     8 (A) A              9 (A) A                 0.6809
     6 (A) A             14 (A) A                -0.0617
     4 (A) A             10 (A) A                 0.0614
     7 (A) A             16 (A) A                 0.0575
     5 (A) A             13 (A) A                 0.0527
     6 (A) A             23 (A) A                -0.0485
     8 (A) A             20 (A) A                 0.0348
     6 (A) A             19 (A) A                -0.0302
     3 (A) A             12 (A) A                -0.0285
     5 (A) A             22 (A) A                 0.0218
     4 (A) A             24 (A) A                 0.0188
     3 (A) A             26 (A) A                -0.0187
     7 (A) A             11 (A) A                 0.0186
     8 (A) A   8 (A) B   17 (A) A   20 (A) B     -0.0184
     8 (A) A   8 (A) B    9 (A) A   28 (A) B      0.0168
     6 (A) A             26 (A) A                 0.0163
     7 (A) A             21 (A) A                -0.0152
     3 (A) A             14 (A) A                 0.0143
     6 (A) A             12 (A) A                -0.0136
     3 (A) A   4 (A) B    9 (A) A    9 (A) B     -0.0129
     3 (A) A             19 (A) A                 0.0121
     8 (A) A   8 (A) B   18 (A) A   19 (A) B     -0.0111
     7 (A) A             32 (A) A                -0.0097
     7 (A) A             36 (A) A                 0.0086
     3 (A) A             23 (A) A                 0.0082
     8 (A) A   8 (A) B   25 (A) A   29 (A) B     -0.0076
     6 (A) A             35 (A) A                 0.0071
     6 (A) A             40 (A) A                 0.0067
     3 (A) A   6 (A) B    9 (A) A   28 (A) B     -0.0065
     5 (A) A   8 (A) B   11 (A) A    9 (A) B     -0.0062
     7 (A) A   8 (A) B   13 (A) A   20 (A) B      0.0060
     5 (A) A   8 (A) B   11 (A) A   20 (A) B      0.0060
     5 (A) A   7 (A) B    9 (A) A    9 (A) B      0.0060
     6 (A) A   8 (A) A   19 (A) A   28 (A) A      0.0060
     5 (A) A             27 (A) A                -0.0060
     5 (A) A   8 (A) B   16 (A) A    9 (A) B      0.0059
     3 (A) A   5 (A) B    9 (A) A   25 (A) B     -0.0058
     7 (A) A   8 (A) B   22 (A) A   20 (A) B      0.0057
     3 (A) A             40 (A) A                -0.0056
     8 (A) A   8 (A) B   19 (A) A   30 (A) B     -0.0056
    -----------------------------------------------------

  Density matrix analysis:
  ------------------------
  NOs
    Occupation of frontier NOs:
       0.9491   1.0219
    Number of electrons: 16.000000
    Number of unpaired electrons: n_u =  2.31678, n_u,nl =  2.03329
    NO participation ratio (PR_NO):  2.874068
  
  
  Mulliken Population Analysis
  Atom      Charge (e)              h+              e-           Del q
  --------------------------------------------------------------------
   1 H        0.063191        0.020459       -0.012400        0.008059
   2 C       -0.126638        0.490649       -0.506746       -0.016097
   3 H        0.062924        0.020423       -0.012426        0.007998
   4 C       -0.125323        0.490681       -0.506661       -0.015981
   5 H        0.063149        0.020434       -0.012432        0.008002
   6 H        0.062697        0.020435       -0.012416        0.008019
  --------------------------------------------------------------------
  Sum:        0.000000        1.063082       -1.063082       -0.000000
  
  Multipole moment analysis of the density matrix
    Molecular charge:                      0.000000
    Number of electrons:                   16.000000
      Center of electronic charge [Ang]: [ -1.562811,  -0.065596,   0.002353]
    Total nuclear charge:                  16.000000
      Center of nuclear charge [Ang]:    [ -1.562818,  -0.065603,   0.002342]
    Dipole moment [D]:                     0.001149
      Cartesian components [D]:          [ -0.000547,  -0.000482,  -0.000889]
    RMS size of the density [Ang]:         1.219820
      Cartesian components [Ang]:        [  0.808679,   0.790816,   0.456738]
  
  Exciton analysis of the difference density matrix
    <r_h> [Ang]:                  [ -1.563027,  -0.065633,   0.002472]
    <r_e> [Ang]:                  [ -1.563048,  -0.065682,   0.002498]
    |<r_e - r_h>| [Ang]:            0.000059
    Hole size [Ang]:                1.287297
      Cartesian components [Ang]: [  0.730697,   0.714275,   0.782960]
    Electron size [Ang]:            1.463846
      Cartesian components [Ang]: [  0.855210,   0.830772,   0.849280]

  Transition density matrix analysis:
  -----------------------------------
  
  CT numbers (Mulliken)
    omega =     0.9532
    <Phe> =    -0.1603
  
  Exciton analysis of the transition density matrix
    Trans. dipole moment [D]:             1.835438
      Cartesian components [D]:         [ -1.332217,   1.262479,   0.013286]
    <r_h> [Ang]:                        [ -1.563130,  -0.065615,   0.002443]
    <r_e> [Ang]:                        [ -1.563026,  -0.065676,   0.002522]
    |<r_e - r_h>| [Ang]:                  0.000144
    Hole size [Ang]:                      1.214403
      Cartesian components [Ang]:       [  0.650398,   0.636589,   0.804060]
    Electron size [Ang]:                  1.486740
      Cartesian components [Ang]:       [  0.865724,   0.839595,   0.869482]
    RMS electron-hole separation [Ang]:   1.937165
      Cartesian components [Ang]:       [  1.108034,   1.074996,   1.170150]
    Covariance(r_h, r_e) [Ang^2]:        -0.033718
    Correlation coefficient:             -0.018675
    Center-of-mass size [Ang]:            0.951017
      Cartesian components [Ang]:       [  0.528500,   0.515925,   0.599119]

  Decomposition into state-averaged NTOs
    H- 0 -> L+ 0: -0.6697 ( 89.7%)
    H- 2 -> L+ 5:  0.0830 (  1.4%)
                   omega =  95.3%
  ----------------------------------------------------------------------------


  Excited state 2 (singlet, A)                                     [converged]
  ----------------------------------------------------------------------------
  Term symbol:  3 (1) A                                     R^2 =  2.04577e-13

  Total energy:                                            -77.9911436792 a.u.
  Excitation energy:                                               8.952314 eV

  Osc. strength:                                                      0.000003
  Trans. dip. moment [a.u.]:           [   0.000211,   -0.000883,    0.003837]
  <i|r^2|0> [a.u.]:                    [   0.065240,    0.089330,   -0.153578]
  Two-photon absorption cross-section (SoS) [a.u.]:                   4.566368
  Two-photon absorption matrix (SoS) [a.u.]:
                                       |    0.047970    0.057475   -0.510289 |
                                       |    0.057475    0.068201   -0.544880 |
                                       |   -0.510289   -0.544880   -0.115994 |
  Two-photon absorption cross-section [a.u.]:                         0.173564
  Two-photon absorption matrix [a.u.]:
                                       |   -0.013184   -0.011305    0.091657 |
                                       |   -0.011305   -0.009432    0.113038 |
                                       |    0.091657    0.113038    0.022697 |

  Dip. moment [a.u.]:                  [   0.000102,   -0.006502,   -0.001001]
  Total dipole [Debye]:                                               0.016723
  <r^2> [a.u.]:                        [ 175.283561,   34.295221,   13.215179]
  Total <r^2> [a.u.]:                                               222.793961

  V1^2 = 0.9541, V2^2 = 0.0459

  Important amplitudes:
      occ i     occ j     vir a      vir b          v   
    -----------------------------------------------------
     7 (A) A              9 (A) A                 0.6685
     8 (A) A             11 (A) A                 0.1513
     7 (A) A             20 (A) A                 0.0756
     5 (A) A   8 (A) B    9 (A) A    9 (A) B      0.0315
     8 (A) A             16 (A) A                -0.0281
     8 (A) A             21 (A) A                -0.0178
     5 (A) A             28 (A) A                -0.0150
     4 (A) A   7 (A) B    9 (A) A   19 (A) B     -0.0136
     5 (A) A   7 (A) B    9 (A) A   16 (A) B     -0.0134
     7 (A) A   8 (A) B   20 (A) A   17 (A) B     -0.0106
     7 (A) A   8 (A) A    9 (A) A   28 (A) A     -0.0098
     5 (A) A   8 (A) B    9 (A) A   20 (A) B      0.0094
     4 (A) A   6 (A) B    9 (A) A   16 (A) B      0.0091
     5 (A) A   6 (A) A    9 (A) A   23 (A) A      0.0090
     5 (A) A   6 (A) A    9 (A) A   14 (A) A      0.0089
     5 (A) A   6 (A) B    9 (A) A   19 (A) B      0.0086
     8 (A) A   7 (A) B    9 (A) A   28 (A) B      0.0085
     6 (A) A   7 (A) B    9 (A) A   18 (A) B      0.0085
     4 (A) A   5 (A) A    9 (A) A   10 (A) A      0.0085
     5 (A) A   6 (A) B    9 (A) A   23 (A) B      0.0080
     3 (A) A   7 (A) B    9 (A) A   18 (A) B      0.0080
     5 (A) A   7 (A) A    9 (A) A   16 (A) A     -0.0078
     4 (A) A   8 (A) B    9 (A) A   25 (A) B      0.0076
     4 (A) A   7 (A) B   19 (A) A    9 (A) B     -0.0075
     7 (A) A   8 (A) B   17 (A) A   20 (A) B     -0.0074
     8 (A) A             10 (A) A                -0.0073
     5 (A) A   5 (A) B    9 (A) A   13 (A) B     -0.0073
     7 (A) A   8 (A) B   19 (A) A   18 (A) B     -0.0071
     4 (A) A   5 (A) B    9 (A) A   18 (A) B     -0.0069
     5 (A) A   8 (A) A    9 (A) A   20 (A) A      0.0068
     7 (A) A   7 (A) B   20 (A) A   22 (A) B      0.0066
     7 (A) A   8 (A) B   17 (A) A    9 (A) B     -0.0065
     5 (A) A   6 (A) B    9 (A) A   14 (A) B      0.0063
     5 (A) A   7 (A) B   11 (A) A   20 (A) B      0.0062
     4 (A) A   5 (A) B   10 (A) A    9 (A) B     -0.0061
     4 (A) A   7 (A) A    9 (A) A   19 (A) A     -0.0061
     5 (A) A             38 (A) A                 0.0060
     4 (A) A   6 (A) B   16 (A) A    9 (A) B      0.0058
     4 (A) A   8 (A) A    9 (A) A   25 (A) A      0.0057
     6 (A) A   7 (A) A   19 (A) A   28 (A) A      0.0056
    -----------------------------------------------------

  Density matrix analysis:
  ------------------------
  NOs
    Occupation of frontier NOs:
       0.9559   1.0554
    Number of electrons: 16.000000
    Number of unpaired electrons: n_u =  2.35842, n_u,nl =  2.06497
    NO participation ratio (PR_NO):  3.045922
  
  
  Mulliken Population Analysis
  Atom      Charge (e)              h+              e-           Del q
  --------------------------------------------------------------------
   1 H        0.153647        0.124335       -0.025820        0.098515
   2 C       -0.310576        0.273193       -0.473228       -0.200035
   3 H        0.157352        0.126196       -0.023771        0.102425
   4 C       -0.309579        0.271985       -0.472222       -0.200237
   5 H        0.155366        0.126459       -0.026240        0.100220
   6 H        0.153790        0.122559       -0.023447        0.099112
  --------------------------------------------------------------------
  Sum:        0.000000        1.044727       -1.044727       -0.000000
  
  Multipole moment analysis of the density matrix
    Molecular charge:                      0.000000
    Number of electrons:                   16.000000
      Center of electronic charge [Ang]: [ -1.562821,  -0.065387,   0.002375]
    Total nuclear charge:                  16.000000
      Center of nuclear charge [Ang]:    [ -1.562818,  -0.065603,   0.002342]
    Dipole moment [D]:                     0.016723
      Cartesian components [D]:          [  0.000258,  -0.016527,  -0.002543]
    RMS size of the density [Ang]:         1.205239
      Cartesian components [Ang]:        [  0.790800,   0.771979,   0.480919]
  
  Exciton analysis of the difference density matrix
    <r_h> [Ang]:                  [ -1.559228,  -0.065740,   0.002474]
    <r_e> [Ang]:                  [ -1.559410,  -0.062593,   0.002829]
    |<r_e - r_h>| [Ang]:            0.003173
    Hole size [Ang]:                1.496140
      Cartesian components [Ang]: [  1.009665,   1.005469,   0.456119]
    Electron size [Ang]:            1.480246
      Cartesian components [Ang]: [  0.884540,   0.862128,   0.815753]

  Transition density matrix analysis:
  -----------------------------------
  
  CT numbers (Mulliken)
    omega =     0.9214
    <Phe> =    -0.0114
  
  Exciton analysis of the transition density matrix
    Trans. dipole moment [D]:             0.005011
      Cartesian components [D]:         [  0.000268,  -0.001122,   0.004876]
    <r_h> [Ang]:                        [ -1.558813,  -0.065959,   0.002442]
    <r_e> [Ang]:                        [ -1.559557,  -0.062247,   0.002885]
    |<r_e - r_h>| [Ang]:                  0.003812
    Hole size [Ang]:                      1.527048
      Cartesian components [Ang]:       [  1.033926,   1.030739,   0.447718]
    Electron size [Ang]:                  1.475665
      Cartesian components [Ang]:       [  0.873634,   0.850171,   0.831601]
    RMS electron-hole separation [Ang]:   2.103589
      Cartesian components [Ang]:       [  1.337591,   1.321130,   0.943691]
    Covariance(r_h, r_e) [Ang^2]:         0.042196
    Correlation coefficient:              0.018725
    Center-of-mass size [Ang]:            1.071664
      Cartesian components [Ang]:       [  0.684713,   0.675473,   0.472618]

  Decomposition into state-averaged NTOs
    H- 1 -> L+ 0:  0.6607 ( 87.3%)
    H- 0 -> L+ 2:  0.1513 (  4.6%)
                   omega =  92.1%
  ----------------------------------------------------------------------------


  Excited state 3 (singlet, A)                                     [converged]
  ----------------------------------------------------------------------------
  Term symbol:  4 (1) A                                     R^2 =  2.29851e-13

  Total energy:                                            -77.9841873427 a.u.
  Excitation energy:                                               9.141606 eV

  Osc. strength:                                                      0.023574
  Trans. dip. moment [a.u.]:           [   0.016344,    0.018912,   -0.323471]
  <i|r^2|0> [a.u.]:                    [   0.097050,    0.005982,    0.001348]
  Two-photon absorption cross-section (SoS) [a.u.]:                   0.002790
  Two-photon absorption matrix (SoS) [a.u.]:
                                       |   -0.003182   -0.001395    0.014452 |
                                       |   -0.001395   -0.000460    0.011400 |
                                       |    0.014452    0.011400    0.000363 |
  Two-photon absorption cross-section [a.u.]:                         0.002445
  Two-photon absorption matrix [a.u.]:
                                       |   -0.003604   -0.000923    0.013322 |
                                       |   -0.000923   -0.001614    0.010711 |
                                       |    0.013322    0.010711    0.001131 |

  Dip. moment [a.u.]:                  [  -0.023273,   -0.016406,   -0.001758]
  Total dipole [Debye]:                                               0.072513
  <r^2> [a.u.]:                        [ 181.543485,   40.975640,   11.058664]
  Total <r^2> [a.u.]:                                               233.577788

  V1^2 = 0.9580, V2^2 = 0.0420

  Important amplitudes:
      occ i     occ j     vir a      vir b          v   
    -----------------------------------------------------
     8 (A) A             10 (A) A                 0.6887
     8 (A) A             24 (A) A                 0.0508
     8 (A) A             18 (A) A                -0.0332
     4 (A) A              9 (A) A                 0.0247
     8 (A) A   8 (A) B    9 (A) A   12 (A) B     -0.0223
     8 (A) A   8 (A) B   10 (A) A   17 (A) B      0.0172
     5 (A) A   8 (A) B   11 (A) A   10 (A) B     -0.0169
     8 (A) A             15 (A) A                -0.0149
     7 (A) A   8 (A) B   13 (A) A   10 (A) B     -0.0143
     4 (A) A   8 (A) B   12 (A) A   10 (A) B     -0.0113
     6 (A) A   8 (A) A   10 (A) A   15 (A) A     -0.0112
     7 (A) A   8 (A) B   22 (A) A   10 (A) B     -0.0109
     6 (A) A   8 (A) B   15 (A) A   10 (A) B      0.0109
     4 (A) A   8 (A) A   10 (A) A   12 (A) A      0.0108
     7 (A) A   8 (A) A   10 (A) A   22 (A) A      0.0099
     7 (A) A   8 (A) A   10 (A) A   13 (A) A      0.0098
     5 (A) A   8 (A) A   10 (A) A   11 (A) A      0.0097
     5 (A) A   8 (A) B   21 (A) A   10 (A) B      0.0094
     6 (A) A   8 (A) B   10 (A) A   10 (A) B      0.0090
     6 (A) A   8 (A) A   10 (A) A   18 (A) A      0.0086
     7 (A) A   8 (A) A   12 (A) A   16 (A) A     -0.0084
     3 (A) A   4 (A) B   10 (A) A    9 (A) B     -0.0080
     5 (A) A   8 (A) A   10 (A) A   21 (A) A     -0.0079
     7 (A) A              9 (A) A                 0.0079
     4 (A) A   8 (A) B   19 (A) A   10 (A) B      0.0075
     8 (A) A   8 (A) B    9 (A) A   23 (A) B     -0.0075
     8 (A) A   8 (A) B   10 (A) A   28 (A) B      0.0074
     5 (A) A   8 (A) B   10 (A) A   11 (A) B     -0.0072
     7 (A) A   8 (A) B   16 (A) A   12 (A) B      0.0072
     3 (A) A   8 (A) A   10 (A) A   24 (A) A     -0.0072
     3 (A) A   8 (A) B   10 (A) A   10 (A) B      0.0071
     8 (A) A   8 (A) B    9 (A) A   19 (A) B      0.0070
     3 (A) A   8 (A) B   10 (A) A   18 (A) B     -0.0068
     6 (A) A   8 (A) B   18 (A) A   10 (A) B     -0.0065
     3 (A) A   6 (A) B   10 (A) A   28 (A) B     -0.0062
     7 (A) A   8 (A) B   12 (A) A   11 (A) B     -0.0059
     6 (A) A             28 (A) A                 0.0058
     5 (A) A   8 (A) A   10 (A) A   16 (A) A     -0.0057
     3 (A) A   5 (A) B   10 (A) A   25 (A) B     -0.0056
     6 (A) A   8 (A) A   11 (A) A   16 (A) A      0.0055
    -----------------------------------------------------

  Density matrix analysis:
  ------------------------
  NOs
    Occupation of frontier NOs:
       0.9813   0.9845
    Number of electrons: 16.000000
    Number of unpaired electrons: n_u =  2.28889, n_u,nl =  2.02510
    NO participation ratio (PR_NO):  2.701808
  
  
  Mulliken Population Analysis
  Atom      Charge (e)              h+              e-           Del q
  --------------------------------------------------------------------
   1 H       -0.158318        0.054229       -0.267679       -0.213450
   2 C        0.309782        0.538230       -0.117906        0.420323
   3 H       -0.152687        0.054504       -0.262118       -0.207614
   4 C        0.310368        0.537671       -0.117960        0.419711
   5 H       -0.157677        0.054291       -0.267115       -0.212824
   6 H       -0.151468        0.054419       -0.260566       -0.206147
  --------------------------------------------------------------------
  Sum:        0.000000        1.293344       -1.293344       -0.000000
  
  Multipole moment analysis of the density matrix
    Molecular charge:                      0.000000
    Number of electrons:                   16.000000
      Center of electronic charge [Ang]: [ -1.562048,  -0.065060,   0.002400]
    Total nuclear charge:                  16.000000
      Center of nuclear charge [Ang]:    [ -1.562818,  -0.065603,   0.002342]
    Dipole moment [D]:                     0.072513
      Cartesian components [D]:          [ -0.059155,  -0.041699,  -0.004469]
    RMS size of the density [Ang]:         1.282106
      Cartesian components [Ang]:        [  0.858685,   0.844342,   0.439932]
  
  Exciton analysis of the difference density matrix
    <r_h> [Ang]:                  [ -1.562482,  -0.065667,   0.002436]
    <r_e> [Ang]:                  [ -1.553065,  -0.059073,   0.003033]
    |<r_e - r_h>| [Ang]:            0.011512
    Hole size [Ang]:                1.412928
      Cartesian components [Ang]: [  0.836928,   0.822366,   0.787166]
    Electron size [Ang]:            2.079256
      Cartesian components [Ang]: [  1.376286,   1.380924,   0.722629]

  Transition density matrix analysis:
  -----------------------------------
  
  CT numbers (Mulliken)
    omega =     0.9250
    <Phe> =    -0.0109
  
  Exciton analysis of the transition density matrix
    Trans. dipole moment [D]:             0.412316
      Cartesian components [D]:         [  0.020771,   0.024034,  -0.411091]
    <r_h> [Ang]:                        [ -1.563518,  -0.066096,   0.002434]
    <r_e> [Ang]:                        [ -1.549764,  -0.056797,   0.003261]
    |<r_e - r_h>| [Ang]:                  0.016623
    Hole size [Ang]:                      1.212800
      Cartesian components [Ang]:       [  0.636896,   0.623285,   0.822655]
    Electron size [Ang]:                  2.301624
      Cartesian components [Ang]:       [  1.522371,   1.530182,   0.799001]
    RMS electron-hole separation [Ang]:   2.591556
      Cartesian components [Ang]:       [  1.642618,   1.645150,   1.145187]
    Covariance(r_h, r_e) [Ang^2]:         0.026235
    Correlation coefficient:              0.009399
    Center-of-mass size [Ang]:            1.305836
      Cartesian components [Ang]:       [  0.828930,   0.829676,   0.574212]

  Decomposition into state-averaged NTOs
    H- 0 -> L+ 1:  0.6793 ( 92.3%)
                   omega =  92.5%
  ----------------------------------------------------------------------------


  Excited state 4 (singlet, A)                                     [converged]
  ----------------------------------------------------------------------------
  Term symbol:  5 (1) A                                     R^2 =  2.27406e-13

  Total energy:                                            -77.9622604055 a.u.
  Excitation energy:                                               9.738268 eV

  Osc. strength:                                                      0.000004
  Trans. dip. moment [a.u.]:           [   0.000061,    0.000438,   -0.004247]
  <i|r^2|0> [a.u.]:                    [   0.014128,    0.018424,   -0.032043]
  Two-photon absorption cross-section (SoS) [a.u.]:                 134.666419
  Two-photon absorption matrix (SoS) [a.u.]:
                                       |    0.264701    0.312540   -2.788150 |
                                       |    0.312540    0.365126   -2.943102 |
                                       |   -2.788150   -2.943102   -0.629763 |
  Two-photon absorption cross-section [a.u.]:                        80.037365
  Two-photon absorption matrix [a.u.]:
                                       |    0.199862    0.240690   -2.143348 |
                                       |    0.240690    0.285787   -2.274661 |
                                       |   -2.143348   -2.274661   -0.485614 |

  Dip. moment [a.u.]:                  [   0.024231,    0.028844,    0.003291]
  Total dipole [Debye]:                                               0.096116
  <r^2> [a.u.]:                        [ 181.896386,   41.026990,   10.787879]
  Total <r^2> [a.u.]:                                               233.711255

  V1^2 = 0.9633, V2^2 = 0.0367

  Important amplitudes:
      occ i     occ j     vir a      vir b          v   
    -----------------------------------------------------
     8 (A) A             11 (A) A                 0.6688
     7 (A) A              9 (A) A                -0.1534
     8 (A) A             21 (A) A                -0.0779
     8 (A) A             16 (A) A                -0.0674
     8 (A) A   8 (A) B    9 (A) A   13 (A) B     -0.0167
     5 (A) A   8 (A) B   11 (A) A   11 (A) B     -0.0157
     7 (A) A             20 (A) A                -0.0140
     8 (A) A   8 (A) B   11 (A) A   17 (A) B      0.0137
     7 (A) A   8 (A) B   13 (A) A   11 (A) B     -0.0127
     4 (A) A   8 (A) B   12 (A) A   11 (A) B     -0.0111
     8 (A) A   8 (A) B    9 (A) A   22 (A) B     -0.0110
     5 (A) A   8 (A) A   11 (A) A   21 (A) A     -0.0109
     7 (A) A   8 (A) A   11 (A) A   22 (A) A      0.0095
     6 (A) A   8 (A) B   10 (A) A   11 (A) B      0.0091
     6 (A) A   8 (A) B   15 (A) A   11 (A) B      0.0089
     7 (A) A   8 (A) B   22 (A) A   11 (A) B     -0.0089
     3 (A) A   4 (A) B   11 (A) A    9 (A) B     -0.0083
     3 (A) A   8 (A) B   11 (A) A   18 (A) B     -0.0080
     6 (A) A   8 (A) A   11 (A) A   15 (A) A     -0.0079
     7 (A) A   8 (A) A   13 (A) A   16 (A) A     -0.0079
     7 (A) A   8 (A) A   11 (A) A   13 (A) A      0.0075
     4 (A) A   8 (A) B   19 (A) A   11 (A) B      0.0070
     5 (A) A   8 (A) B   21 (A) A   11 (A) B      0.0069
     5 (A) A   8 (A) B    9 (A) A    9 (A) B     -0.0069
     4 (A) A   8 (A) A   11 (A) A   12 (A) A      0.0062
     3 (A) A   6 (A) B   11 (A) A   28 (A) B     -0.0060
     6 (A) A   8 (A) A   11 (A) A   18 (A) A      0.0059
     6 (A) A   8 (A) B   18 (A) A   11 (A) B     -0.0058
     7 (A) A   8 (A) B   16 (A) A   13 (A) B      0.0057
     3 (A) A   8 (A) B   11 (A) A   30 (A) B     -0.0056
     5 (A) A   8 (A) B   10 (A) A   10 (A) B     -0.0055
     7 (A) A   8 (A) B   12 (A) A   10 (A) B     -0.0055
     8 (A) A   8 (A) B   20 (A) A   22 (A) B     -0.0055
     6 (A) A   8 (A) B   11 (A) A   10 (A) B      0.0055
     3 (A) A   5 (A) B   11 (A) A   25 (A) B     -0.0054
     3 (A) A   8 (A) A   11 (A) A   18 (A) A     -0.0054
     3 (A) A   8 (A) A   11 (A) A   24 (A) A     -0.0053
     5 (A) A   8 (A) A   11 (A) A   16 (A) A     -0.0049
     6 (A) A   8 (A) A   10 (A) A   16 (A) A      0.0047
     8 (A) A   8 (A) B   11 (A) A   28 (A) B      0.0043
    -----------------------------------------------------

  Density matrix analysis:
  ------------------------
  NOs
    Occupation of frontier NOs:
       0.9387   1.0295
    Number of electrons: 16.000000
    Number of unpaired electrons: n_u =  2.32235, n_u,nl =  2.05105
    NO participation ratio (PR_NO):  2.932605
  
  
  Mulliken Population Analysis
  Atom      Charge (e)              h+              e-           Del q
  --------------------------------------------------------------------
   1 H       -0.118745        0.045864       -0.219741       -0.173877
   2 C        0.250430        0.495423       -0.134452        0.360972
   3 H       -0.132418        0.046179       -0.233524       -0.187344
   4 C        0.251789        0.495120       -0.133988        0.361132
   5 H       -0.121983        0.046069       -0.223198       -0.177130
   6 H       -0.129074        0.045924       -0.229677       -0.183753
  --------------------------------------------------------------------
  Sum:        0.000000        1.174580       -1.174580       -0.000000
  
  Multipole moment analysis of the density matrix
    Molecular charge:                      -0.000000
    Number of electrons:                   16.000000
      Center of electronic charge [Ang]: [ -1.563619,  -0.066557,   0.002233]
    Total nuclear charge:                  16.000000
      Center of nuclear charge [Ang]:    [ -1.562818,  -0.065603,   0.002342]
    Dipole moment [D]:                     0.096116
      Cartesian components [D]:          [  0.061590,   0.073315,   0.008366]
    RMS size of the density [Ang]:         1.281025
      Cartesian components [Ang]:        [  0.859422,   0.844758,   0.434514]
  
  Exciton analysis of the difference density matrix
    <r_h> [Ang]:                  [ -1.563514,  -0.066560,   0.002346]
    <r_e> [Ang]:                  [ -1.574547,  -0.079685,   0.000728]
    |<r_e - r_h>| [Ang]:            0.017222
    Hole size [Ang]:                1.394930
      Cartesian components [Ang]: [  0.819413,   0.806491,   0.789915]
    Electron size [Ang]:            2.114267
      Cartesian components [Ang]: [  1.415293,   1.419487,   0.672405]

  Transition density matrix analysis:
  -----------------------------------
  
  CT numbers (Mulliken)
    omega =     0.9293
    <Phe> =    -0.0146
  
  Exciton analysis of the transition density matrix
    Trans. dipole moment [D]:             0.005427
      Cartesian components [D]:         [  0.000077,   0.000557,  -0.005397]
    <r_h> [Ang]:                        [ -1.562904,  -0.065671,   0.002478]
    <r_e> [Ang]:                        [ -1.576607,  -0.082348,   0.000428]
    |<r_e - r_h>| [Ang]:                  0.021681
    Hole size [Ang]:                      1.229174
      Cartesian components [Ang]:       [  0.661910,   0.649628,   0.806677]
    Electron size [Ang]:                  2.247826
      Cartesian components [Ang]:       [  1.504265,   1.510546,   0.712855]
    RMS electron-hole separation [Ang]:   2.550905
      Cartesian components [Ang]:       [  1.634674,   1.636187,   1.076033]
    Covariance(r_h, r_e) [Ang^2]:         0.028473
    Correlation coefficient:              0.010305
    Center-of-mass size [Ang]:            1.286520
      Cartesian components [Ang]:       [  0.826121,   0.826242,   0.538501]

  Decomposition into state-averaged NTOs
    H- 0 -> L+ 2:  0.6640 ( 88.2%)
    H- 1 -> L+ 0: -0.1514 (  4.6%)
                   omega =  92.9%
  ----------------------------------------------------------------------------


  Excited state 5 (singlet, A)                                     [converged]
  ----------------------------------------------------------------------------
  Term symbol:  6 (1) A                                     R^2 =  1.53674e-13

  Total energy:                                            -77.9468175752 a.u.
  Excitation energy:                                              10.158489 eV

  Osc. strength:                                                      0.000000
  Trans. dip. moment [a.u.]:           [   0.000136,   -0.000097,   -0.000812]
  <i|r^2|0> [a.u.]:                    [   0.082434,   -0.097190,    0.015156]
  Two-photon absorption cross-section (SoS) [a.u.]:                 223.548777
  Two-photon absorption matrix (SoS) [a.u.]:
                                       |    0.364550    0.063727   -3.843696 |
                                       |    0.063727   -0.443166    3.605334 |
                                       |   -3.843696    3.605334    0.069835 |
  Two-photon absorption cross-section [a.u.]:                       115.508766
  Two-photon absorption matrix [a.u.]:
                                       |    0.258520    0.043384   -2.760876 |
                                       |    0.043384   -0.322288    2.593756 |
                                       |   -2.760876    2.593756    0.051410 |

[...]
    16   -1.444359241956e-03
    17   -1.738033607490e-03
    18    1.515831658260e-04
    19   -2.904188509749e-03
    20    1.114281068521e-02
    21    9.238952405032e-01
    22   -5.179421992490e-04
    23    1.366466394332e-02
    24    8.009185356901e-04
    25    7.022396364153e-02
    26   -5.206759473859e-02
    27   -1.382985861260e+00
    28    9.878695333867e-02
    29   -9.578325293199e-02
    30   -8.638656728775e-04
    31    3.821195756873e-01
    32   -3.668137197109e-01
    33   -3.117163004506e-03
    34    1.505658106256e-02
    35   -1.461329752743e-03
    36   -1.712778662826e-03
    37   -5.144253512590e-05
    38   -2.913719003188e-03
    39    1.179553825954e-02
    40    9.292784198949e-01
    41    4.767435113440e-04
    42   -1.370060063402e-02
    43   -7.986521481294e-04
    44    1.118086553765e-02
    45    9.238343546483e-01
    46    1.376494814182e-02
    47    1.366614079054e-04
    48    6.807699459611e-04
Sym=X
Ene= 0.231048
Spin=Alpha
Occup=0
     1   -2.975278470968e-02
     2   -1.157119395350e+00
     3    1.274300210270e-02
     4    3.481650882825e-03
     5    8.278207961908e-04
     6    7.503514391235e-04
     7   -4.359056643929e-04
     8   -1.755178456958e-02
     9    1.536003233774e-01
    10    1.637518293594e-01
    11    1.735429925252e-02
    12    5.271407298737e-01
    13    5.598305853356e-01
    14    5.943313913984e-02
    15    2.779533507204e-04
    16   -8.755574681091e-05
    17    5.289694785349e-05
    18   -1.331480161626e-03
    19   -1.966707356109e-04
    20    2.997252562980e-02
    21    1.177900461145e+00
    22    2.858682800739e-03
    23    1.330929892786e-02
    24    9.447042511670e-04
    25   -1.331722766973e-04
    26    3.967321878592e-05
    27    1.739906898654e-04
    28    1.541752417041e-01
    29    1.627296945630e-01
    30    1.729052298477e-02
    31    5.324676031032e-01
    32    5.563198466024e-01
    33    5.936407740198e-02
    34   -2.456319138572e-05
    35    5.859257633940e-05
    36   -9.961298983816e-05
    37    1.429945991625e-03
    38    7.065468552651e-05
    39   -3.029015253478e-02
    40   -1.168706966971e+00
    41    2.824015682970e-03
    42    1.310169694968e-02
    43    9.279296298326e-04
    44    2.949489871550e-02
    45    1.169732600231e+00
    46    1.297731690862e-02
    47    3.548807946307e-03
    48    8.423474329748e-04
Sym=X
Ene= 0.236440
Spin=Alpha
Occup=0
     1   -1.935409857527e-02
     2   -1.076558305112e+00
     3    1.589701875724e-02
     4    9.255170399270e-03
     5    1.324881923825e-03
     6   -8.701971451306e-02
     7    8.220099015563e-02
     8    1.542564715309e+00
     9    5.978035985915e-02
    10   -5.492757511901e-02
    11   -5.154665070392e-04
    12    2.444097428680e-01
    13   -2.268445350498e-01
    14   -2.313580486349e-03
    15   -2.123531049419e-02
    16    2.495875094571e-03
    17    2.897650558688e-03
    18   -6.075252727459e-04
    19    1.238840768810e-02
    20   -1.933147186148e-02
    21   -1.064626913232e+00
    22   -8.374013330294e-03
    23   -1.623625430885e-02
    24   -1.392185596057e-03
    25    8.722305150406e-02
    26   -8.245092008126e-02
    27   -1.547462491605e+00
    28    5.944046582607e-02
    29   -5.538145568249e-02
    30   -3.204268803648e-04
    31    2.454328190827e-01
    32   -2.268219754179e-01
    33   -1.296819755688e-03
    34    2.132545753066e-02
    35   -2.531702358257e-03
    36   -2.882682099054e-03
    37    5.207274740369e-04
    38   -1.243826637180e-02
    39    1.907300538744e-02
    40    1.065048769062e+00
    41   -8.393068706399e-03
    42   -1.621518221453e-02
    43   -1.376038765147e-03
    44    1.942937923297e-02
    45    1.082411099551e+00
    46    1.607053891361e-02
    47    9.212981338756e-03
    48    1.345782411008e-03
Sym=X
Ene= 0.302962
Spin=Alpha
Occup=0
     1   -2.103298550170e-02
     2    1.657848410740e+00
     3   -2.351525230629e-02
     4    3.598454310230e-04
     5   -1.101107038383e-03
     6    3.732337591763e-05
     7    3.326675157861e-05
     8   -2.806605124491e-03
     9   -1.356856278262e-01
    10   -1.426670748304e-01
    11   -1.520382367185e-02
    12   -1.122778022799e+00
    13   -1.184184952022e+00
    14   -1.259961602784e-01
    15    5.243658881472e-05
    16   -1.742436515967e-03
    17    1.984263254171e-03
    18   -3.400726922780e-02
    19   -1.865580047950e-03
    20    2.079124123004e-02
    21   -1.655920678669e+00
    22    1.662431159289e-03
    23   -2.341692221088e-02
    24   -1.352252066228e-03
    25   -3.089815674899e-05
    26    7.385632727985e-05
    27   -5.512325734344e-03
    28    1.355417383852e-01
    29    1.426486594996e-01
    30    1.518117757439e-02
    31    1.125840979735e+00
    32    1.183443750407e+00
    33    1.260505405374e-01
    34    1.134464997314e-04
    35   -1.794037763129e-03
    36    1.942366270426e-03
    37   -3.413198453046e-02
    38   -1.930941758145e-03
    39    2.077057613819e-02
    40   -1.655207231728e+00
    41   -1.661777964045e-03
    42    2.342988638212e-02
    43    1.340652991140e-03
    44   -2.167651263346e-02
    45    1.662354797827e+00
    46    2.353623781264e-02
    47   -3.289514948830e-04
    48    1.114255407978e-03
Sym=X
Ene= 0.462773
Spin=Alpha
Occup=0
     1   -1.127387088138e-01
     2   -7.002817925706e-01
     3   -1.484439915001e-02
     4   -1.042205767795e-02
     5   -1.348502303496e-03
     6    6.255328935768e-02
     7    1.641555048209e-02
     8   -3.641929852468e+00
     9    1.047397433524e-01
    10   -9.926988070943e-02
    11   -9.350571781854e-04
    12    2.436386549991e+00
    13   -2.306079328540e+00
    14   -2.416562361794e-02
    15    5.286284582612e-02
    16   -3.244470155223e-03
    17   -4.554888664608e-03
    18   -9.918027197817e-04
    19    2.028378019893e-02
    20   -1.148660748659e-01
    21   -6.976604285681e-01
    22    9.357580054376e-03
    23    1.551705979694e-02
    24    1.393660987372e-03
    25   -6.247735045474e-02
    26   -1.675286787450e-02
    27    3.640157223952e+00
    28    1.039806634357e-01
    29   -9.889687937379e-02
    30   -8.150082726177e-04
    31    2.440387411076e+00
    32   -2.305011777900e+00
    33   -2.331831627073e-02
    34   -5.306353558487e-02
    35    3.259298727323e-03
    36    4.602810627890e-03
    37    9.137251065185e-04
    38   -1.997524236660e-02
    39    1.166760743038e-01
    40    6.917872847565e-01
    41    9.360381157029e-03
    42    1.557022364045e-02
    43    1.401109348195e-03
    44    1.133276339954e-01
    45    7.054507293713e-01
    46   -1.490972407313e-02
    47   -1.053591446101e-02
    48   -1.351235705581e-03
Sym=X
Ene= 0.579809
Spin=Alpha
Occup=0
     1   -2.361542565054e-01
     2   -5.206725164777e-02
     3    2.234211854444e-02
     4   -2.703924490932e-02
     5   -5.728524061993e-04
     6    6.437551519548e-03
     7    1.691308967668e-01
     8    4.087220759676e-01
     9   -3.051468083789e-01
    10    2.900371793091e-01
    11    3.051958621622e-03
    12    7.532656851082e-01
    13   -7.163431454252e-01
    14   -7.320344442340e-03
    15    1.991095509302e-03
    16   -3.630876558383e-03
    17   -3.340041402403e-03
    18    3.876529808487e-03
    19   -5.974653876144e-02
    20   -2.389030618511e-01
    21   -4.791021498618e-02
    22    2.823091423877e-02
    23   -2.054709240731e-02
    24    1.051245559293e-04
    25    6.072824855682e-03
    26    1.688765112706e-01
    27    4.256832450759e-01
    28    3.056537047155e-01
    29   -2.906965368195e-01
    30   -3.087065314530e-03
    31   -7.438790678769e-01
    32    7.045477986251e-01
    33    6.920431927809e-03
    34    1.969826144268e-03
    35   -3.639716882831e-03
    36   -3.324945631115e-03
    37    3.674962280068e-03
    38   -5.975635757945e-02
    39   -2.386544978788e-01
    40   -4.171815238684e-02
    41   -2.816851843632e-02
    42    2.062039419940e-02
    43   -1.104128525184e-04
    44   -2.373768321036e-01
    45   -4.985738031075e-02
    46   -2.193781804384e-02
    47    2.668646778804e-02
    48    5.576745513967e-04
Sym=X
Ene= 0.608870
Spin=Alpha
Occup=0
     1    5.223904996416e-01
     2   -2.455173517253e-01
     3    5.979019840953e-02
     4   -3.676833330164e-02
     5    6.287440292992e-04
     6    1.254441681164e-04
     7   -3.461161176263e-04
     8    1.170860879965e-02
     9    3.606440985245e-02
    10    3.683839797007e-02
    11    3.967900017756e-03
    12   -2.695560927485e-01
    13   -2.654065498557e-01
    14   -2.911877019300e-02
    15   -8.197602556140e-04
    16    7.673909078182e-03
    17   -8.615585013304e-03
    18    1.488336201828e-01
    19    7.808348630259e-03
    20   -5.175774092344e-01
    21    2.487426991796e-01
    22   -4.028097625665e-02
    23    5.732570804092e-02
    24    1.557265370540e-03
    25   -1.491117943545e-04
    26   -1.062784123476e-03
    27   -6.442672465181e-03
    28    3.632269685616e-02
    29    3.713690074297e-02
    30    4.006855787269e-03
    31   -2.719390885856e-01
    32   -2.660940489959e-01
    33   -2.922139768737e-02
    34    2.843005300467e-04
    35   -7.666728692069e-03
    36    8.566462115224e-03
    37   -1.483496446137e-01
    38   -7.236375460254e-03
    39    5.184062402090e-01
    40   -2.485067640581e-01
    41   -4.030628216602e-02
    42    5.734793397100e-02
    43    1.526673900334e-03
    44   -5.190863462486e-01
    45    2.379035959129e-01
    46    5.959868803178e-02
    47   -3.686505021884e-02
    48    6.475855719738e-04
Sym=X
Ene= 0.688653
Spin=Alpha
Occup=0
     1   -3.867663664407e-04
     2   -1.767784813388e-04
     3    8.623304406935e-04
     4    1.097102083784e-03
     5   -1.873507544674e-02
     6   -2.437495882102e-05
     7   -1.439048985243e-04
     8   -2.117795143609e-04
     9    3.231110772665e-02
    10    4.073117952592e-02
    11   -6.706372327436e-01
    12   -2.886050770083e-02
    13   -3.783318869653e-02
    14    6.125680717624e-01
    15   -1.308281873964e-03
    16    8.275054121298e-02
    17   -7.818967124867e-02
    18   -8.722824987298e-03
    19   -1.375729084357e-03
    20   -3.917261552548e-04
    21   -1.519094079125e-04
    22    9.449539490979e-04
    23    1.182655592488e-03
    24   -1.874218246044e-02
    25   -6.604412208173e-06
    26   -3.516848375402e-04
    27    5.766940309085e-04
    28    3.215565817336e-02
    29    4.082379089876e-02
    30   -6.705970708865e-01
    31   -2.875233662988e-02
    32   -3.788202450568e-02
    33    6.126986752381e-01
    34    1.489514575021e-03
    35   -8.280312619277e-02
    36    7.815310524771e-02
    37    8.735578649726e-03
    38    1.309617805977e-03
    39   -4.658340391459e-05
    40    4.819628854185e-04
    41    8.973332351856e-04
    42    1.039438773732e-03
    43   -1.854452559766e-02
    44   -3.978985808622e-05
    45    4.588630725630e-04
    46    1.007603173584e-03
    47    1.159842857337e-03
    48   -1.916528878577e-02
Sym=X
Ene= 0.704764
Spin=Alpha
Occup=0
     1   -4.876790718706e-01
     2    1.656290412947e-01
     3   -7.831834030445e-02
     4   -4.453256637786e-02
     5   -6.435816398442e-03
     6   -4.599313561282e-02
     7   -3.006942883873e-01
     8    4.584727207346e-01
     9    1.965857317419e-01
    10   -1.851304518989e-01
    11   -1.481204418399e-03
    12   -5.767205917877e-02
    13    4.981046018437e-02
    14    3.154966215963e-04
    15    1.915012810564e-01
    16   -2.051205791965e-02
    17   -2.424606460622e-02
    18    3.849435462443e-03
    19   -7.642634048754e-02
    20   -4.901330029181e-01
    21    1.629497610867e-01
    22    4.017255556193e-02
    23    8.032523800369e-02
    24    6.855275230360e-03
    25   -4.591562967751e-02
    26   -3.019270391780e-01
    27    4.686703701396e-01
    28   -1.952990135012e-01
    29    1.869367357351e-01
    30    2.324554783191e-03
    31    5.801469225290e-02
    32   -5.936829259114e-02
    33   -1.635449496123e-03
    34    1.907526278664e-01
    35   -2.045993224222e-02
    36   -2.417219878884e-02
    37    3.675956871838e-03
    38   -7.678657820619e-02
    39   -4.874993394788e-01
    40    1.670897151571e-01
    41   -4.047731527723e-02
    42   -7.992737413318e-02
    43   -6.818166109751e-03
    44   -4.864188974593e-01
    45    1.595610557333e-01
    46    7.813315692922e-02
    47    4.422491946786e-02
    48    6.428721900278e-03
Sym=X
Ene= 0.775738
Spin=Alpha
Occup=0
     1    5.377524643908e-01
     2   -4.802134676419e-01
     3    1.072106838448e-01
     4    2.643538456922e-02
     5    6.754525807745e-03
     6    8.883255247420e-02
     7   -2.281247346370e-01
     8   -5.654372644157e-01
     9    1.044645073491e-01
    10   -9.819159044151e-02
    11   -1.349985414027e-03
    12    2.948346323142e-01
    13   -2.775274197989e-01
    14   -2.121292111599e-03
    15   -2.027762092553e-01
    16    1.737987130207e-02
    17    2.192771007325e-02
    18   -9.119321261917e-04
    19    7.398528885056e-03
    20    5.390945373146e-01
    21   -4.814611868094e-01
    22   -2.085971785224e-02
    23   -1.089855426743e-01
    24   -7.641080595206e-03
    25   -8.903856583700e-02
    26    2.252481320473e-01
    27    5.681869840002e-01
    28    1.060087019980e-01
    29   -9.477847343763e-02
    30   -4.992623483512e-04
    31    2.893787320692e-01
    32   -2.858578116077e-01
    33   -4.160185571046e-03
    34    2.036507011645e-01
    35   -1.754898315922e-02
    36   -2.194170265806e-02
    37    1.200129666305e-03
    38   -7.821696543439e-03
    39   -5.417689407911e-01
    40    4.888314711492e-01
    41   -2.097093663824e-02
    42   -1.098267598679e-01
    43   -7.684248703953e-03
    44   -5.363311342128e-01
    45    4.723258786092e-01
    46    1.072128613693e-01
    47    2.642498262428e-02
    48    6.755397616250e-03
Sym=X
Ene= 0.807405
Spin=Alpha
Occup=0
     1    1.842757363404e-04
     2   -2.377791450498e-04
     3   -1.461311949738e-03
     4   -1.902301098813e-03
     5    3.122667131589e-02
     6    4.285945167326e-05
     7   -2.430183011941e-04
     8    1.281560147567e-04
     9   -3.654908604152e-02
    10   -4.669316177127e-02
    11    7.642495773542e-01
    12    5.396776578574e-02
    13    6.851225854160e-02
    14   -1.124293596114e+00
    15   -1.214572472164e-03
    16    6.552284084965e-02
    17   -6.186307094211e-02
    18   -6.899076678424e-03
    19   -1.076930531426e-03
    20    1.828926139342e-04
    21   -1.663560443296e-04
    22   -1.500892315267e-03
    23   -1.943512075780e-03
    24    3.143673650055e-02
    25   -2.517641160159e-05
    26   -9.968688699657e-05
    27    4.605717486301e-05
    28    3.679496824558e-02
    29    4.636545169498e-02
    30   -7.641975274151e-01
    31   -5.385941020953e-02
    32   -6.847784074452e-02
    33    1.124378606098e+00
    34   -9.849145255795e-04
    35    6.550359258185e-02
    36   -6.189741260239e-02
    37   -6.921655255469e-03
    38   -1.002221631641e-03
    39   -1.675133137831e-04
    40    2.671792600663e-04
    41    1.544838869434e-03
    42    1.795129367821e-03
    43   -3.134506252983e-02
    44   -1.676256258252e-04
    45    3.263960949759e-04
    46    1.641816184954e-03
    47    1.899639788758e-03
    48   -3.169991977100e-02
Sym=X
Ene= 0.858425
Spin=Alpha
Occup=0
     1    1.580821623474e-02
     2   -1.076959234697e+00
     3    1.468982356672e-01
     4    5.596039744703e-02
     5    1.048929324541e-02
     6    3.159910442274e-04
     7   -3.306590313166e-03
     8    4.285185023530e-03
     9   -4.107164743397e-01
    10   -4.360963151738e-01
    11   -4.629697054502e-02
    12    9.355518640059e-01
    13    9.911184609285e-01
    14    1.053201608583e-01
    15   -8.535917446125e-04
    16    1.186239720896e-02
    17   -1.337608676418e-02
    18    2.306544970456e-01
    19    1.135877106721e-02
    20   -1.366505154997e-02
    21    1.076987277474e+00
    22    4.838713620268e-02
    23    1.489949561152e-01
    24    1.136546170078e-02
    25   -5.643334500748e-04
    26   -1.844643394153e-03
    27   -4.097099894185e-04
    28   -4.082549181303e-01
    29   -4.341691181306e-01
    30   -4.598306195184e-02
    31    9.318783313656e-01
    32    9.872288064333e-01
    33    1.047317979240e-01
    34    2.090427480166e-03
    35   -1.195468639475e-02
    36    1.319865938642e-02
    37   -2.301364779421e-01
    38   -1.128983778483e-02
    39    1.211583512480e-02
    40   -1.074742379056e+00
    41    4.889280151831e-02
    42    1.482401203497e-01
    43    1.130081682098e-02
    44   -1.558093173379e-02
    45    1.074103377689e+00
    46    1.463262363840e-01
    47    5.604059893295e-02
    48    1.049767490588e-02
Sym=X
Ene= 0.928006
Spin=Alpha
Occup=0
     1    1.407688659355e-01
     2   -1.230683897020e+00
     3    1.819437796676e-01
     4   -5.505533577223e-03
     5    8.357725568612e-03
     6   -3.508018162658e-04
     7    4.731188621952e-03
     8   -1.355542276674e-02
     9   -4.758139561881e-01
    10   -4.954085833225e-01
    11   -5.300574473280e-02
    12    1.388029473169e+00
    13    1.444950724970e+00
    14    1.546075838632e-01
    15    8.633550235968e-04
    16    6.339996616652e-03
    17   -7.391128229946e-03
    18    1.248503862957e-01
    19    7.925942479169e-03
    20   -1.426053840057e-01
    21    1.226322798131e+00
    22   -1.566542322225e-02
    23    1.820285111946e-01
    24    1.037585601157e-02
    25    6.272318086758e-04
    26    7.615482605984e-03
    27   -3.641162257731e-03
    28    4.691025013295e-01
    29    5.044574072431e-01
    30    5.320866649891e-02
    31   -1.371785302019e+00
    32   -1.469204544839e+00
    33   -1.552344264919e-01
    34   -1.744441523477e-03
    35    6.471935096449e-03
    36   -7.286449255133e-03
    37    1.264660814803e-01
    38    3.393528052585e-03
    39   -1.414812417090e-01
    40    1.241706694304e+00
    41    1.391804572273e-02
    42   -1.833387817571e-01
    43   -1.046109190929e-02
    44    1.420674401317e-01
    45   -1.225861425252e+00
    46   -1.822231322503e-01
    47    6.649956627958e-03
    48   -8.361652307356e-03
Sym=X
Ene= 0.970589
Spin=Alpha
Occup=0
     1   -6.066949869498e-02
     2    8.899832006063e-01
     3   -8.674322818486e-02
     4   -9.660443931340e-02
     5   -1.006702896579e-02
     6    2.708765419999e-02
     7    2.542173032909e-01
     8    5.116590931078e-01
     9    4.811523238648e-01
    10   -4.614918145536e-01
    11   -5.099544277441e-03
    12   -1.466406457377e+00
    13    1.411406251844e+00
    14    1.588908985977e-02
    15   -5.795093921621e-02
    16   -1.257762534381e-02
    17   -9.089948106412e-03
    18    1.613292850870e-02
    19   -2.962795546858e-01
    20   -5.922389655759e-02
    21    9.052596404933e-01
    22    9.203188484536e-02
    23    9.355253504201e-02
    24    1.009217863231e-02
    25   -2.704179112671e-02
    26   -2.515289205676e-01
    27   -5.161973717138e-01
    28    4.877231330244e-01
    29   -4.532036919194e-01
    30   -3.952185569241e-03
    31   -1.492363718976e+00
    32    1.379991924475e+00
    33    1.182618610443e-02
    34    5.787310630115e-02
    35    1.273201790303e-02
    36    8.935727417557e-03
    37   -1.366481804991e-02
    38    2.964443745033e-01
    39    5.890053624538e-02
    40   -8.791365450416e-01
    41    9.215837226235e-02
    42    8.998908531524e-02
    43    9.810523443945e-03
    44    6.023168552661e-02
    45   -9.124277384656e-01
    46   -8.954236074280e-02
    47   -9.660069358643e-02
    48   -1.026575324287e-02
[5D]

======= END OF MOLDEN-FORMATTED INPUT FILE =======


        *************************************************************
        *                                                           *
        *  Thank you very much for using Q-Chem.  Have a nice day.  *
        *                                                           *
        *************************************************************


