                  Welcome to Q-Chem
     A Quantum Leap Into The Future Of Chemistry


 Q-Chem 5.4 (devel), Q-Chem, Inc., Pleasanton, CA (2021)

 E. Epifanovsky,  A. T. B. Gilbert,  Xintian Feng,  Joonho Lee,  Yuezhi Mao,  
 N. Mardirossian,  P. Pokhilko,  A. White,  M. Wormit,  M. P. Coons,  
 A. L. Dempwolff,  Zhengting Gan,  D. Hait,  P. R. Horn,  L. D. Jacobson,  
 I. Kaliman,  J. Kussmann,  A. W. Lange,  Ka Un Lao,  D. S. Levine,  Jie Liu,  
 S. C. McKenzie,  A. F. Morrison,  K. Nanda,  F. Plasser,  D. R. Rehn,  
 M. L. Vidal,  Zhi-Qiang You,  Ying Zhu,  B. Alam,  B. Albrecht,  
 A. Aldossary,  E. Alguire,  J. H. Andersen,  D. Barton,  K. Begam,  A. Behn,  
 Y. A. Bernard,  E. J. Berquist,  H. Burton,  A. Carreras,  K. Carter-Fenk,  
 R. Chakraborty,  A. D. Chien,  K. D. Closser,  V. Cofer-Shabica,  
 S. Dasgupta,  Jia Deng,  M. de Wergifosse,  M. Diedenhofen,  Hainam Do,  
 S. Ehlert,  Po-Tung Fang,  S. Fatehi,  Qingguo Feng,  T. Friedhoff,  
 J. Gayvert,  Qinghui Ge,  G. Gidofalvi,  M. Goldey,  J. Gomes,  
 C. Gonzalez-Espinoza,  S. Gulania,  A. Gunina,  M. W. D. Hanson-Heine,  
 P. H. P. Harbach,  A. W. Hauser,  M. F. Herbst,  M. Hernandez Vera,  
 M. Hodecker,  Z. C. Holden,  S. Houck,  Xunkun Huang,  Kerwin Hui,  
 B. C. Huynh,  M. Ivanov,  Hyunjun Ji,  Hanjie Jiang,  B. Kaduk,  S. Kaehler,  
 K. Khistyaev,  Jaehoon Kim,  P. Klunzinger,  Z. Koczor-Benda,  
 Joong Hoon Koh,  D. Kosenkov,  L. Koulias,  T. Kowalczyk,  C. M. Krauter,  
 K. Kue,  A. Kunitsa,  T. Kus,  A. Landau,  K. V. Lawler,  D. Lefrancois,  
 S. Lehtola,  Rain Li,  Yi-Pei Li,  Jiashu Liang,  M. Liebenthal,  
 Hung-Hsuan Lin,  You-Sheng Lin,  Fenglai Liu,  Kuan-Yu Liu,  
 M. Loipersberger,  A. Luenser,  A. Manjanath,  P. Manohar,  E. Mansoor,  
 S. F. Manzer,  Shan-Ping Mao,  A. V. Marenich,  T. Markovich,  S. Mason,  
 S. A. Maurer,  P. F. McLaughlin,  M. F. S. J. Menger,  J.-M. Mewes,  
 S. A. Mewes,  P. Morgante,  J. W. Mullinax,  K. J. Oosterbaan,  G. Paran,  
 Alexander C. Paul,  Suranjan K. Paul,  F. Pavosevic,  Zheng Pei,  S. Prager,  
 E. I. Proynov,  E. Ramos,  B. Rana,  A. E. Rask,  A. Rettig,  R. M. Richard,  
 F. Rob,  E. Rossomme,  T. Scheele,  M. Scheurer,  M. Schneider,  
 N. Sergueev,  S. M. Sharada,  W. Skomorowski,  D. W. Small,  C. J. Stein,  
 Yu-Chuan Su,  E. J. Sundstrom,  Zhen Tao,  J. Thirman,  T. Tsuchimochi,  
 N. M. Tubman,  S. P. Veccham,  O. Vydrov,  J. Wenzel,  J. Witte,  A. Yamada,  
 Kun Yao,  S. Yeganeh,  S. R. Yost,  A. Zech,  Igor Ying Zhang,  Xing Zhang,  
 Yu Zhang,  D. Zuev,  A. Aspuru-Guzik,  A. T. Bell,  N. A. Besley,  
 K. B. Bravaya,  B. R. Brooks,  D. Casanova,  Jeng-Da Chai,  S. Coriani,  
 C. J. Cramer,  A. E. DePrince, III,  R. A. DiStasio Jr.,  A. Dreuw,  
 B. D. Dunietz,  T. R. Furlani,  W. A. Goddard III,  S. Grimme,  
 S. Hammes-Schiffer,  T. Head-Gordon,  W. J. Hehre,  Chao-Ping Hsu,  
 T.-C. Jagau,  Yousung Jung,  A. Klamt,  Jing Kong,  D. S. Lambrecht,  
 WanZhen Liang,  N. J. Mayhall,  C. W. McCurdy,  J. B. Neaton,  
 C. Ochsenfeld,  J. A. Parkhill,  R. Peverati,  V. A. Rassolov,  Yihan Shao,  
 L. V. Slipchenko,  T. Stauch,  R. P. Steele,  J. E. Subotnik,  
 A. J. W. Thom,  A. Tkatchenko,  D. G. Truhlar,  T. Van Voorhis,  
 T. A. Wesolowski,  K. B. Whaley,  H. L. Woodcock III,  P. M. Zimmerman,  
 S. Faraji,  P. M. W. Gill,  M. Head-Gordon,  J. M. Herbert,  A. I. Krylov

 Additional authors for Version 5.4.1: 
 S. Kotaru,  Shaozhi Li,  Xiangyuan Li,  F. Matz,  A. Molle,  Haisheng Ren,  
 Yingli Su,  Hung-Yi Tsai,  C. Utku,  Fang Wang

 Contributors to earlier versions of Q-Chem not listed above: 
 R. D. Adamson,  B. Austin,  R. Baer,  J. Baker,  G. J. O. Beran,  
 K. Brandhorst,  S. T. Brown,  E. F. C. Byrd,  A. K. Chakraborty,  
 G. K. L. Chan,  Chun-Min Chang,  Yunqing Chen,  C.-L. Cheng,  
 Siu Hung Chien,  D. M. Chipman,  D. L. Crittenden,  H. Dachsel,  
 R. J. Doerksen,  A. D. Dutoi,  R. G. Edgar,  J. Fosso-Tande,  
 L. Fusti-Molnar,  D. Ghosh,  A. Ghysels,  A. Golubeva-Zadorozhnaya,  
 J. Gonthier,  M. S. Gordon,  S. R. Gwaltney,  G. Hawkins,  J. E. Herr,  
 A. Heyden,  S. Hirata,  E. G. Hohenstein,  G. Kedziora,  F. J. Keil,  
 C. Kelley,  Jihan Kim,  R. A. King,  R. Z. Khaliullin,  P. P. Korambath,  
 W. Kurlancheek,  A. Laurent,  A. M. Lee,  M. S. Lee,  S. V. Levchenko,  
 Ching Yeh Lin,  D. Liotard,  E. Livshits,  R. C. Lochan,  I. Lotan,  
 L. A. Martinez-Martinez,  P. E. Maslen,  N. Nair,  D. P. O'Neill,  
 D. Neuhauser,  E. Neuscamman,  C. M. Oana,  R. Olivares-Amaya,  R. Olson,  
 T. M. Perrine,  B. Peters,  P. A. Pieniazek,  A. Prociuk,  Y. M. Rhee,  
 J. Ritchie,  M. A. Rohrdanz,  E. Rosta,  N. J. Russ,  H. F. Schaefer III,  
 M. W. Schmidt,  N. E. Schultz,  S. Sharma,  N. Shenvi,  C. D. Sherrill,  
 A. C. Simmonett,  A. Sodt,  T. Stein,  D. Stuck,  K. S. Thanthiriwatte,  
 V. Vanovschi,  L. Vogt,  Tao Wang,  A. Warshel,  M. A. Watson,  
 C. F. Williams,  Q. Wu,  X. Xu,  Jun Yang,  W. Zhang,  Yan Zhao

 Please cite Q-Chem as follows:
 Y. Shao et al., Mol. Phys. 113, 184-215 (2015)
 DOI: 10.1080/00268976.2014.952696

 Q-Chem 5.4.1 for Intel X86 EM64T Linux

 Parts of Q-Chem use Armadillo 9.800.1 (Horizon Scraper).
 http://arma.sourceforge.net/

 Q-Chem begins on Wed Mar 15 16:19:39 2023  

 Host: cpu121.yggdrasil
0

     Scratch files written to /srv/beegfs/scratch/users/f/fum/qchem68228//
 Processing $rem in /home/share/wesolowski/qc5.aug2021.FDE/config/preferences:
 Processing $rem in /home/fum/.qchemrc:

 Checking the input file for inconsistencies... 	...done.

--------------------------------------------------------------
User input:
--------------------------------------------------------------
$comment
generated from CCJob.Templates
$end

$rem
sym_ignore = true
method = adc(2)
ee_states = 10
basis = cc-pVDZ
mem_static = 1024
mem_total = 40000
adc_davidson_maxiter = 900
adc_davidson_conv = 6
adc_print = 3
adc_prop_es = true
adc_prop_es2es = true
adc_prop_tpa = true
molden_format = True
state_analysis = true
print_orbitals = 15
gen_scfman = false
fde_export_density = true
fde_details = 3
$end

$molecule
0 1
H -0.0348278765 -0.2442097827 0.0636489606
C -1.0765972949 -0.5242748755 -0.0023551776
H -1.313264467 -1.5767591607 -0.0757276926
C -2.043634118 0.3926884087 0.0061254933
H -1.8137616575 1.4059188338 0.0804456828
H -3.085977293 0.114931858 -0.0593381042                     
$end
--------------------------------------------------------------
 ----------------------------------------------------------------
             Standard Nuclear Orientation (Angstroms)
    I     Atom           X                Y                Z
 ----------------------------------------------------------------
    1      H      -0.0348278765    -0.2442097827     0.0636489606
    2      C      -1.0765972949    -0.5242748755    -0.0023551776
    3      H      -1.3132644670    -1.5767591607    -0.0757276926
    4      C      -2.0436341180     0.3926884087     0.0061254933
    5      H      -1.8137616575     1.4059188338     0.0804456828
    6      H      -3.0859772930     0.1149318580    -0.0593381042
 ----------------------------------------------------------------
 Nuclear Repulsion Energy =          33.56997821 hartrees
 There are        8 alpha and        8 beta electrons
 Requested basis set is cc-pVDZ
 There are 24 shells and 48 basis functions
 Total memory of 40000 MB is distributed as follows: 
   MEM_STATIC is set to 1024 MB
   QALLOC/CCMAN JOB total memory use is  38976 MB
 Warning: actual memory use might exceed 40000 MB

 Total QAlloc Memory Limit  40000 MB
 Mega-Array Size      1001 MB
 MEM_STATIC part      1024 MB

                       Distance Matrix (Angstroms)
             H (  1)   C (  2)   H (  3)   C (  4)   H (  5)
   C (  2)  1.080776
   H (  3)  1.851895  1.081258
   C (  4)  2.108139  1.332687  2.102109
   H (  5)  2.426481  2.067829  3.028408  1.041634
   H (  6)  3.074674  2.109370  2.450428  1.080700  1.817889

 A cutoff of  1.0D-11 yielded    300 shell pairs
 There are      1220 function pairs (      1329 Cartesian)
 Smallest overlap matrix eigenvalue = 4.81E-03

 Scale SEOQF with 1.000000e-01/1.000000e-01/1.000000e+00

 Standard Electronic Orientation quadrupole field applied
 Nucleus-field energy     =     0.0000000021 hartrees
 Guess from superposition of atomic densities
 Warning:  Energy on first SCF cycle will be non-variational
 SAD guess density has 16.000000 electrons
 A restricted Hartree-Fock SCF calculation will be
 performed using Pulay DIIS extrapolation
 SCF converges when DIIS error is below 1.0E-08
 using 10 threads for integral computing
 -------------------------------------------------------
 OpenMP Integral computing Module                
 Release: version 1.0, May 2013, Q-Chem Inc. Pittsburgh 
 -------------------------------------------------------
 ---------------------------------------
  Cycle       Energy         DIIS Error
 ---------------------------------------
    1     -78.4670227180      1.02E-01
    2     -78.0161280798      7.27E-03
    3     -78.0369233098      1.87E-03
    4     -78.0384196912      5.91E-04
    5     -78.0385486431      6.99E-05
    6     -78.0385508284      2.28E-05
    7     -78.0385510496      6.74E-06
    8     -78.0385510700      1.52E-06
    9     -78.0385510721      4.87E-07
   10     -78.0385510723      8.98E-08
   11     -78.0385510723      6.23E-09 Convergence criterion met
 ---------------------------------------
 SCF time:  CPU 1.91 s  wall 2.66 s
 SCF   energy in the final basis set = -78.03855107
 Total energy in the final basis set = -78.03855107
Exporting Density Matrix to file 'Densmat_SCF.txt'.
Export successful
================================================================================
|                                                                              |
|                                 A D C  M A N                                 |
|                                                                              |
 ------------------------------------------------------------------------------ 
|                                                                              |
| Components:                                                                  |
|                                                                              |
| - libvmm - 1.3-trunk                                                         |
|   Authors:                                                                   |
|   Evgeny Epifanovsky, Ilya Kaliman                                           |
|                                                                              |
| - libtensor - 2.5-trunk                                                      |
|   Authors:                                                                   |
|   Evgeny Epifanovsky, Michael Wormit, Dmitry Zuev, Sam Manzer,               |
|   Ilya Kaliman                                                               |
|                                                                              |
| - libwfa - 1.1-trunk                                                         |
|   Authors:                                                                   |
|   Felix Plasser, Stefanie Mewes (Baeppler), Benjamin Thomitzni,              |
|   Michael Wormit, Feng Chen, Anna I. Krylov, Pavel Pokhilko                  |
|                                                                              |
| - libadc - 1.1-trunk                                                         |
|   Authors:                                                                   |
|   Michael Wormit, Adrian L. Dempwolff, Philipp H. P. Harbach,                |
|   Caroline Krauter, Dirk Rehn, Matthias Schneider, Jan Wenzel                |
|                                                                              |
| - adcman - 2.6-trunk                                                         |
|   Authors:                                                                   |
|   Michael Wormit, Adrian L. Dempwolff, Philipp H. P. Harbach,                |
|   Caroline Krauter, Daniel Lefrancois, Jan-Michael Mewes, Dirk Rehn,         |
|   Matthias Schneider, Jan Wenzel, Andreas Dreuw                              |
|                                                                              |
| Authors of earlier versions of ADCMAN:                                       |
| Andreas Dreuw, Jan Hendrik Starcke, Dirk Rehn, Michael Wormit                |
|                                                                              |
================================================================================

 Created directory /srv/beegfs/scratch/users/f/fum/qchem68228/plots
  Import QC data ...  CPU 0.00 s  wall 0.00 s

 Alpha MOs, Restricted
 -- Occupied --                  
-11.234 -11.230  -1.034  -0.794  -0.645  -0.583  -0.508  -0.374
  1 A     2 A     3 A     4 A     5 A     6 A     7 A     8 A                  
 -- Virtual --                   
  0.168   0.204   0.234   0.241   0.303   0.462   0.577   0.618
  9 A    10 A    11 A    12 A    13 A    14 A    15 A    16 A                  
  0.689   0.713   0.790   0.808   0.865   0.941   0.974   1.013
 17 A    18 A    19 A    20 A    21 A    22 A    23 A    24 A                  
  1.131   1.233   1.259   1.267   1.296   1.607   1.730   1.761
 25 A    26 A    27 A    28 A    29 A    30 A    31 A    32 A                  
  1.824   1.861   1.873   1.935   1.978   1.991   2.223   2.263
 33 A    34 A    35 A    36 A    37 A    38 A    39 A    40 A                  
  2.388   2.472   2.519   2.647   2.747   2.852   3.169   3.428
 41 A    42 A    43 A    44 A    45 A    46 A    47 A    48 A                  

 Beta MOs, Restricted
 -- Occupied --                  
-11.234 -11.230  -1.034  -0.794  -0.645  -0.583  -0.508  -0.374
  1 A     2 A     3 A     4 A     5 A     6 A     7 A     8 A                  
 -- Virtual --                   
  0.168   0.204   0.234   0.241   0.303   0.462   0.577   0.618
  9 A    10 A    11 A    12 A    13 A    14 A    15 A    16 A                  
  0.689   0.713   0.790   0.808   0.865   0.941   0.974   1.013
 17 A    18 A    19 A    20 A    21 A    22 A    23 A    24 A                  
  1.131   1.233   1.259   1.267   1.296   1.607   1.730   1.761
 25 A    26 A    27 A    28 A    29 A    30 A    31 A    32 A                  
  1.824   1.861   1.873   1.935   1.978   1.991   2.223   2.263
 33 A    34 A    35 A    36 A    37 A    38 A    39 A    40 A                  
  2.388   2.472   2.519   2.647   2.747   2.852   3.169   3.428
 41 A    42 A    43 A    44 A    45 A    46 A    47 A    48 A                  
  Import AO data ...  CPU 0.00 s  wall 0.03 s
  Using point group: C1
  Irreducible representations in point group: A
  Molecular orbitals: 
  Occupied MOs:
  Block   0:   1 (  A) A   2 (  A) A   3 (  A) A   4 (  A) A   5 (  A) A
                  -11.23      -11.23      -1.034     -0.7936     -0.6448
               6 (  A) A   7 (  A) A   8 (  A) A
                 -0.5825     -0.5078     -0.3737
  Block   1:   1 (  A) B   2 (  A) B   3 (  A) B   4 (  A) B   5 (  A) B
                  -11.23      -11.23      -1.034     -0.7936     -0.6448
               6 (  A) B   7 (  A) B   8 (  A) B
                 -0.5825     -0.5078     -0.3737
  Virtual MOs:
  Block   0:   9 (  A) A  10 (  A) A  11 (  A) A  12 (  A) A  13 (  A) A
                  0.1685      0.2045       0.234      0.2414      0.3034
              14 (  A) A  15 (  A) A  16 (  A) A  17 (  A) A  18 (  A) A
                  0.4624      0.5767      0.6176      0.6895      0.7126
              19 (  A) A  20 (  A) A  21 (  A) A  22 (  A) A
                  0.7904      0.8082      0.8651      0.9412
  Block   1:  23 (  A) A  24 (  A) A  25 (  A) A  26 (  A) A  27 (  A) A
                  0.9742       1.013       1.131       1.233       1.259
              28 (  A) A  29 (  A) A  30 (  A) A  31 (  A) A  32 (  A) A
                   1.267       1.296       1.607        1.73       1.761
              33 (  A) A  34 (  A) A  35 (  A) A  36 (  A) A
                   1.824       1.861       1.873       1.935
  Block   2:  37 (  A) A  38 (  A) A  39 (  A) A  40 (  A) A  41 (  A) A
                   1.978       1.991       2.223       2.263       2.388
              42 (  A) A  43 (  A) A  44 (  A) A  45 (  A) A  46 (  A) A
                   2.472       2.519       2.647       2.747       2.852
              47 (  A) A  48 (  A) A
                   3.169       3.428
  Block   3:   9 (  A) B  10 (  A) B  11 (  A) B  12 (  A) B  13 (  A) B
                  0.1685      0.2045       0.234      0.2414      0.3034
              14 (  A) B  15 (  A) B  16 (  A) B  17 (  A) B  18 (  A) B
                  0.4624      0.5767      0.6176      0.6895      0.7126
              19 (  A) B  20 (  A) B  21 (  A) B  22 (  A) B
                  0.7904      0.8082      0.8651      0.9412
  Block   4:  23 (  A) B  24 (  A) B  25 (  A) B  26 (  A) B  27 (  A) B
                  0.9742       1.013       1.131       1.233       1.259
              28 (  A) B  29 (  A) B  30 (  A) B  31 (  A) B  32 (  A) B
                   1.267       1.296       1.607        1.73       1.761
              33 (  A) B  34 (  A) B  35 (  A) B  36 (  A) B
                   1.824       1.861       1.873       1.935
  Block   5:  37 (  A) B  38 (  A) B  39 (  A) B  40 (  A) B  41 (  A) B
                   1.978       1.991       2.223       2.263       2.388
              42 (  A) B  43 (  A) B  44 (  A) B  45 (  A) B  46 (  A) B
                   2.472       2.519       2.647       2.747       2.852
              47 (  A) B  48 (  A) B
                   3.169       3.428
  Import MO data ...  CPU 0.01 s  wall 0.01 s
  Import HF data ...  CPU 0.07 s  wall 0.03 s
  Import 2e integrals ...  CPU 0.88 s  wall 0.14 s

--------------------------------------------------------------------------------
                                   HF Summary                                   
--------------------------------------------------------------------------------
  Energy:                                                  -78.0385510723 a.u.
  Dip. moment [a.u.]:                  [   0.000187,    0.007035,    0.001555]
  Total dipole [Debye]:                                               0.018318
  <r^2> [a.u.]:                        [ 175.308833,   34.510789,   11.589217]
  Total <r^2> [a.u.]:                                               221.408839
--------------------------------------------------------------------------------
  HF properties ...  CPU 0.01 s  wall 0.00 s
  MP(1) calculation ...  CPU 0.01 s  wall 0.00 s
  N^6 prerequesite intermediates ...  CPU 0.44 s  wall 0.07 s
  Difference density matrix of state mp2_gs printed to ASCII file 'State_mp2_gs_Difference.txt'
Exporting MP density matrix to file 'Densmat_MP.txt'.
Export successful
  Total density matrix of state mp2_gs printed to ASCII file 'State_mp2_gs_Total.txt'
Exporting MP density matrix to file 'Densmat_MP.txt'.
Export successful

--------------------------------------------------------------------------------
                                 MP(2) Summary                                  
--------------------------------------------------------------------------------
  MP energy contribution:                                   -0.2791605705 a.u.
  Total energy:                                            -78.3177116428 a.u.
  Dip. moment [a.u.]:                  [  -0.000313,    0.006360,    0.001476]
  Total dipole [Debye]:                                               0.016613
  <r^2> [a.u.]:                        [ 175.353962,   34.556746,   11.423677]
  Total <r^2> [a.u.]:                                               221.334385

  Density matrix analysis:
  ------------------------
  NOs
    Occupation of frontier NOs:
       0.0453   1.9384
    Number of electrons: 16.000000
    Number of unpaired electrons: n_u =  0.40090, n_u,nl =  0.04463
    NO participation ratio (PR_NO): 13.821312
  
  
  Mulliken Population Analysis
  Atom      Charge (e)              h+              e-           Del q
  --------------------------------------------------------------------
   1 H        0.050412        0.014014       -0.011177        0.002837
   2 C       -0.106984        0.093591       -0.098914       -0.005324
   3 H        0.049841        0.014059       -0.011179        0.002881
   4 C       -0.081208        0.090555       -0.097750       -0.007195
   5 H        0.038504        0.014752       -0.011003        0.003749
   6 H        0.049436        0.014134       -0.011082        0.003052
  --------------------------------------------------------------------
  Sum:       -0.000000        0.241105       -0.241105       -0.000000
  
  Multipole moment analysis of the density matrix
    Molecular charge:                      0.000000
    Number of electrons:                   16.000000
      Center of electronic charge [Ang]: [ -1.560566,  -0.068313,   0.001929]
    Total nuclear charge:                  16.000000
      Center of nuclear charge [Ang]:    [ -1.560576,  -0.068102,   0.001978]
    Dipole moment [D]:                     0.016613
      Cartesian components [D]:          [ -0.000794,   0.016164,   0.003752]
    RMS size of the density [Ang]:         1.197376
      Cartesian components [Ang]:        [  0.796016,   0.774686,   0.447136]
  
  Exciton analysis of the difference density matrix
    <r_h> [Ang]:                  [ -1.558655,  -0.073784,   0.001511]
    <r_e> [Ang]:                  [ -1.557559,  -0.072302,   0.001683]
    |<r_e - r_h>| [Ang]:            0.001851
    Hole size [Ang]:                1.388939
      Cartesian components [Ang]: [  0.846827,   0.826335,   0.727465]
    Electron size [Ang]:            1.358789
      Cartesian components [Ang]: [  0.879173,   0.858150,   0.580466]
--------------------------------------------------------------------------------
  MP(2) calculation ...  CPU 0.11 s  wall 0.37 s
  Start ADC(2)-s ...  CPU 0.01 s  wall 0.00 s
  ADC(2) intermediates ...  CPU 0.02 s  wall 0.01 s
  Starting Davidson for singlet states of irrep A ... 
--------------------------------------------------------------------------------
   It NVec Conv  Avg. Norm  Max. Norm  Conv. states           Remark
--------------------------------------------------------------------------------
        10    0  1.330e-01  4.690e-01  0.4123 n n n n n n n n Guess.
    1   20    0  2.333e-02  1.108e-01  0.3262 n n n n n n n n 
    2   30    0  5.967e-03  2.835e-02  0.3214 n n n n n n n n 
    3   40    0  2.137e-03  1.527e-02  0.3210 n n n n n n n n 
    4   50    0  7.163e-04  5.651e-03  0.3210 n n n n n n n n 
    5   20    0  3.261e-04  2.498e-03  0.3210 n n n n n n n n Subspace collapsed.
    6   30    0  2.407e-04  2.210e-03  0.3210 n n n n n n n n 
    7   40    0  1.350e-04  1.076e-03  0.3210 n n n n n n n n 
    8   50    0  1.026e-04  9.408e-04  0.3210 n n n n n n n n 
    9   20    1  8.847e-05  8.510e-04  0.3210 n y n n n n n n Subspace collapsed.
   10   30    2  6.932e-05  6.634e-04  0.3210 n y n y n n n n 
   11   40    4  5.552e-05  5.436e-04  0.3210 n y y y y n n n 
   12   50    5  4.317e-05  4.272e-04  0.3210 n y y y y y n n 
   13   20    6  2.172e-05  2.153e-04  0.3210 y y y y y y n n Subspace collapsed.
   14   30    6  1.609e-05  1.599e-04  0.3210 y y y y y y n n 
   15   40    6  9.309e-06  9.201e-05  0.3210 y y y y y y n n 
   16   50    7  7.995e-06  7.967e-05  0.3210 y y y y y y n y 
   17   20    7  5.068e-06  5.059e-05  0.3210 y y y y y y n y Subspace collapsed.
   18   30    7  8.819e-06  8.814e-05  0.3210 y y y y y y n y 
   19   40    8  8.560e-06  8.558e-05  0.3210 y y y y y y y y 
   20   50    9  7.358e-06  7.358e-05  0.3210 y y y y y y y y 
   21   20    9  3.113e-06  3.113e-05  0.3210 y y y y y y y y Subspace collapsed.
   22   30    9  2.744e-06  2.744e-05  0.3210 y y y y y y y y 
   23   40    9  1.404e-06  1.404e-05  0.3210 y y y y y y y y 
   24   41    9  1.403e-06  1.403e-05  0.3210 y y y y y y y y 
   25   42    9  1.399e-06  1.399e-05  0.3210 y y y y y y y y 
   26   43    9  1.379e-06  1.379e-05  0.3210 y y y y y y y y 
   27   43    9  1.379e-06  1.379e-05  0.3210 y y y y y y y y 
   28   50    9  1.505e-06  1.505e-05  0.3210 y y y y y y y y 
   29   16    9  9.496e-07  9.496e-06  0.3210 y y y y y y y y Subspace collapsed.
   30   21    9  1.280e-06  1.280e-05  0.3210 y y y y y y y y 
   31   27    9  1.790e-06  1.790e-05  0.3210 y y y y y y y y 
   32   32    9  1.484e-06  1.484e-05  0.3210 y y y y y y y y 
   33   36    9  8.511e-07  8.511e-06  0.3210 y y y y y y y y 
   34   40    9  3.025e-07  3.025e-06  0.3210 y y y y y y y y 
   35   44    9  1.561e-07  1.561e-06  0.3210 y y y y y y y y 
   36   48   10  8.337e-08  8.337e-07  0.3210 y y y y y y y y Converged.
--------------------------------------------------------------------------------
  Davidson Summary: 
 ------------------------------------------------------------
  State  0: excitation energy =   0.3210 a.u.   (converged)
  State  1: excitation energy =   0.3348 a.u.   (converged)
  State  2: excitation energy =   0.3380 a.u.   (converged)
  State  3: excitation energy =   0.3634 a.u.   (converged)
  State  4: excitation energy =   0.3766 a.u.   (converged)
  State  5: excitation energy =   0.3881 a.u.   (converged)
  State  6: excitation energy =   0.4278 a.u.   (converged)
  State  7: excitation energy =   0.4487 a.u.   (converged)
  State  8: excitation energy =   0.4579 a.u.   (converged)
  State  9: excitation energy =   0.4683 a.u.   (converged)
 ------------------------------------------------------------

  Singlet states of irrep A ...  CPU 106.74 s  wall 27.81 s
  TDMs ...  CPU 0.59 s  wall 0.23 s
  SDMs ...  CPU 1.37 s  wall 0.45 s
  Starting TPA DIIS iterations ... 
------------------------------------ 
   It     Res. Norm  Remark
------------------------------------
                       Guess.
    1     4.408e+00  
    2     5.850e+00  
    3     1.080e+00  
    4     2.582e-01  
    5     6.639e-02  
    6     2.705e-02  
    7     8.201e-03  
    8     1.458e-03  
    9     5.360e-04  
   10     8.864e-05  
   11     2.824e-05  
   12     4.491e-06  
   13     1.560e-06  
   14     5.841e-07  Converged.
   ... Converged in 14 steps (norm: 5.84116e-07)
------------------------------------
  Starting TPA DIIS iterations ... 
------------------------------------ 
   It     Res. Norm  Remark
------------------------------------
                       Guess.
    1     4.204e+00  
    2     5.564e+00  
    3     1.019e+00  
    4     2.466e-01  
    5     6.460e-02  
    6     2.516e-02  
    7     7.894e-03  
    8     1.316e-03  
    9     4.830e-04  
   10     8.334e-05  
   11     2.531e-05  
   12     4.319e-06  
   13     1.338e-06  
   14     5.541e-07  Converged.
   ... Converged in 14 steps (norm: 5.54077e-07)
------------------------------------
  Starting TPA DIIS iterations ... 
------------------------------------ 
   It     Res. Norm  Remark
------------------------------------
                       Guess.
    1     6.881e-01  
    2     4.857e-01  
    3     1.721e-01  
    4     5.809e-02  
    5     1.802e-02  
    6     6.668e-03  
    7     1.097e-03  
    8     4.075e-04  
    9     1.639e-04  
   10     2.918e-05  
   11     1.948e-05  
   12     7.413e-06  
   13     3.898e-06  
   14     1.613e-06  
   15     4.635e-07  Converged.
   ... Converged in 15 steps (norm: 4.63517e-07)
------------------------------------
  Starting TPA DIIS iterations ... 
------------------------------------ 
   It     Res. Norm  Remark
------------------------------------
                       Guess.
    1     4.751e+00  
    2     6.467e+00  
    3     1.177e+00  
    4     2.925e-01  
    5     7.642e-02  
    6     3.145e-02  
    7     9.510e-03  
    8     1.689e-03  
    9     6.261e-04  
   10     1.042e-04  
   11     3.360e-05  
   12     5.423e-06  
   13     1.928e-06  
   14     7.373e-07  Converged.
   ... Converged in 14 steps (norm: 7.37314e-07)
------------------------------------
  Starting TPA DIIS iterations ... 
------------------------------------ 
   It     Res. Norm  Remark
------------------------------------
                       Guess.
    1     4.531e+00  
    2     6.150e+00  
    3     1.110e+00  
    4     2.790e-01  
    5     7.438e-02  
    6     2.924e-02  
    7     9.153e-03  
    8     1.522e-03  
    9     5.635e-04  
   10     9.800e-05  
   11     3.014e-05  
   12     5.252e-06  
   13     1.636e-06  
   14     7.085e-07  Converged.
   ... Converged in 14 steps (norm: 7.08455e-07)
------------------------------------
  Starting TPA DIIS iterations ... 
------------------------------------ 
   It     Res. Norm  Remark
------------------------------------
                       Guess.
    1     7.024e-01  
    2     5.066e-01  
    3     1.840e-01  
    4     6.713e-02  
    5     1.972e-02  
    6     7.402e-03  
    7     1.269e-03  
    8     4.754e-04  
    9     1.940e-04  
   10     3.756e-05  
   11     2.384e-05  
   12     9.205e-06  
   13     5.067e-06  
   14     2.177e-06  
   15     5.881e-07  Converged.
   ... Converged in 15 steps (norm: 5.88114e-07)
------------------------------------
  Starting TPA DIIS iterations ... 
------------------------------------ 
   It     Res. Norm  Remark
------------------------------------
                       Guess.
    1     4.839e+00  
    2     6.627e+00  
    3     1.202e+00  
    4     3.016e-01  
    5     7.907e-02  
    6     3.262e-02  
    7     9.856e-03  
    8     1.750e-03  
    9     6.501e-04  
   10     1.083e-04  
   11     3.504e-05  
   12     5.676e-06  
   13     2.030e-06  
   14     7.803e-07  Converged.
   ... Converged in 14 steps (norm: 7.80261e-07)
------------------------------------
  Starting TPA DIIS iterations ... 
------------------------------------ 
   It     Res. Norm  Remark
------------------------------------
                       Guess.
    1     4.614e+00  
    2     6.303e+00  
    3     1.133e+00  
    4     2.876e-01  
    5     7.696e-02  
    6     3.032e-02  
    7     9.485e-03  
    8     1.576e-03  
    9     5.849e-04  
   10     1.019e-04  
   11     3.144e-05  
   12     5.507e-06  
   13     1.718e-06  
   14     7.523e-07  Converged.
   ... Converged in 14 steps (norm: 7.52307e-07)
------------------------------------
  Starting TPA DIIS iterations ... 
------------------------------------ 
   It     Res. Norm  Remark
------------------------------------
                       Guess.
    1     7.059e-01  
    2     5.118e-01  
    3     1.870e-01  
    4     6.957e-02  
    5     2.015e-02  
    6     7.595e-03  
    7     1.315e-03  
    8     4.932e-04  
    9     2.020e-04  
   10     3.994e-05  
   11     2.503e-05  
   12     9.708e-06  
   13     5.403e-06  
   14     2.340e-06  
   15     6.206e-07  Converged.
   ... Converged in 15 steps (norm: 6.20649e-07)
------------------------------------
  Starting TPA DIIS iterations ... 
------------------------------------ 
   It     Res. Norm  Remark
------------------------------------
                       Guess.
    1     5.625e+00  
    2     8.099e+00  
    3     1.422e+00  
    4     3.877e-01  
    5     1.041e-01  
    6     4.379e-02  
    7     1.313e-02  
    8     2.326e-03  
    9     8.788e-04  
   10     1.478e-04  
   11     4.908e-05  
   12     8.174e-06  
   13     3.085e-06  
   14     1.238e-06  
   15     5.111e-07  Converged.
   ... Converged in 15 steps (norm: 5.11136e-07)
------------------------------------
  Starting TPA DIIS iterations ... 
------------------------------------ 
   It     Res. Norm  Remark
------------------------------------
                       Guess.
    1     5.362e+00  
    2     7.702e+00  
    3     1.341e+00  
    4     3.685e-01  
    5     1.014e-01  
    6     4.065e-02  
    7     1.263e-02  
    8     2.088e-03  
    9     7.890e-04  
   10     1.393e-04  
   11     4.419e-05  
   12     8.082e-06  
   13     2.563e-06  
   14     1.233e-06  
   15     3.685e-07  Converged.
   ... Converged in 15 steps (norm: 3.68482e-07)
------------------------------------
  Starting TPA DIIS iterations ... 
------------------------------------ 
   It     Res. Norm  Remark
------------------------------------
                       Guess.
    1     7.340e-01  
    2     5.560e-01  
    3     2.132e-01  
    4     9.337e-02  
    5     2.394e-02  
    6     9.420e-03  
    7     1.763e-03  
    8     6.528e-04  
    9     2.776e-04  
   10     6.523e-05  
   11     3.717e-05  
   12     1.506e-05  
   13     9.186e-06  
   14     4.116e-06  
   15     9.352e-07  Converged.
   ... Converged in 15 steps (norm: 9.35233e-07)
------------------------------------
  Starting TPA DIIS iterations ... 
------------------------------------ 
   It     Res. Norm  Remark
------------------------------------
                       Guess.
    1     6.117e+00  
    2     9.053e+00  
    3     1.559e+00  
    4     4.456e-01  
    5     1.210e-01  
    6     5.139e-02  
    7     1.534e-02  
    8     2.713e-03  
    9     1.034e-03  
   10     1.747e-04  
   11     5.885e-05  
   12     9.948e-06  
   13     3.880e-06  
   14     1.595e-06  
   15     6.671e-07  Converged.
   ... Converged in 15 steps (norm: 6.67061e-07)
------------------------------------
  Starting TPA DIIS iterations ... 
------------------------------------ 
   It     Res. Norm  Remark
------------------------------------
                       Guess.
    1     5.831e+00  
    2     8.609e+00  
    3     1.470e+00  
    4     4.228e-01  
    5     1.179e-01  
    6     4.768e-02  
    7     1.475e-02  
    8     2.430e-03  
    9     9.279e-04  
   10     1.649e-04  
   11     5.315e-05  
   12     9.968e-06  
   13     3.200e-06  
   14     1.625e-06  
   15     5.094e-07  Converged.
   ... Converged in 15 steps (norm: 5.09398e-07)
------------------------------------
  Starting TPA DIIS iterations ... 
------------------------------------ 
   It     Res. Norm  Remark
------------------------------------
                       Guess.
    1     7.495e-01  
    2     5.817e-01  
    3     2.290e-01  
    4     1.100e-01  
    5     2.634e-02  
    6     1.065e-02  
    7     2.076e-03  
    8     7.484e-04  
    9     3.276e-04  
   10     8.429e-05  
   11     4.613e-05  
   12     1.924e-05  
   13     1.241e-05  
   14     5.499e-06  
   15     1.180e-06  
   16     5.141e-07  Converged.
   ... Converged in 16 steps (norm: 5.14087e-07)
------------------------------------
  Starting TPA DIIS iterations ... 
------------------------------------ 
   It     Res. Norm  Remark
------------------------------------
                       Guess.
    1     6.612e+00  
    2     1.004e+01  
    3     1.696e+00  
    4     5.067e-01  
    5     1.388e-01  
    6     5.948e-02  
    7     1.766e-02  
    8     3.120e-03  
    9     1.200e-03  
   10     2.032e-04  
   11     6.931e-05  
   12     1.188e-05  
   13     4.785e-06  
   14     2.015e-06  
   15     8.475e-07  Converged.
   ... Converged in 15 steps (norm: 8.47459e-07)
------------------------------------
  Starting TPA DIIS iterations ... 
------------------------------------ 
   It     Res. Norm  Remark
------------------------------------
                       Guess.
    1     6.301e+00  
    2     9.543e+00  
    3     1.600e+00  
    4     4.799e-01  
    5     1.352e-01  
    6     5.515e-02  
    7     1.698e-02  
    8     2.789e-03  
    9     1.075e-03  
   10     1.921e-04  
   11     6.283e-05  
   12     1.208e-05  
   13     3.929e-06  
   14     2.098e-06  
   15     6.918e-07  Converged.
   ... Converged in 15 steps (norm: 6.91771e-07)
------------------------------------
  Starting TPA DIIS iterations ... 
------------------------------------ 
   It     Res. Norm  Remark
------------------------------------
                       Guess.
    1     7.638e-01  
    2     6.064e-01  
    3     2.445e-01  
    4     1.280e-01  
    5     2.881e-02  
    6     1.194e-02  
    7     2.413e-03  
    8     8.379e-04  
    9     3.795e-04  
   10     1.056e-04  
   11     5.620e-05  
   12     2.412e-05  
   13     1.643e-05  
   14     7.075e-06  
   15     1.491e-06  
   16     6.472e-07  Converged.
   ... Converged in 16 steps (norm: 6.47219e-07)
------------------------------------
  Starting TPA DIIS iterations ... 
------------------------------------ 
   It     Res. Norm  Remark
------------------------------------
                       Guess.
    1     8.910e+00  
    2     1.487e+01  
    3     2.320e+00  
    4     8.216e-01  
    5     2.305e-01  
    6     1.021e-01  
    7     2.965e-02  
    8     5.213e-03  
    9     2.066e-03  
   10     3.524e-04  
   11     1.240e-04  
   12     2.272e-05  
   13     1.036e-05  
   14     4.813e-06  
   15     1.994e-06  
   16     6.704e-07  Converged.
   ... Converged in 16 steps (norm: 6.70448e-07)
------------------------------------
  Starting TPA DIIS iterations ... 
------------------------------------ 
   It     Res. Norm  Remark
------------------------------------
                       Guess.
    1     8.487e+00  
    2     1.414e+01  
    3     2.188e+00  
    4     7.728e-01  
    5     2.247e-01  
    6     9.446e-02  
    7     2.848e-02  
    8     4.627e-03  
    9     1.851e-03  
   10     3.355e-04  
   11     1.152e-04  
   12     2.479e-05  
   13     8.664e-06  
   14     5.548e-06  
   15     2.244e-06  
   16     1.419e-06  
   17     4.342e-07  Converged.
   ... Converged in 17 steps (norm: 4.34193e-07)
------------------------------------
  Starting TPA DIIS iterations ... 
------------------------------------ 
   It     Res. Norm  Remark
------------------------------------
                       Guess.
    1     8.171e-01  
    2     7.082e-01  
    3     3.121e-01  
    4     2.233e-01  
    5     4.121e-02  
    6     1.839e-02  
    7     4.218e-03  
    8     1.163e-03  
    9     6.333e-04  
   10     2.245e-04  
   11     1.161e-04  
   12     5.516e-05  
   13     4.474e-05  
   14     1.650e-05  
   15     4.063e-06  
   16     1.472e-06  
   17     4.846e-07  Converged.
   ... Converged in 17 steps (norm: 4.8461e-07)
------------------------------------
  Starting TPA DIIS iterations ... 
------------------------------------ 
   It     Res. Norm  Remark
------------------------------------
                       Guess.
    1     1.068e+01  
    2     1.889e+01  
    3     2.789e+00  
    4     1.092e+00  
    5     3.099e-01  
    6     1.398e-01  
    7     4.001e-02  
    8     7.018e-03  
    9     2.829e-03  
   10     4.827e-04  
   11     1.703e-04  
   12     3.318e-05  
   13     1.629e-05  
   14     8.065e-06  
   15     3.254e-06  
   16     1.074e-06  
   17     5.990e-07  Converged.
   ... Converged in 17 steps (norm: 5.99038e-07)
------------------------------------
  Starting TPA DIIS iterations ... 
------------------------------------ 
   It     Res. Norm  Remark
------------------------------------
                       Guess.
    1     1.017e+01  
    2     1.795e+01  
    3     2.629e+00  
    4     1.023e+00  
    5     3.022e-01  
    6     1.292e-01  
    7     3.841e-02  
    8     6.203e-03  
    9     2.539e-03  
   10     4.623e-04  
   11     1.620e-04  
   12     3.808e-05  
   13     1.422e-05  
   14     9.869e-06  
   15     4.427e-06  
   16     2.598e-06  
   17     8.280e-07  Converged.
   ... Converged in 17 steps (norm: 8.27993e-07)
------------------------------------
  Starting TPA DIIS iterations ... 
------------------------------------ 
   It     Res. Norm  Remark
------------------------------------
                       Guess.
    1     8.488e-01  
    2     7.767e-01  
    3     3.600e-01  
    4     3.028e-01  
    5     5.163e-02  
    6     2.345e-02  
    7     5.786e-03  
    8     1.380e-03  
    9     8.398e-04  
   10     3.313e-04  
   11     1.758e-04  
   12     8.650e-05  
   13     7.266e-05  
   14     2.574e-05  
   15     7.406e-06  
   16     2.385e-06  
   17     7.243e-07  Converged.
   ... Converged in 17 steps (norm: 7.24308e-07)
------------------------------------
  Starting TPA DIIS iterations ... 
------------------------------------ 
   It     Res. Norm  Remark
------------------------------------
                       Guess.
    1     1.164e+01  
    2     2.115e+01  
    3     3.038e+00  
    4     1.245e+00  
    5     3.555e-01  
    6     1.618e-01  
    7     4.597e-02  
    8     8.054e-03  
    9     3.271e-03  
   10     5.578e-04  
   11     1.964e-04  
   12     3.967e-05  
   13     2.020e-05  
   14     1.030e-05  
   15     4.109e-06  
   16     1.373e-06  
   17     8.363e-07  Converged.
   ... Converged in 17 steps (norm: 8.36301e-07)
------------------------------------
  Starting TPA DIIS iterations ... 
------------------------------------ 
   It     Res. Norm  Remark
------------------------------------
                       Guess.
    1     1.108e+01  
    2     2.011e+01  
    3     2.864e+00  
    4     1.165e+00  
    5     3.467e-01  
    6     1.495e-01  
    7     4.412e-02  
    8     7.107e-03  
    9     2.940e-03  
   10     5.360e-04  
   11     1.893e-04  
   12     4.664e-05  
   13     1.811e-05  
   14     1.288e-05  
   15     6.012e-06  
   16     3.398e-06  
   17     1.097e-06  
   18     3.660e-07  Converged.
   ... Converged in 18 steps (norm: 3.66019e-07)
------------------------------------
  Starting TPA DIIS iterations ... 
------------------------------------ 
   It     Res. Norm  Remark
------------------------------------
                       Guess.
    1     8.636e-01  
    2     8.111e-01  
    3     3.847e-01  
    4     3.453e-01  
    5     5.749e-02  
    6     2.608e-02  
    7     6.672e-03  
    8     1.514e-03  
    9     9.550e-04  
   10     3.924e-04  
   11     2.123e-04  
   12     1.054e-04  
   13     8.786e-05  
   14     3.135e-05  
   15     9.703e-06  
   16     3.018e-06  
   17     9.018e-07  Converged.
   ... Converged in 17 steps (norm: 9.01821e-07)
------------------------------------
  Starting TPA DIIS iterations ... 
------------------------------------ 
   It     Res. Norm  Remark
------------------------------------
                       Guess.
    1     1.290e+01  
    2     2.421e+01  
    3     3.360e+00  
    4     1.453e+00  
    5     4.179e-01  
    6     1.921e-01  
    7     5.411e-02  
    8     9.470e-03  
    9     3.880e-03  
   10     6.606e-04  
   11     2.316e-04  
   12     4.912e-05  
   13     2.616e-05  
   14     1.380e-05  
   15     5.467e-06  
   16     1.932e-06  
   17     1.235e-06  
   18     3.547e-07  Converged.
   ... Converged in 18 steps (norm: 3.54701e-07)
------------------------------------
  Starting TPA DIIS iterations ... 
------------------------------------ 
   It     Res. Norm  Remark
------------------------------------
                       Guess.
    1     1.228e+01  
    2     2.302e+01  
    3     3.169e+00  
    4     1.356e+00  
    5     4.076e-01  
    6     1.774e-01  
    7     5.191e-02  
    8     8.340e-03  
    9     3.494e-03  
   10     6.375e-04  
   11     2.270e-04  
   12     5.936e-05  
   13     2.428e-05  
   14     1.756e-05  
   15     8.524e-06  
   16     4.622e-06  
   17     1.498e-06  
   18     4.977e-07  Converged.
   ... Converged in 18 steps (norm: 4.97653e-07)
------------------------------------
  Starting TPA DIIS iterations ... 
------------------------------------ 
   It     Res. Norm  Remark
------------------------------------
                       Guess.
    1     8.812e-01  
    2     8.540e-01  
    3     4.160e-01  
    4     3.986e-01  
    5     6.536e-02  
    6     2.934e-02  
    7     7.855e-03  
    8     1.719e-03  
    9     1.109e-03  
   10     4.749e-04  
   11     2.643e-04  
   12     1.319e-04  
   13     1.063e-04  
   14     3.930e-05  
   15     1.322e-05  
   16     4.048e-06  
   17     1.207e-06  
   18     7.642e-07  Converged.
   ... Converged in 18 steps (norm: 7.6424e-07)
------------------------------------
  Two-photon absorbption ...  CPU 103.78 s  wall 19.24 s
  Transition density matrix of state singlet_A_1 printed to ASCII file 'State_singlet_A_1_Transition.txt'
  Transition density matrix of state singlet_A_2 printed to ASCII file 'State_singlet_A_2_Transition.txt'
  Transition density matrix of state singlet_A_3 printed to ASCII file 'State_singlet_A_3_Transition.txt'
  Transition density matrix of state singlet_A_4 printed to ASCII file 'State_singlet_A_4_Transition.txt'
  Transition density matrix of state singlet_A_5 printed to ASCII file 'State_singlet_A_5_Transition.txt'
  Transition density matrix of state singlet_A_6 printed to ASCII file 'State_singlet_A_6_Transition.txt'
  Transition density matrix of state singlet_A_7 printed to ASCII file 'State_singlet_A_7_Transition.txt'
  Transition density matrix of state singlet_A_8 printed to ASCII file 'State_singlet_A_8_Transition.txt'
  Transition density matrix of state singlet_A_9 printed to ASCII file 'State_singlet_A_9_Transition.txt'
  Transition density matrix of state singlet_A_10 printed to ASCII file 'State_singlet_A_10_Transition.txt'
  Transition properties ...  CPU 0.14 s  wall 2.82 s
  Difference density matrix of state singlet_A_1 printed to ASCII file 'State_singlet_A_1_Difference.txt'
  Total density matrix of state singlet_A_1 printed to ASCII file 'State_singlet_A_1_Total.txt'
  Difference density matrix of state singlet_A_2 printed to ASCII file 'State_singlet_A_2_Difference.txt'
  Total density matrix of state singlet_A_2 printed to ASCII file 'State_singlet_A_2_Total.txt'
  Difference density matrix of state singlet_A_3 printed to ASCII file 'State_singlet_A_3_Difference.txt'
  Total density matrix of state singlet_A_3 printed to ASCII file 'State_singlet_A_3_Total.txt'
  Difference density matrix of state singlet_A_4 printed to ASCII file 'State_singlet_A_4_Difference.txt'
  Total density matrix of state singlet_A_4 printed to ASCII file 'State_singlet_A_4_Total.txt'
  Difference density matrix of state singlet_A_5 printed to ASCII file 'State_singlet_A_5_Difference.txt'
  Total density matrix of state singlet_A_5 printed to ASCII file 'State_singlet_A_5_Total.txt'
  Difference density matrix of state singlet_A_6 printed to ASCII file 'State_singlet_A_6_Difference.txt'
  Total density matrix of state singlet_A_6 printed to ASCII file 'State_singlet_A_6_Total.txt'
  Difference density matrix of state singlet_A_7 printed to ASCII file 'State_singlet_A_7_Difference.txt'
  Total density matrix of state singlet_A_7 printed to ASCII file 'State_singlet_A_7_Total.txt'
  Difference density matrix of state singlet_A_8 printed to ASCII file 'State_singlet_A_8_Difference.txt'
  Total density matrix of state singlet_A_8 printed to ASCII file 'State_singlet_A_8_Total.txt'
  Difference density matrix of state singlet_A_9 printed to ASCII file 'State_singlet_A_9_Difference.txt'
  Total density matrix of state singlet_A_9 printed to ASCII file 'State_singlet_A_9_Total.txt'
  Difference density matrix of state singlet_A_10 printed to ASCII file 'State_singlet_A_10_Difference.txt'
  Total density matrix of state singlet_A_10 printed to ASCII file 'State_singlet_A_10_Total.txt'
  Properties ...  CPU 0.28 s  wall 3.97 s
  ISR TDMS ...  CPU 7.91 s  wall 2.70 s
  ISR transition properties ...  CPU 0.15 s  wall 0.07 s
  Sum-over-states TPA ...  CPU 0.00 s  wall 0.00 s

--------------------------------------------------------------------------------
                   State-averaged natural transition orbitals
--------------------------------------------------------------------------------
--------------------------------------------------------------------------------
  SA-NTO decomposition ...  CPU 0.01 s  wall 0.12 s

--------------------------------------------------------------------------------
                             Excited State Summary
--------------------------------------------------------------------------------
--------------------------------------------------------------------------------

  Excited state 1 (singlet, A)                                     [converged]
  ----------------------------------------------------------------------------
  Term symbol:  2 (1) A                                     R^2 =  1.51879e-13

  Total energy:                                            -77.9966930779 a.u.
  Excitation energy:                                               8.735359 eV

  Osc. strength:                                                      0.444790
  Trans. dip. moment [a.u.]:           [  -1.048585,    0.989309,    0.008641]
  <i|r^2|0> [a.u.]:                    [  -6.192313,    0.279605,    0.002807]
  Two-photon absorption cross-section (SoS) [a.u.]:                   0.038072
  Two-photon absorption matrix (SoS) [a.u.]:
                                       |   -0.005437    0.045410    0.006041 |
                                       |    0.045410    0.052310    0.008451 |
                                       |    0.006041    0.008451   -0.049089 |
  Two-photon absorption cross-section [a.u.]:                         0.025694
  Two-photon absorption matrix [a.u.]:
                                       |   -0.013732    0.030617   -0.000986 |
                                       |    0.030617    0.023134   -0.000160 |
                                       |   -0.000986   -0.000160   -0.053423 |

  Dip. moment [a.u.]:                  [  -0.000475,    0.005703,    0.001839]
  Total dipole [Debye]:                                               0.015278
  <r^2> [a.u.]:                        [ 176.106353,   35.252329,   11.832641]
  Total <r^2> [a.u.]:                                               223.191323

  V1^2 = 0.9716, V2^2 = 0.0284

  Important amplitudes:
      occ i     occ j     vir a      vir b          v   
    -----------------------------------------------------
     8 (A) A              9 (A) A                 0.6812
     6 (A) A             14 (A) A                 0.0626
     4 (A) A             10 (A) A                 0.0597
     7 (A) A             16 (A) A                -0.0568
     5 (A) A             13 (A) A                -0.0504
     6 (A) A             23 (A) A                 0.0479
     8 (A) A             20 (A) A                 0.0350
     6 (A) A             19 (A) A                 0.0313
     3 (A) A             12 (A) A                -0.0271
     7 (A) A             11 (A) A                 0.0211
     5 (A) A             22 (A) A                 0.0208
     4 (A) A             24 (A) A                 0.0186
     3 (A) A             26 (A) A                -0.0184
     8 (A) A   8 (A) B   17 (A) A   20 (A) B     -0.0184
     8 (A) A   8 (A) B    9 (A) A   28 (A) B      0.0168
     6 (A) A             26 (A) A                -0.0164
     7 (A) A             21 (A) A                 0.0143
     3 (A) A             14 (A) A                 0.0137
     3 (A) A   4 (A) B    9 (A) A    9 (A) B     -0.0129
     6 (A) A             12 (A) A                 0.0124
     3 (A) A             19 (A) A                 0.0117
     8 (A) A   8 (A) B   18 (A) A   19 (A) B     -0.0113
     7 (A) A             32 (A) A                 0.0091
     7 (A) A             36 (A) A                -0.0084
     3 (A) A             23 (A) A                 0.0077
     8 (A) A   8 (A) B   25 (A) A   29 (A) B     -0.0076
     6 (A) A             35 (A) A                 0.0072
     6 (A) A             22 (A) A                 0.0069
     6 (A) A             40 (A) A                -0.0068
     7 (A) A              9 (A) A                 0.0067
     3 (A) A             11 (A) A                 0.0065
     3 (A) A   6 (A) B    9 (A) A   28 (A) B      0.0065
     6 (A) A   8 (A) A   19 (A) A   28 (A) A     -0.0061
     5 (A) A   7 (A) B    9 (A) A    9 (A) B     -0.0060
     5 (A) A   8 (A) B   16 (A) A    9 (A) B      0.0059
     7 (A) A   8 (A) B   13 (A) A   20 (A) B      0.0059
     5 (A) A   8 (A) B   11 (A) A   20 (A) B     -0.0058
     3 (A) A   5 (A) B    9 (A) A   25 (A) B     -0.0058
     3 (A) A             40 (A) A                -0.0057
     6 (A) A   8 (A) A    9 (A) A   18 (A) A     -0.0057
    -----------------------------------------------------

  Density matrix analysis:
  ------------------------
  NOs
    Occupation of frontier NOs:
       0.9498   1.0215
    Number of electrons: 16.000000
    Number of unpaired electrons: n_u =  2.31108, n_u,nl =  2.03221
    NO participation ratio (PR_NO):  2.856788
  
  
  Mulliken Population Analysis
  Atom      Charge (e)              h+              e-           Del q
  --------------------------------------------------------------------
   1 H        0.058130        0.020306       -0.012588        0.007718
   2 C       -0.122390        0.490950       -0.506355       -0.015405
   3 H        0.057280        0.020000       -0.012561        0.007439
   4 C       -0.095990        0.490669       -0.505451       -0.014782
   5 H        0.045548        0.019809       -0.012765        0.007044
   6 H        0.057422        0.020522       -0.012536        0.007986
  --------------------------------------------------------------------
  Sum:        0.000000        1.062256       -1.062256        0.000000
  
  Multipole moment analysis of the density matrix
    Molecular charge:                      0.000000
    Number of electrons:                   16.000000
      Center of electronic charge [Ang]: [ -1.560561,  -0.068291,   0.001917]
    Total nuclear charge:                  16.000000
      Center of nuclear charge [Ang]:    [ -1.560576,  -0.068102,   0.001978]
    Dipole moment [D]:                     0.015278
      Cartesian components [D]:          [ -0.001207,   0.014495,   0.004674]
    RMS size of the density [Ang]:         1.210880
      Cartesian components [Ang]:        [  0.804255,   0.782506,   0.455070]
  
  Exciton analysis of the difference density matrix
    <r_h> [Ang]:                  [ -1.560120,  -0.066743,   0.001536]
    <r_e> [Ang]:                  [ -1.560039,  -0.066416,   0.001356]
    |<r_e - r_h>| [Ang]:            0.000382
    Hole size [Ang]:                1.284368
      Cartesian components [Ang]: [  0.728659,   0.710287,   0.783677]
    Electron size [Ang]:            1.462675
      Cartesian components [Ang]: [  0.854131,   0.829408,   0.849682]

  Transition density matrix analysis:
  -----------------------------------
  
  CT numbers (Mulliken)
    omega =     0.9538
    <Phe> =    -0.1612
  
  Exciton analysis of the transition density matrix
    Trans. dipole moment [D]:             1.832147
      Cartesian components [D]:         [ -1.332619,   1.257286,   0.010981]
    <r_h> [Ang]:                        [ -1.560303,  -0.065768,   0.001696]
    <r_e> [Ang]:                        [ -1.560038,  -0.066625,   0.001251]
    |<r_e - r_h>| [Ang]:                  0.001002
    Hole size [Ang]:                      1.214153
      Cartesian components [Ang]:       [  0.649818,   0.635999,   0.804617]
    Electron size [Ang]:                  1.485453
      Cartesian components [Ang]:       [  0.864514,   0.838330,   0.869705]
    RMS electron-hole separation [Ang]:   1.936744
      Cartesian components [Ang]:       [  1.106855,   1.075032,   1.170536]
    Covariance(r_h, r_e) [Ang^2]:        -0.035120
    Correlation coefficient:             -0.019472
    Center-of-mass size [Ang]:            0.950065
      Cartesian components [Ang]:       [  0.527770,   0.514513,   0.599466]

  Decomposition into state-averaged NTOs
    H- 0 -> L+ 0: -0.6700 ( 89.8%)
    H- 2 -> L+ 5: -0.0839 (  1.4%)
                   omega =  95.4%
  ----------------------------------------------------------------------------


  Excited state 2 (singlet, A)                                     [converged]
  ----------------------------------------------------------------------------
  Term symbol:  3 (1) A                                     R^2 =  3.12139e-13

  Total energy:                                            -77.9829472947 a.u.
  Excitation energy:                                               9.109401 eV

  Osc. strength:                                                      0.000947
  Trans. dip. moment [a.u.]:           [   0.008170,   -0.015252,    0.062803]
  <i|r^2|0> [a.u.]:                    [  -0.020459,   -0.084311,    0.148215]
  Two-photon absorption cross-section (SoS) [a.u.]:                   5.846286
  Two-photon absorption matrix (SoS) [a.u.]:
                                       |   -0.075275   -0.065880    0.655998 |
                                       |   -0.065880   -0.057242    0.532628 |
                                       |    0.655998    0.532628    0.125996 |
  Two-photon absorption cross-section [a.u.]:                         0.061882
  Two-photon absorption matrix [a.u.]:
                                       |   -0.006201    0.004797   -0.087116 |
                                       |    0.004797    0.011254   -0.000324 |
                                       |   -0.087116   -0.000324   -0.008617 |

  Dip. moment [a.u.]:                  [   0.108793,    0.041068,    0.009994]
  Total dipole [Debye]:                                               0.296660
  <r^2> [a.u.]:                        [ 175.281102,   33.882721,   13.075479]
  Total <r^2> [a.u.]:                                               222.239302

  V1^2 = 0.9544, V2^2 = 0.0456

  Important amplitudes:
      occ i     occ j     vir a      vir b          v   
    -----------------------------------------------------
     7 (A) A              9 (A) A                 0.6597
     8 (A) A             11 (A) A                 0.1445
     8 (A) A             10 (A) A                -0.1154
     7 (A) A             20 (A) A                 0.0749
     5 (A) A   8 (A) B    9 (A) A    9 (A) B     -0.0312
     8 (A) A             16 (A) A                 0.0274
     8 (A) A             12 (A) A                 0.0234
     8 (A) A             21 (A) A                 0.0179
     5 (A) A             28 (A) A                 0.0148
     4 (A) A   7 (A) B    9 (A) A   19 (A) B     -0.0132
     5 (A) A   7 (A) B    9 (A) A   16 (A) B     -0.0131
     7 (A) A   8 (A) B   20 (A) A   17 (A) B     -0.0103
     7 (A) A   8 (A) A    9 (A) A   28 (A) A     -0.0096
     5 (A) A   8 (A) B    9 (A) A   20 (A) B     -0.0095
     4 (A) A   6 (A) B    9 (A) A   16 (A) B      0.0090
     5 (A) A   6 (A) A    9 (A) A   23 (A) A      0.0089
     5 (A) A   6 (A) A    9 (A) A   14 (A) A      0.0088
     5 (A) A   6 (A) B    9 (A) A   19 (A) B      0.0086
     8 (A) A   7 (A) B    9 (A) A   28 (A) B      0.0083
     4 (A) A   5 (A) A    9 (A) A   10 (A) A     -0.0083
     6 (A) A   7 (A) B    9 (A) A   18 (A) B     -0.0081
     6 (A) A              9 (A) A                 0.0080
     3 (A) A   7 (A) B    9 (A) A   18 (A) B      0.0078
     5 (A) A   7 (A) A    9 (A) A   16 (A) A     -0.0078
     5 (A) A   6 (A) B    9 (A) A   23 (A) B      0.0078
     8 (A) A             24 (A) A                -0.0076
     4 (A) A   8 (A) B    9 (A) A   25 (A) B     -0.0076
     7 (A) A   8 (A) B   17 (A) A   20 (A) B     -0.0073
     4 (A) A   7 (A) B   19 (A) A    9 (A) B     -0.0072
     7 (A) A   8 (A) B   19 (A) A   18 (A) B     -0.0071
     5 (A) A   5 (A) B    9 (A) A   13 (A) B     -0.0070
     5 (A) A   8 (A) A    9 (A) A   20 (A) A     -0.0068
     4 (A) A   5 (A) B    9 (A) A   18 (A) B      0.0066
     8 (A) A              9 (A) A                -0.0065
     7 (A) A   8 (A) B   17 (A) A    9 (A) B     -0.0064
     7 (A) A   7 (A) B   20 (A) A   22 (A) B     -0.0063
     5 (A) A   6 (A) B    9 (A) A   14 (A) B      0.0063
     4 (A) A   5 (A) B   10 (A) A    9 (A) B      0.0061
     4 (A) A   7 (A) A    9 (A) A   19 (A) A     -0.0061
     4 (A) A   7 (A) B    9 (A) A   14 (A) B      0.0059
    -----------------------------------------------------

  Density matrix analysis:
  ------------------------
  NOs
    Occupation of frontier NOs:
       0.9317   1.0795
    Number of electrons: 16.000000
    Number of unpaired electrons: n_u =  2.35313, n_u,nl =  2.08157
    NO participation ratio (PR_NO):  3.175610
  
  
  Mulliken Population Analysis
  Atom      Charge (e)              h+              e-           Del q
  --------------------------------------------------------------------
   1 H        0.162907        0.123157       -0.010663        0.112495
   2 C       -0.289233        0.278822       -0.461070       -0.182249
   3 H        0.131078        0.129730       -0.048493        0.081237
   4 C       -0.265904        0.265436       -0.450131       -0.184696
   5 H        0.138362        0.110057       -0.010199        0.099858
   6 H        0.122790        0.125397       -0.052043        0.073354
  --------------------------------------------------------------------
  Sum:        0.000000        1.032599       -1.032599        0.000000
  
  Multipole moment analysis of the density matrix
    Molecular charge:                      0.000000
    Number of electrons:                   16.000000
      Center of electronic charge [Ang]: [ -1.564174,  -0.069461,   0.001648]
    Total nuclear charge:                  16.000000
      Center of nuclear charge [Ang]:    [ -1.560576,  -0.068102,   0.001978]
    Dipole moment [D]:                     0.296660
      Cartesian components [D]:          [  0.276524,   0.104385,   0.025402]
    RMS size of the density [Ang]:         1.199214
      Cartesian components [Ang]:        [  0.788093,   0.766931,   0.478374]
  
  Exciton analysis of the difference density matrix
    <r_h> [Ang]:                  [ -1.556568,  -0.107229,  -0.000143]
    <r_e> [Ang]:                  [ -1.612481,  -0.125016,  -0.004508]
    |<r_e - r_h>| [Ang]:            0.058837
    Hole size [Ang]:                1.479985
      Cartesian components [Ang]: [  1.008249,   0.976010,   0.470314]
    Electron size [Ang]:            1.501471
      Cartesian components [Ang]: [  0.905326,   0.875029,   0.818000]

  Transition density matrix analysis:
  -----------------------------------
  
  CT numbers (Mulliken)
    omega =     0.9221
    <Phe> =    -0.0122
  
  Exciton analysis of the transition density matrix
    Trans. dipole moment [D]:             0.082788
      Cartesian components [D]:         [  0.010383,  -0.019383,   0.079814]
    <r_h> [Ang]:                        [ -1.553085,  -0.108941,   0.000048]
    <r_e> [Ang]:                        [ -1.618758,  -0.124866,  -0.004936]
    |<r_e - r_h>| [Ang]:                  0.067760
    Hole size [Ang]:                      1.499500
      Cartesian components [Ang]:       [  1.026138,   0.992966,   0.457777]
    Electron size [Ang]:                  1.501153
      Cartesian components [Ang]:       [  0.898935,   0.868895,   0.830902]
    RMS electron-hole separation [Ang]:   2.104511
      Cartesian components [Ang]:       [  1.349815,   1.307067,   0.947914]
    Covariance(r_h, r_e) [Ang^2]:         0.038793
    Correlation coefficient:              0.017234
    Center-of-mass size [Ang]:            1.069994
      Cartesian components [Ang]:       [  0.690000,   0.665911,   0.474710]

  Decomposition into state-averaged NTOs
    H- 1 -> L+ 0:  0.6521 ( 85.1%)
    H- 0 -> L+ 2:  0.1518 (  4.6%)
    H- 0 -> L+ 1: -0.1029 (  2.1%)
                   omega =  92.2%
  ----------------------------------------------------------------------------


  Excited state 3 (singlet, A)                                     [converged]
  ----------------------------------------------------------------------------
  Term symbol:  4 (1) A                                     R^2 =  3.32695e-13

  Total energy:                                            -77.9796886903 a.u.
  Excitation energy:                                               9.198072 eV

  Osc. strength:                                                      0.025471
  Trans. dip. moment [a.u.]:           [   0.017064,    0.018838,   -0.335235]
  <i|r^2|0> [a.u.]:                    [   0.094778,   -0.014667,    0.026671]
  Two-photon absorption cross-section (SoS) [a.u.]:                   0.036393
  Two-photon absorption matrix (SoS) [a.u.]:
                                       |    0.041721    0.001207    0.049621 |
                                       |    0.001207   -0.042996   -0.012160 |
                                       |    0.049621   -0.012160    0.014214 |
  Two-photon absorption cross-section [a.u.]:                         0.043889
  Two-photon absorption matrix [a.u.]:
                                       |    0.041759    0.005762   -0.052123 |
                                       |    0.005762   -0.024068   -0.038920 |
                                       |   -0.052123   -0.038920   -0.002709 |

  Dip. moment [a.u.]:                  [  -0.033768,    0.163588,    0.006885]
  Total dipole [Debye]:                                               0.424925
  <r^2> [a.u.]:                        [ 180.498786,   40.001399,   11.078861]
  Total <r^2> [a.u.]:                                               231.579045

  V1^2 = 0.9590, V2^2 = 0.0410

  Important amplitudes:
      occ i     occ j     vir a      vir b          v   
    -----------------------------------------------------
     8 (A) A             10 (A) A                 0.6792
     7 (A) A              9 (A) A                 0.1168
     8 (A) A             24 (A) A                 0.0494
     8 (A) A             18 (A) A                -0.0296
     4 (A) A              9 (A) A                 0.0231
     8 (A) A   8 (A) B    9 (A) A   12 (A) B     -0.0207
     8 (A) A             15 (A) A                -0.0172
     8 (A) A   8 (A) B   10 (A) A   17 (A) B      0.0171
     5 (A) A   8 (A) B   11 (A) A   10 (A) B      0.0157
     7 (A) A   8 (A) B   13 (A) A   10 (A) B     -0.0138
     7 (A) A             20 (A) A                 0.0130
     6 (A) A   8 (A) A   10 (A) A   15 (A) A      0.0108
     6 (A) A   8 (A) B   15 (A) A   10 (A) B     -0.0106
     4 (A) A   8 (A) B   12 (A) A   10 (A) B     -0.0106
     7 (A) A   8 (A) B   22 (A) A   10 (A) B      0.0105
     4 (A) A   8 (A) A   10 (A) A   12 (A) A      0.0101
     7 (A) A   8 (A) A   10 (A) A   22 (A) A     -0.0096
     7 (A) A   8 (A) A   10 (A) A   13 (A) A      0.0095
     5 (A) A   8 (A) B   21 (A) A   10 (A) B      0.0093
     5 (A) A   8 (A) A   10 (A) A   11 (A) A     -0.0090
     6 (A) A   8 (A) A   10 (A) A   18 (A) A     -0.0087
     6 (A) A   8 (A) B   10 (A) A   10 (A) B     -0.0084
     5 (A) A   8 (A) A   10 (A) A   21 (A) A     -0.0079
     3 (A) A   4 (A) B   10 (A) A    9 (A) B     -0.0078
     7 (A) A   8 (A) A   12 (A) A   16 (A) A      0.0076
     8 (A) A   8 (A) B    9 (A) A   23 (A) B     -0.0073
     4 (A) A   8 (A) B   19 (A) A   10 (A) B      0.0073
     8 (A) A   8 (A) B   10 (A) A   28 (A) B      0.0071
     3 (A) A   8 (A) B   10 (A) A   10 (A) B      0.0071
     3 (A) A   8 (A) A   10 (A) A   24 (A) A     -0.0069
     3 (A) A   8 (A) B   10 (A) A   18 (A) B     -0.0068
     5 (A) A   8 (A) B   10 (A) A   11 (A) B      0.0067
     7 (A) A   8 (A) B   16 (A) A   12 (A) B     -0.0066
     6 (A) A   8 (A) B   18 (A) A   10 (A) B      0.0066
     8 (A) A   8 (A) B    9 (A) A   19 (A) B      0.0065
     3 (A) A   6 (A) B   10 (A) A   28 (A) B      0.0061
     5 (A) A   8 (A) B    9 (A) A    9 (A) B     -0.0056
     3 (A) A   8 (A) A   10 (A) A   18 (A) A     -0.0055
     3 (A) A   5 (A) B   10 (A) A   25 (A) B     -0.0055
     8 (A) A             23 (A) A                -0.0054
    -----------------------------------------------------

  Density matrix analysis:
  ------------------------
  NOs
    Occupation of frontier NOs:
       0.9570   1.0096
    Number of electrons: 16.000000
    Number of unpaired electrons: n_u =  2.32177, n_u,nl =  2.03912
    NO participation ratio (PR_NO):  2.825369
  
  
  Mulliken Population Analysis
  Atom      Charge (e)              h+              e-           Del q
  --------------------------------------------------------------------
   1 H       -0.161694        0.058127       -0.270233       -0.212106
   2 C        0.315188        0.523157       -0.100985        0.422172
   3 H       -0.182394        0.053698       -0.285933       -0.232235
   4 C        0.328994        0.506459       -0.096256        0.410203
   5 H       -0.148085        0.055963       -0.242552       -0.186589
   6 H       -0.152009        0.055223       -0.256667       -0.201445
  --------------------------------------------------------------------
  Sum:        0.000000        1.252627       -1.252627        0.000000
  
  Multipole moment analysis of the density matrix
    Molecular charge:                      0.000000
    Number of electrons:                   16.000000
      Center of electronic charge [Ang]: [ -1.559459,  -0.073513,   0.001750]
    Total nuclear charge:                  16.000000
      Center of nuclear charge [Ang]:    [ -1.560576,  -0.068102,   0.001978]
    Dipole moment [D]:                     0.424925
      Cartesian components [D]:          [ -0.085829,   0.415799,   0.017500]
    RMS size of the density [Ang]:         1.271112
      Cartesian components [Ang]:        [  0.852723,   0.833482,   0.440337]
  
  Exciton analysis of the difference density matrix
    <r_h> [Ang]:                  [ -1.551052,  -0.073095,   0.001798]
    <r_e> [Ang]:                  [ -1.536918,  -0.139516,  -0.000487]
    |<r_e - r_h>| [Ang]:            0.067947
    Hole size [Ang]:                1.419400
      Cartesian components [Ang]: [  0.845190,   0.824024,   0.788247]
    Electron size [Ang]:            2.081933
      Cartesian components [Ang]: [  1.381351,   1.371883,   0.737734]

  Transition density matrix analysis:
  -----------------------------------
  
  CT numbers (Mulliken)
    omega =     0.9264
    <Phe> =    -0.0112
  
  Exciton analysis of the transition density matrix
    Trans. dipole moment [D]:             0.427264
      Cartesian components [D]:         [  0.021686,   0.023941,  -0.426042]
    <r_h> [Ang]:                        [ -1.553222,  -0.062316,   0.002054]
    <r_e> [Ang]:                        [ -1.529909,  -0.159199,  -0.001109]
    |<r_e - r_h>| [Ang]:                  0.099698
    Hole size [Ang]:                      1.223102
      Cartesian components [Ang]:       [  0.653561,   0.637077,   0.814230]
    Electron size [Ang]:                  2.273534
      Cartesian components [Ang]:       [  1.507671,   1.497615,   0.808106]
    RMS electron-hole separation [Ang]:   2.573482
      Cartesian components [Ang]:       [  1.635866,   1.623112,   1.145540]
    Covariance(r_h, r_e) [Ang^2]:         0.026032
    Correlation coefficient:              0.009362
    Center-of-mass size [Ang]:            1.295859
      Cartesian components [Ang]:       [  0.825365,   0.817363,   0.574404]

  Decomposition into state-averaged NTOs
    H- 0 -> L+ 1:  0.6685 ( 89.4%)
    H- 1 -> L+ 0:  0.1155 (  2.7%)
                   omega =  92.6%
  ----------------------------------------------------------------------------


  Excited state 4 (singlet, A)                                     [converged]
  ----------------------------------------------------------------------------
  Term symbol:  5 (1) A                                     R^2 =  2.62588e-13

  Total energy:                                            -77.9542988987 a.u.
  Excitation energy:                                               9.888964 eV

  Osc. strength:                                                      0.000259
  Trans. dip. moment [a.u.]:           [   0.003041,   -0.006035,    0.031995]
  <i|r^2|0> [a.u.]:                    [   0.043423,    0.010138,   -0.037529]
  Two-photon absorption cross-section (SoS) [a.u.]:                 155.861276
  Two-photon absorption matrix (SoS) [a.u.]:
                                       |    0.339593    0.334470   -3.430368 |
                                       |    0.334470    0.318818   -2.698098 |
                                       |   -3.430368   -2.698098   -0.655963 |
  Two-photon absorption cross-section [a.u.]:                        99.455896
  Two-photon absorption matrix [a.u.]:
                                       |    0.280965    0.268389   -2.773937 |
                                       |    0.268389    0.243822   -2.111837 |
                                       |   -2.773937   -2.111837   -0.521878 |

  Dip. moment [a.u.]:                  [  -0.225636,   -0.109026,   -0.018545]
  Total dipole [Debye]:                                               0.638693
  <r^2> [a.u.]:                        [ 181.654121,   38.516902,   10.752921]
  Total <r^2> [a.u.]:                                               230.923944

  V1^2 = 0.9635, V2^2 = 0.0365

  Important amplitudes:
      occ i     occ j     vir a      vir b          v   
    -----------------------------------------------------
     8 (A) A             11 (A) A                -0.6670
     7 (A) A              9 (A) A                 0.1460
     8 (A) A             21 (A) A                -0.0769
     8 (A) A             16 (A) A                -0.0622
     8 (A) A             12 (A) A                -0.0593
     6 (A) A              9 (A) A                 0.0370
     8 (A) A             10 (A) A                -0.0208
     8 (A) A   8 (A) B    9 (A) A   13 (A) B      0.0165
     5 (A) A   8 (A) B   11 (A) A   11 (A) B     -0.0155
     8 (A) A   8 (A) B   11 (A) A   17 (A) B     -0.0141
     7 (A) A             20 (A) A                 0.0133
     7 (A) A   8 (A) B   13 (A) A   11 (A) B      0.0128
     5 (A) A   8 (A) A   11 (A) A   21 (A) A      0.0109
     8 (A) A             19 (A) A                -0.0106
     8 (A) A   8 (A) B    9 (A) A   22 (A) B     -0.0104
     4 (A) A   8 (A) B   12 (A) A   11 (A) B      0.0104
     7 (A) A   8 (A) A   11 (A) A   22 (A) A      0.0096
     6 (A) A   8 (A) B   15 (A) A   11 (A) B      0.0091
     7 (A) A   8 (A) B   22 (A) A   11 (A) B     -0.0088
     6 (A) A   8 (A) B   10 (A) A   11 (A) B      0.0088
     3 (A) A   4 (A) B   11 (A) A    9 (A) B      0.0082
     6 (A) A   8 (A) A   11 (A) A   15 (A) A     -0.0082
     3 (A) A   8 (A) B   11 (A) A   18 (A) B      0.0080
     7 (A) A   8 (A) A   11 (A) A   13 (A) A     -0.0077
     7 (A) A   8 (A) A   13 (A) A   16 (A) A     -0.0077
     5 (A) A   8 (A) B   21 (A) A   11 (A) B     -0.0071
     4 (A) A   8 (A) B   19 (A) A   11 (A) B     -0.0068
     5 (A) A   8 (A) B    9 (A) A    9 (A) B     -0.0066
     6 (A) A   8 (A) A   11 (A) A   18 (A) A      0.0063
     4 (A) A   8 (A) A   11 (A) A   12 (A) A     -0.0062
     3 (A) A   6 (A) B   11 (A) A   28 (A) B     -0.0060
     6 (A) A   8 (A) B   18 (A) A   11 (A) B     -0.0060
     7 (A) A   8 (A) B   16 (A) A   13 (A) B      0.0057
     3 (A) A   8 (A) A   11 (A) A   18 (A) A      0.0056
     3 (A) A   5 (A) B   11 (A) A   25 (A) B      0.0054
     5 (A) A   8 (A) B   10 (A) A   10 (A) B     -0.0054
     3 (A) A   8 (A) B   11 (A) A   30 (A) B      0.0053
     6 (A) A   8 (A) B   11 (A) A   10 (A) B      0.0052
     3 (A) A   8 (A) A   11 (A) A   24 (A) A      0.0052
     3 (A) A   8 (A) B   10 (A) A   11 (A) B     -0.0052
    -----------------------------------------------------

  Density matrix analysis:
  ------------------------
  NOs
    Occupation of frontier NOs:
       0.9408   1.0280
    Number of electrons: 16.000000
    Number of unpaired electrons: n_u =  2.31697, n_u,nl =  2.04884
    NO participation ratio (PR_NO):  2.909637
  
  
  Mulliken Population Analysis
  Atom      Charge (e)              h+              e-           Del q
  --------------------------------------------------------------------
   1 H       -0.249722        0.044614       -0.344748       -0.300134
   2 C        0.279652        0.503544       -0.116907        0.386636
   3 H       -0.049801        0.049111       -0.148754       -0.099642
   4 C        0.297089        0.493208       -0.114911        0.378297
   5 H       -0.109044        0.049029       -0.196578       -0.147548
   6 H       -0.168173        0.044028       -0.261637       -0.217609
  --------------------------------------------------------------------
  Sum:        0.000000        1.183535       -1.183535        0.000000
  
  Multipole moment analysis of the density matrix
    Molecular charge:                      0.000000
    Number of electrons:                   16.000000
      Center of electronic charge [Ang]: [ -1.553114,  -0.064496,   0.002592]
    Total nuclear charge:                  16.000000
      Center of nuclear charge [Ang]:    [ -1.560576,  -0.068102,   0.001978]
    Dipole moment [D]:                     0.638692
      Cartesian components [D]:          [ -0.573509,  -0.277117,  -0.047138]
    RMS size of the density [Ang]:         1.274854
      Cartesian components [Ang]:        [  0.875848,   0.818508,   0.433807]
  
  Exciton analysis of the difference density matrix
    <r_h> [Ang]:                  [ -1.550724,  -0.067867,   0.002069]
    <r_e> [Ang]:                  [ -1.449979,  -0.016276,   0.011021]
    |<r_e - r_h>| [Ang]:            0.113540
    Hole size [Ang]:                1.395548
      Cartesian components [Ang]: [  0.821419,   0.804822,   0.790623]
    Electron size [Ang]:            2.126736
      Cartesian components [Ang]: [  1.570884,   1.260582,   0.682836]

  Transition density matrix analysis:
  -----------------------------------
  
  CT numbers (Mulliken)
    omega =     0.9299
    <Phe> =    -0.0129
  
  Exciton analysis of the transition density matrix
    Trans. dipole moment [D]:             0.041558
      Cartesian components [D]:         [  0.003864,  -0.007669,   0.040661]
    <r_h> [Ang]:                        [ -1.559129,  -0.068253,   0.001457]
    <r_e> [Ang]:                        [ -1.428521,  -0.006764,   0.012739]
    |<r_e - r_h>| [Ang]:                  0.144798
    Hole size [Ang]:                      1.227156
      Cartesian components [Ang]:       [  0.650451,   0.656109,   0.807679]
    Electron size [Ang]:                  2.266854
      Cartesian components [Ang]:       [  1.681370,   1.335744,   0.726230]
    RMS electron-hole separation [Ang]:   2.571203
      Cartesian components [Ang]:       [  1.798457,   1.482525,   1.085706]
    Covariance(r_h, r_e) [Ang^2]:         0.027211
    Correlation coefficient:              0.009782
    Center-of-mass size [Ang]:            1.294117
      Cartesian components [Ang]:       [  0.905924,   0.747544,   0.543342]

  Decomposition into state-averaged NTOs
    H- 0 -> L+ 2: -0.6560 ( 86.1%)
    H- 1 -> L+ 0:  0.1439 (  4.1%)
    H- 0 -> L+ 3: -0.0802 (  1.3%)
                   omega =  93.0%
  ----------------------------------------------------------------------------


  Excited state 5 (singlet, A)                                     [converged]
  ----------------------------------------------------------------------------
  Term symbol:  6 (1) A                                     R^2 =  3.06323e-13

  Total energy:                                            -77.9411540175 a.u.
  Excitation energy:                                              10.246654 eV

  Osc. strength:                                                      0.000060
  Trans. dip. moment [a.u.]:           [  -0.001258,   -0.001524,    0.015275]
  <i|r^2|0> [a.u.]:                    [  -0.094140,    0.112750,   -0.027033]
  Two-photon absorption cross-section (SoS) [a.u.]:                 153.179220
  Two-photon absorption matrix (SoS) [a.u.]:
                                       |   -0.256456    0.013948    2.596325 |
                                       |    0.013948    0.413994   -3.503167 |
                                       |    2.596325   -3.503167   -0.175852 |
[...]
    16   -1.577276626138e-03
    17   -1.784251104904e-03
    18   -9.792293111951e-04
    19   -3.906343761115e-03
    20    1.417746418980e-02
    21    9.894646234955e-01
    22    1.651196277898e-04
    23    1.450209470145e-02
    24    8.657422699084e-04
    25    6.741722637464e-02
    26   -4.868822712269e-02
    27   -1.391866968437e+00
    28    1.015405484909e-01
    29   -8.229388631304e-02
    30   -5.225176222120e-04
    31    3.890768499431e-01
    32   -3.376177279653e-01
    33   -3.594865381869e-03
    34    1.598927437885e-02
    35   -1.449426245476e-03
    36   -1.924158992164e-03
    37    5.442690128549e-04
    38   -2.804767146755e-03
    39    5.788307595689e-03
    40    9.011942448184e-01
    41    2.442264837816e-04
    42   -1.393631972538e-02
    43   -8.651780474999e-04
    44    8.544539906869e-03
    45    9.429615969931e-01
    46    1.419704593120e-02
    47    6.205323990844e-04
    48    7.042877949115e-04
Sym=X
Ene= 0.234045
Spin=Alpha
Occup=0
     1    2.685070317735e-02
     2    1.443390074810e+00
     3   -1.782403562828e-02
     4   -5.509564727146e-03
     5   -1.154260309391e-03
     6    2.167762147190e-02
     7   -2.108053461519e-02
     8   -3.830941825932e-01
     9   -1.650031323199e-01
    10   -1.436346854036e-01
    11   -1.617752763144e-02
    12   -6.036849582781e-01
    13   -4.977519426896e-01
    14   -5.732947283435e-02
    15    5.311746029961e-03
    16   -6.673022159918e-04
    17   -6.017429981427e-04
    18   -1.466110418093e-03
    19   -3.064495851187e-03
    20   -1.881015291070e-02
    21   -9.079515629647e-01
    22   -7.663109857753e-04
    23   -1.000544795075e-02
    24   -6.287188946415e-04
    25   -1.848117627963e-02
    26    1.931389355140e-02
    27    2.793617143156e-01
    28   -1.579058905852e-01
    29   -1.407808459025e-01
    30   -1.622818962266e-02
    31   -5.753981395465e-01
    32   -5.065855920139e-01
    33   -5.903751740474e-02
    34   -3.391944669242e-03
    35    3.660188066995e-04
    36    3.634698691181e-04
    37    3.182329422871e-04
    38    1.771213963402e-03
    39    1.707665720102e-02
    40    9.742364434964e-01
    41   -1.092091407426e-03
    42   -1.144786770913e-02
    43   -7.623250632889e-04
    44   -3.002881464710e-02
    45   -1.383365013154e+00
    46   -1.646178481441e-02
    47   -5.019224570410e-03
    48   -1.088413058945e-03
Sym=X
Ene= 0.241354
Spin=Alpha
Occup=0
     1   -1.371230289340e-02
     2   -7.451140859554e-01
     3    1.263659542710e-02
     4    8.269932950141e-03
     5    1.111680441337e-03
     6   -8.157412951251e-02
     7    7.382366889846e-02
     8    1.520435238972e+00
     9    1.797164859608e-02
    10   -9.112406180923e-02
    11   -4.301413046308e-03
    12    6.933376229232e-02
    13   -3.378452225084e-01
    14   -1.538733608570e-02
    15   -2.163491607382e-02
    16    2.443080578563e-03
    17    2.935980180381e-03
    18   -2.337481143491e-03
    19    1.212369280025e-02
    20   -1.753724862152e-02
    21   -1.319259979347e+00
    22   -8.729480004542e-03
    23   -2.038196180042e-02
    24   -1.616379820297e-03
    25    8.559494559689e-02
    26   -7.673928104345e-02
    27   -1.660597194291e+00
    28    2.730426158559e-02
    29   -8.652589022670e-02
    30   -4.547543286817e-03
    31    1.087296031947e-01
    32   -3.486583377267e-01
    33   -1.853451438325e-02
    34    2.437060597893e-02
    35   -2.732454017328e-03
    36   -3.357118242737e-03
    37    1.448528349730e-03
    38   -1.317130032196e-02
    39    1.513290050179e-02
    40    1.412725858433e+00
    41   -9.069805215818e-03
    42   -2.272264743065e-02
    43   -1.860986905704e-03
    44    7.576534361728e-03
    45    8.238551681413e-01
    46    1.429641408271e-02
    47    9.069509821178e-03
    48    1.192991896817e-03
Sym=X
Ene= 0.303435
Spin=Alpha
Occup=0
     1    1.785841077297e-02
     2   -1.691639344960e+00
     3    2.274737772005e-02
     4   -1.041156452328e-04
     5    1.084010487711e-03
     6   -1.005617243002e-04
     7   -1.443683977814e-03
     8    2.344258767745e-02
     9    1.328971263255e-01
    10    1.368754242775e-01
    11    1.428919082109e-02
    12    1.134103223112e+00
    13    1.195381369164e+00
    14    1.249868464438e-01
    15    4.527797321008e-05
    16    1.604759225829e-03
    17   -1.726791870246e-03
    18    3.102293887706e-02
    19    1.603166110324e-03
    20   -1.750461832146e-02
    21    1.673491918177e+00
    22   -1.477116948293e-03
    23    2.214754597204e-02
    24    1.215154820496e-03
    25    8.727963923912e-04
    26   -1.071345223252e-04
    27   -8.427745142882e-02
    28   -1.353567900575e-01
    29   -1.384000322821e-01
    30   -1.500039419221e-02
    31   -1.162822684868e+00
    32   -1.212744620757e+00
    33   -1.291744376096e-01
    34    1.851949414488e-03
    35    1.317421280027e-03
    36   -2.281585474218e-03
    37    3.272496106644e-02
    38    2.325224208152e-04
    39   -2.413122298192e-02
    40    1.790861572046e+00
    41    1.582147813001e-03
    42   -2.281196128865e-02
    43   -1.333284858743e-03
    44    1.836281946122e-02
    45   -1.712654076455e+00
    46   -2.255922130559e-02
    47    1.073918642038e-03
    48   -1.005107557316e-03
Sym=X
Ene= 0.462416
Spin=Alpha
Occup=0
     1   -1.151132740823e-01
     2   -7.284301760991e-01
     3   -1.549944556543e-02
     4   -1.008160365181e-02
     5   -1.310144090654e-03
     6    6.073948076015e-02
     7    1.550024551929e-02
     8   -3.587503919369e+00
     9    1.052058038171e-01
    10   -1.017054753016e-01
    11   -1.144984282671e-03
    12    2.430886032135e+00
    13   -2.289109637530e+00
    14   -1.940335356139e-02
    15    5.347729909361e-02
    16   -3.242334381773e-03
    17   -4.663739364680e-03
    18   -3.337487908333e-04
    19    1.811967714414e-02
    20   -1.195699881022e-01
    21   -6.984050987121e-01
    22    8.549189092192e-03
    23    1.656732066215e-02
    24    1.378549412642e-03
    25   -5.980452567231e-02
    26   -1.623550856130e-02
    27    3.539090603583e+00
    28    1.028130621204e-01
    29   -9.928375380807e-02
    30   -1.657959048731e-03
    31    2.405839940266e+00
    32   -2.337261367279e+00
    33   -2.610042405225e-02
    34   -5.209538476361e-02
    35    3.486522562543e-03
    36    4.559677860951e-03
    37    2.267769381773e-03
    38   -1.722351768394e-02
    39    1.107382088670e-01
    40    7.840367797512e-01
    41    7.988467572046e-03
    42    1.649965696801e-02
    43    1.384535870736e-03
    44    1.121195097022e-01
    45    6.964319548990e-01
    46   -1.609627061442e-02
    47   -9.963524425745e-03
    48   -1.408494613509e-03
Sym=X
Ene= 0.576741
Spin=Alpha
Occup=0
     1   -2.639797562117e-01
     2   -3.519322032026e-02
     3    1.602331383151e-02
     4   -2.482645227373e-02
     5   -7.162634304033e-04
     6    4.897751992631e-03
     7    1.543614645635e-01
     8    4.300405811429e-01
     9   -2.961034147906e-01
    10    2.843506172865e-01
    11    2.876329520188e-03
    12    7.395597806887e-01
    13   -7.200280732906e-01
    14   -8.223943301716e-03
    15    7.419465117296e-03
    16   -4.246159240404e-03
    17   -3.686058278636e-03
    18    4.108070126540e-04
    19   -6.032356495282e-02
    20   -2.438982678538e-01
    21   -4.464522723935e-02
    22    2.810923203621e-02
    23   -1.759818325138e-02
    24    2.881266930704e-04
    25    4.140945499304e-03
    26    1.510887134446e-01
    27    4.807819158705e-01
    28    2.924658198797e-01
    29   -2.891632810320e-01
    30   -3.290487844168e-03
    31   -7.063463659866e-01
    32    7.545851095836e-01
    33    1.255256837400e-02
    34    5.841334262483e-03
    35   -3.850245775546e-03
    36   -3.857284305939e-03
    37    5.898548724118e-03
    38   -6.008212444297e-02
    39   -2.721676633280e-01
    40   -7.367926243950e-02
    41   -2.220586261494e-02
    42    1.094224379985e-02
    43   -3.704110958387e-04
    44   -2.349483605940e-01
    45   -4.113239240923e-02
    46   -1.892181165261e-02
    47    2.660727912045e-02
    48    7.487399955736e-04
Sym=X
Ene= 0.617616
Spin=Alpha
Occup=0
     1    5.118065990294e-01
     2   -2.191273993477e-01
     3    6.243014593870e-02
     4   -3.965085795307e-02
     5    6.628700431580e-04
     6    7.656729122836e-04
     7   -3.763203552127e-03
     8    3.444555761010e-02
     9    3.570352292826e-02
    10    4.044790231733e-02
    11    4.251713861765e-03
    12   -2.644172325460e-01
    13   -3.003785213497e-01
    14   -2.960434869790e-02
    15   -2.208454655110e-04
    16    7.404247436710e-03
    17   -8.711374364806e-03
    18    1.498994742937e-01
    19    2.607093992175e-03
    20   -5.247094739496e-01
    21    2.014545311103e-01
    22   -4.066087247673e-02
    23    5.930233558694e-02
    24    1.606867744168e-03
    25   -1.857678661284e-03
    26    1.215976166139e-02
    27   -4.532738765195e-02
    28    5.128249973320e-02
    29    4.478246167116e-02
    30    5.087212116139e-03
    31   -3.480975895323e-01
    32   -3.338181109523e-01
    33   -3.782265043903e-02
    34    1.016419330123e-02
    35   -8.051689634259e-03
    36    7.452456108198e-03
    37   -1.444721820141e-01
    38   -1.015650735985e-02
    39    4.693132876746e-01
    40   -9.650473038332e-02
    41   -4.253841821313e-02
    42    5.614040800955e-02
    43    1.417451326117e-03
    44   -5.509923912172e-01
    45    1.898521747947e-01
    46    6.276801771948e-02
    47   -3.534091308572e-02
    48    7.445386040907e-04
Sym=X
Ene= 0.689494
Spin=Alpha
Occup=0
     1    9.489496372606e-04
     2    5.709243706271e-04
     3    1.135425801102e-03
     4    1.294191915783e-03
     5   -2.102161774973e-02
     6    6.586082399005e-05
     7    6.366282124993e-04
     8    1.357099681745e-04
     9    3.129407515276e-02
    10    4.006038877001e-02
    11   -6.706777246906e-01
    12   -2.971869324093e-02
    13   -3.522436696388e-02
    14    6.127850549807e-01
    15   -1.587536559030e-03
    16    8.213476986718e-02
    17   -7.825597714991e-02
    18   -8.770560743221e-03
    19   -9.639654949312e-04
    20    1.030238265345e-03
    21   -2.646885639061e-04
    22    8.215442108763e-04
    23    1.049877543026e-03
    24   -2.108429105601e-02
    25    1.063067303446e-05
    26    1.142632038793e-03
    27   -1.090906218322e-03
    28    3.240312498264e-02
    29    4.064169645834e-02
    30   -6.688807485852e-01
    31   -3.130604443474e-02
    32   -3.631787016563e-02
    33    6.151313594627e-01
    34    1.144848038943e-03
    35   -8.258279297274e-02
    36    7.966383511098e-02
    37    8.556405459192e-03
    38    1.114187682193e-03
    39    2.113765118680e-04
    40   -1.603692974006e-03
    41    1.414098245644e-03
    42    2.028945526086e-03
    43   -2.805717709608e-02
    44    2.112535819788e-05
    45   -7.523386550542e-04
    46    7.620349777509e-04
    47    1.308780489473e-03
    48   -2.064821575940e-02
Sym=X
Ene= 0.712582
Spin=Alpha
Occup=0
     1   -5.207694285012e-01
     2    2.028180746676e-01
     3   -8.946302024495e-02
     4   -4.318376280271e-02
     5   -6.887134426207e-03
     6   -5.253232510341e-02
     7   -3.144147155690e-01
     8    5.435869134275e-01
     9    2.014081062876e-01
    10   -1.888016074221e-01
    11   -2.696292792972e-03
    12   -1.259080181210e-01
    13    1.108956416306e-01
    14    8.077594016686e-04
    15    2.054644559157e-01
    16   -2.177040946537e-02
    17   -2.490852160033e-02
    18   -2.423897011115e-03
    19   -7.825764859949e-02
    20   -4.814256592228e-01
    21    1.676743037362e-01
    22    4.408259135967e-02
    23    8.449004839983e-02
    24    7.026598943482e-03
    25   -4.355921157870e-02
    26   -3.481328828775e-01
    27    4.810249714075e-01
    28   -2.234480598438e-01
    29    1.815135452048e-01
    30   -7.737105202744e-04
    31    9.802842029435e-02
    32    3.591707027212e-02
    33    9.147044354076e-03
    34    1.849260149109e-01
    35   -1.988027556281e-02
    36   -2.325122741673e-02
    37    2.472899957851e-03
    38   -7.432026066393e-02
    39   -4.376370529806e-01
    40    5.508797680082e-03
    41   -3.984560094105e-02
    42   -7.649641090038e-02
    43   -6.571727716104e-03
    44   -4.333974593708e-01
    45    1.527016649085e-01
    46    7.681671601380e-02
    47    4.474418962525e-02
    48    6.425227362402e-03
Sym=X
Ene= 0.790415
Spin=Alpha
Occup=0
     1    4.831792931488e-01
     2   -4.601264326679e-01
     3    1.052724519349e-01
     4    2.750108151827e-02
     5    6.642529767224e-03
     6    8.854733865715e-02
     7   -2.459530348426e-01
     8   -5.957446863137e-01
     9    1.222148572029e-01
    10   -1.242289446891e-01
    11    1.285362028296e-03
    12    3.062863764912e-01
    13   -2.696027575544e-01
    14   -6.558338389869e-03
    15   -1.953197575910e-01
    16    1.630432590226e-02
    17    2.008599155374e-02
    18   -3.965766274351e-04
    19    3.569440623015e-03
    20    5.312792119496e-01
    21   -4.513280918503e-01
    22   -1.371873689305e-02
    23   -1.095735767711e-01
    24   -7.043770065500e-03
    25   -9.587258421406e-02
    26    1.621096926534e-01
    27    7.562034422933e-01
    28    6.841959425156e-02
    29   -1.465705221819e-01
    30   -8.079632301182e-03
    31    4.013118310012e-01
    32   -1.479403033174e-01
    33    1.553114407032e-02
    34    2.225260239218e-01
    35   -1.949315521468e-02
    36   -2.403316421389e-02
    37   -9.576167043914e-03
    38   -1.126026951799e-02
    39   -5.483263444427e-01
    40    3.027996005979e-01
    41   -1.916012342022e-02
    42   -1.110110483373e-01
    43   -7.788426224900e-03
    44   -5.518085738739e-01
    45    5.475965327908e-01
    46    1.244842636675e-01
    47    3.145098618019e-02
    48    7.856790479384e-03
Sym=X
Ene= 0.808150
Spin=Alpha
Occup=0
     1   -1.525888031331e-03
     2    2.939043267590e-03
     3   -2.131497266222e-03
     4   -2.113272443678e-03
     5    3.367255858930e-02
     6   -3.235770154063e-04
     7    1.210406056106e-03
     8    5.686031491675e-04
     9   -3.649692013610e-02
    10   -4.411336365563e-02
    11    7.627672591430e-01
    12    5.191988509693e-02
    13    6.665166458353e-02
    14   -1.127654630818e+00
    15   -2.530823445379e-04
    16    6.440645988822e-02
    17   -6.194793514088e-02
    18   -7.086128117583e-03
    19   -7.129538493645e-04
    20   -1.732360717646e-03
    21    5.168962704315e-04
    22   -1.764869003404e-03
    23   -1.747177997471e-03
    24    3.442009623781e-02
    25    3.144747131914e-04
    26   -1.274605835394e-04
    27   -1.583401999070e-03
    28    3.639922993793e-02
    29    4.745688988010e-02
    30   -7.613628254922e-01
    31   -5.603754944102e-02
    32   -6.890939029495e-02
    33    1.128901899228e+00
    34   -1.956669097339e-03
    35    6.502013778206e-02
    36   -6.135148530250e-02
    37   -6.433437607153e-03
    38   -1.007662285546e-03
    39    1.735184178994e-03
    40   -2.648658499637e-04
    41    1.829991963612e-03
    42    3.055045233639e-03
    43   -4.198972652140e-02
    44    1.820348009757e-03
    45   -3.390535263309e-03
    46    7.821614766043e-04
    47    1.930813687325e-03
    48   -3.303648318134e-02
Sym=X
Ene= 0.865106
Spin=Alpha
Occup=0
     1    1.259049866827e-02
     2   -1.126779021615e+00
     3    1.525205513171e-01
     4    5.576457076501e-02
     5    1.050276576586e-02
     6   -3.669578186686e-03
     7    2.949821667257e-02
     8   -3.661484891074e-02
     9   -4.401501603325e-01
    10   -4.392844070458e-01
    11   -4.609128315157e-02
    12    1.000846904860e+00
    13    1.045360724469e+00
    14    1.076876903687e-01
    15    7.753776109997e-03
    16    1.180743858388e-02
    17   -1.476276455338e-02
    18    2.434836125737e-01
    19    1.538267193851e-02
    20   -4.508867016386e-02
    21    1.173645039819e+00
    22    4.801445045138e-02
    23    1.658899314641e-01
    24    1.217587498253e-02
    25    6.458908609809e-03
    26    2.899189449573e-02
    27   -2.114520460445e-02
    28   -3.969179252382e-01
    29   -3.793109467867e-01
    30   -4.292782169293e-02
    31    9.275924956694e-01
    32    9.311715910127e-01
    33    1.029007971376e-01
    34   -1.954187399587e-02
    35   -1.019032151279e-02
    36    1.584330041616e-02
    37   -2.359730412386e-01
    38   -1.215438960762e-02
    39    2.043355530563e-02
    40   -1.085940420451e+00
    41    4.752263421514e-02
    42    1.506865387941e-01
    43    1.157324214236e-02
    44    2.467830578665e-02
    45    1.059577058873e+00
    46    1.367176277052e-01
    47    5.542713333051e-02
    48    9.753235799961e-03
Sym=X
Ene= 0.941226
Spin=Alpha
Occup=0
     1    1.000486510483e-01
     2   -1.215707013638e+00
     3    1.742436649853e-01
     4   -1.234146325100e-02
     5    7.620920767899e-03
     6    4.445170050042e-03
     7   -5.465844661280e-02
     8    1.842329031978e-01
     9   -4.103824412333e-01
    10   -5.207641383594e-01
    11   -5.040329267982e-02
    12    1.349530021020e+00
    13    1.633587622546e+00
    14    1.611247265858e-01
    15   -8.553298234643e-03
    16    4.330771718837e-03
    17   -5.798973927177e-03
    18    1.016176844676e-01
    19   -2.224130841122e-02
    20   -8.991913210143e-02
    21    1.269055804739e+00
    22   -6.342944696988e-03
    23    1.701197561833e-01
    24    9.612554891503e-03
    25   -8.233920283619e-03
    26   -9.078726439462e-02
    27    5.641545638221e-02
    28    5.453430953856e-01
    29    4.491606672860e-01
    30    5.332016709546e-02
    31   -1.715251821230e+00
    32   -1.459575113889e+00
    33   -1.704554989721e-01
    34    2.616196729170e-02
    35    6.064218811164e-03
    36   -9.462773655162e-03
    37    1.318719510708e-01
    38    3.301657623462e-02
    39   -1.145626812038e-01
    40    1.265721439083e+00
    41    2.314304477874e-02
    42   -1.801936288270e-01
    43   -9.859190348433e-03
    44    8.805053009822e-02
    45   -1.470761307631e+00
    46   -1.957623507311e-01
    47   -5.762458002990e-03
    48   -9.714986005514e-03
Sym=X
Ene= 0.974222
Spin=Alpha
Occup=0
     1   -7.428456213905e-02
     2    1.091176679742e+00
     3   -1.144016741598e-01
     4   -1.018722492602e-01
     5   -1.156241614428e-02
     6    2.430011798883e-02
     7    3.319943718958e-01
     8    3.789291680362e-01
     9    5.231310376615e-01
    10   -4.222647029044e-01
    11    9.477738880909e-05
    12   -1.665862104969e+00
    13    1.296895973674e+00
    14   -3.102248425556e-03
    15   -5.132686188188e-02
    16   -1.368978955644e-02
    17   -1.025298210082e-02
    18    1.056026679842e-02
    19   -3.079986417643e-01
    20   -7.010945299255e-02
    21    8.655978612834e-01
    22    1.000894645729e-01
    23    9.073805917722e-02
    24    1.019153394216e-02
    25   -2.168322502714e-02
    26   -1.503497911167e-01
    27   -6.877730371353e-01
    28    4.075659165914e-01
    29   -4.886927391691e-01
    30   -1.077729553619e-02
    31   -1.266276357223e+00
    32    1.583488508887e+00
    33    3.693522133175e-02
    34    4.275729862105e-02
    35    1.203861071009e-02
    36    1.178703234188e-02
    37   -3.497311631908e-02
    38    2.901071558457e-01
    39    6.638825388528e-02
    40   -1.049870218620e+00
    41    9.282113888989e-02
    42    1.086482247925e-01
    43    1.120877212787e-02
    44    6.576076959865e-02
    45   -6.922111519557e-01
    46   -6.020616255554e-02
    47   -9.315714010287e-02
    48   -8.244964749293e-03
[5D]

======= END OF MOLDEN-FORMATTED INPUT FILE =======


        *************************************************************
        *                                                           *
        *  Thank you very much for using Q-Chem.  Have a nice day.  *
        *                                                           *
        *************************************************************


