                  Welcome to Q-Chem
     A Quantum Leap Into The Future Of Chemistry


 Q-Chem 5.4 (devel), Q-Chem, Inc., Pleasanton, CA (2021)

 E. Epifanovsky,  A. T. B. Gilbert,  Xintian Feng,  Joonho Lee,  Yuezhi Mao,  
 N. Mardirossian,  P. Pokhilko,  A. White,  M. Wormit,  M. P. Coons,  
 A. L. Dempwolff,  Zhengting Gan,  D. Hait,  P. R. Horn,  L. D. Jacobson,  
 I. Kaliman,  J. Kussmann,  A. W. Lange,  Ka Un Lao,  D. S. Levine,  Jie Liu,  
 S. C. McKenzie,  A. F. Morrison,  K. Nanda,  F. Plasser,  D. R. Rehn,  
 M. L. Vidal,  Zhi-Qiang You,  Ying Zhu,  B. Alam,  B. Albrecht,  
 A. Aldossary,  E. Alguire,  J. H. Andersen,  D. Barton,  K. Begam,  A. Behn,  
 Y. A. Bernard,  E. J. Berquist,  H. Burton,  A. Carreras,  K. Carter-Fenk,  
 R. Chakraborty,  A. D. Chien,  K. D. Closser,  V. Cofer-Shabica,  
 S. Dasgupta,  Jia Deng,  M. de Wergifosse,  M. Diedenhofen,  Hainam Do,  
 S. Ehlert,  Po-Tung Fang,  S. Fatehi,  Qingguo Feng,  T. Friedhoff,  
 J. Gayvert,  Qinghui Ge,  G. Gidofalvi,  M. Goldey,  J. Gomes,  
 C. Gonzalez-Espinoza,  S. Gulania,  A. Gunina,  M. W. D. Hanson-Heine,  
 P. H. P. Harbach,  A. W. Hauser,  M. F. Herbst,  M. Hernandez Vera,  
 M. Hodecker,  Z. C. Holden,  S. Houck,  Xunkun Huang,  Kerwin Hui,  
 B. C. Huynh,  M. Ivanov,  Hyunjun Ji,  Hanjie Jiang,  B. Kaduk,  S. Kaehler,  
 K. Khistyaev,  Jaehoon Kim,  P. Klunzinger,  Z. Koczor-Benda,  
 Joong Hoon Koh,  D. Kosenkov,  L. Koulias,  T. Kowalczyk,  C. M. Krauter,  
 K. Kue,  A. Kunitsa,  T. Kus,  A. Landau,  K. V. Lawler,  D. Lefrancois,  
 S. Lehtola,  Rain Li,  Yi-Pei Li,  Jiashu Liang,  M. Liebenthal,  
 Hung-Hsuan Lin,  You-Sheng Lin,  Fenglai Liu,  Kuan-Yu Liu,  
 M. Loipersberger,  A. Luenser,  A. Manjanath,  P. Manohar,  E. Mansoor,  
 S. F. Manzer,  Shan-Ping Mao,  A. V. Marenich,  T. Markovich,  S. Mason,  
 S. A. Maurer,  P. F. McLaughlin,  M. F. S. J. Menger,  J.-M. Mewes,  
 S. A. Mewes,  P. Morgante,  J. W. Mullinax,  K. J. Oosterbaan,  G. Paran,  
 Alexander C. Paul,  Suranjan K. Paul,  F. Pavosevic,  Zheng Pei,  S. Prager,  
 E. I. Proynov,  E. Ramos,  B. Rana,  A. E. Rask,  A. Rettig,  R. M. Richard,  
 F. Rob,  E. Rossomme,  T. Scheele,  M. Scheurer,  M. Schneider,  
 N. Sergueev,  S. M. Sharada,  W. Skomorowski,  D. W. Small,  C. J. Stein,  
 Yu-Chuan Su,  E. J. Sundstrom,  Zhen Tao,  J. Thirman,  T. Tsuchimochi,  
 N. M. Tubman,  S. P. Veccham,  O. Vydrov,  J. Wenzel,  J. Witte,  A. Yamada,  
 Kun Yao,  S. Yeganeh,  S. R. Yost,  A. Zech,  Igor Ying Zhang,  Xing Zhang,  
 Yu Zhang,  D. Zuev,  A. Aspuru-Guzik,  A. T. Bell,  N. A. Besley,  
 K. B. Bravaya,  B. R. Brooks,  D. Casanova,  Jeng-Da Chai,  S. Coriani,  
 C. J. Cramer,  A. E. DePrince, III,  R. A. DiStasio Jr.,  A. Dreuw,  
 B. D. Dunietz,  T. R. Furlani,  W. A. Goddard III,  S. Grimme,  
 S. Hammes-Schiffer,  T. Head-Gordon,  W. J. Hehre,  Chao-Ping Hsu,  
 T.-C. Jagau,  Yousung Jung,  A. Klamt,  Jing Kong,  D. S. Lambrecht,  
 WanZhen Liang,  N. J. Mayhall,  C. W. McCurdy,  J. B. Neaton,  
 C. Ochsenfeld,  J. A. Parkhill,  R. Peverati,  V. A. Rassolov,  Yihan Shao,  
 L. V. Slipchenko,  T. Stauch,  R. P. Steele,  J. E. Subotnik,  
 A. J. W. Thom,  A. Tkatchenko,  D. G. Truhlar,  T. Van Voorhis,  
 T. A. Wesolowski,  K. B. Whaley,  H. L. Woodcock III,  P. M. Zimmerman,  
 S. Faraji,  P. M. W. Gill,  M. Head-Gordon,  J. M. Herbert,  A. I. Krylov

 Additional authors for Version 5.4.1: 
 S. Kotaru,  Shaozhi Li,  Xiangyuan Li,  F. Matz,  A. Molle,  Haisheng Ren,  
 Yingli Su,  Hung-Yi Tsai,  C. Utku,  Fang Wang

 Contributors to earlier versions of Q-Chem not listed above: 
 R. D. Adamson,  B. Austin,  R. Baer,  J. Baker,  G. J. O. Beran,  
 K. Brandhorst,  S. T. Brown,  E. F. C. Byrd,  A. K. Chakraborty,  
 G. K. L. Chan,  Chun-Min Chang,  Yunqing Chen,  C.-L. Cheng,  
 Siu Hung Chien,  D. M. Chipman,  D. L. Crittenden,  H. Dachsel,  
 R. J. Doerksen,  A. D. Dutoi,  R. G. Edgar,  J. Fosso-Tande,  
 L. Fusti-Molnar,  D. Ghosh,  A. Ghysels,  A. Golubeva-Zadorozhnaya,  
 J. Gonthier,  M. S. Gordon,  S. R. Gwaltney,  G. Hawkins,  J. E. Herr,  
 A. Heyden,  S. Hirata,  E. G. Hohenstein,  G. Kedziora,  F. J. Keil,  
 C. Kelley,  Jihan Kim,  R. A. King,  R. Z. Khaliullin,  P. P. Korambath,  
 W. Kurlancheek,  A. Laurent,  A. M. Lee,  M. S. Lee,  S. V. Levchenko,  
 Ching Yeh Lin,  D. Liotard,  E. Livshits,  R. C. Lochan,  I. Lotan,  
 L. A. Martinez-Martinez,  P. E. Maslen,  N. Nair,  D. P. O'Neill,  
 D. Neuhauser,  E. Neuscamman,  C. M. Oana,  R. Olivares-Amaya,  R. Olson,  
 T. M. Perrine,  B. Peters,  P. A. Pieniazek,  A. Prociuk,  Y. M. Rhee,  
 J. Ritchie,  M. A. Rohrdanz,  E. Rosta,  N. J. Russ,  H. F. Schaefer III,  
 M. W. Schmidt,  N. E. Schultz,  S. Sharma,  N. Shenvi,  C. D. Sherrill,  
 A. C. Simmonett,  A. Sodt,  T. Stein,  D. Stuck,  K. S. Thanthiriwatte,  
 V. Vanovschi,  L. Vogt,  Tao Wang,  A. Warshel,  M. A. Watson,  
 C. F. Williams,  Q. Wu,  X. Xu,  Jun Yang,  W. Zhang,  Yan Zhao

 Please cite Q-Chem as follows:
 Y. Shao et al., Mol. Phys. 113, 184-215 (2015)
 DOI: 10.1080/00268976.2014.952696

 Q-Chem 5.4.1 for Intel X86 EM64T Linux

 Parts of Q-Chem use Armadillo 9.800.1 (Horizon Scraper).
 http://arma.sourceforge.net/

 Q-Chem begins on Thu Nov 17 00:22:07 2022  

 Host: cpu316.baobab
0

     Scratch files written to /scratch/fum/qchem15128//
 Processing $rem in /home/share/wesolowski/qc5.aug2021.FDE/config/preferences:
 Processing $rem in /home/fum/.qchemrc:

 Checking the input file for inconsistencies... 	...done.

--------------------------------------------------------------
User input:
--------------------------------------------------------------
$comment
generated from CCJob.Templates
$end

$rem
sym_ignore = true
method = adc(2)
ee_states = 10
basis = cc-pVDZ
mem_static = 1024
mem_total = 30000
adc_davidson_maxiter = 900
adc_davidson_conv = 6
adc_print = 3
adc_prop_es = true
adc_prop_es2es = true
adc_prop_tpa = true
molden_format = True
state_analysis = true
print_orbitals = 15
gen_scfman = false
fde_export_density = true
fde_details = 3
$end

$molecule
0 1
H -0.0348278765 -0.2442097827 0.0636489606
C -1.0765972949 -0.5242748755 0.0026448224
H -1.313264467 -1.5767591607 -0.0757276926
C -2.043634118 0.3926884087 0.0061254933
H -1.8137616575 1.4459188338 0.0804456828
H -3.085977293 0.114931858 -0.0593381042                     
$end
--------------------------------------------------------------
 ----------------------------------------------------------------
             Standard Nuclear Orientation (Angstroms)
    I     Atom           X                Y                Z
 ----------------------------------------------------------------
    1      H      -0.0348278765    -0.2442097827     0.0636489606
    2      C      -1.0765972949    -0.5242748755     0.0026448224
    3      H      -1.3132644670    -1.5767591607    -0.0757276926
    4      C      -2.0436341180     0.3926884087     0.0061254933
    5      H      -1.8137616575     1.4459188338     0.0804456828
    6      H      -3.0859772930     0.1149318580    -0.0593381042
 ----------------------------------------------------------------
 Nuclear Repulsion Energy =          33.42377438 hartrees
 There are        8 alpha and        8 beta electrons
 Requested basis set is cc-pVDZ
 There are 24 shells and 48 basis functions
 Total memory of 30000 MB is distributed as follows: 
   MEM_STATIC is set to 1024 MB
   QALLOC/CCMAN JOB total memory use is  28976 MB
 Warning: actual memory use might exceed 30000 MB

 Total QAlloc Memory Limit  30000 MB
 Mega-Array Size      1001 MB
 MEM_STATIC part      1024 MB

                       Distance Matrix (Angstroms)
             H (  1)   C (  2)   H (  3)   C (  4)   H (  5)
   C (  2)  1.080482
   H (  3)  1.851895  1.081608
   C (  4)  2.108139  1.332664  2.102109
   H (  5)  2.453859  2.105024  3.067812  1.080583
   H (  6)  3.074674  2.109511  2.450428  1.080700  1.846510

 A cutoff of  1.0D-11 yielded    300 shell pairs
 There are      1220 function pairs (      1329 Cartesian)
 Smallest overlap matrix eigenvalue = 4.80E-03

 Scale SEOQF with 1.000000e-01/1.000000e-01/1.000000e+00

 Standard Electronic Orientation quadrupole field applied
 Nucleus-field energy     =     0.0000000022 hartrees
 Guess from superposition of atomic densities
 Warning:  Energy on first SCF cycle will be non-variational
 SAD guess density has 16.000000 electrons
 A restricted Hartree-Fock SCF calculation will be
 performed using Pulay DIIS extrapolation
 SCF converges when DIIS error is below 1.0E-08
 using 8 threads for integral computing
 -------------------------------------------------------
 OpenMP Integral computing Module                
 Release: version 1.0, May 2013, Q-Chem Inc. Pittsburgh 
 -------------------------------------------------------
 ---------------------------------------
  Cycle       Energy         DIIS Error
 ---------------------------------------
    1     -78.4388392477      1.01E-01
    2     -78.0176825321      7.21E-03
    3     -78.0383144768      1.84E-03
    4     -78.0397974170      5.73E-04
    5     -78.0399190578      5.79E-05
    6     -78.0399209337      9.34E-06
    7     -78.0399209943      2.25E-06
    8     -78.0399209972      9.16E-07
    9     -78.0399209975      9.22E-08
   10     -78.0399209975      1.14E-08
   11     -78.0399209975      2.91E-09 Convergence criterion met
 ---------------------------------------
 SCF time:  CPU 2.70 s  wall 2.26 s
 SCF   energy in the final basis set = -78.03992100
 Total energy in the final basis set = -78.03992100
Exporting Density Matrix to file 'Densmat_SCF.txt'.
Export successful
================================================================================
|                                                                              |
|                                 A D C  M A N                                 |
|                                                                              |
 ------------------------------------------------------------------------------ 
|                                                                              |
| Components:                                                                  |
|                                                                              |
| - libvmm - 1.3-trunk                                                         |
|   Authors:                                                                   |
|   Evgeny Epifanovsky, Ilya Kaliman                                           |
|                                                                              |
| - libtensor - 2.5-trunk                                                      |
|   Authors:                                                                   |
|   Evgeny Epifanovsky, Michael Wormit, Dmitry Zuev, Sam Manzer,               |
|   Ilya Kaliman                                                               |
|                                                                              |
| - libwfa - 1.1-trunk                                                         |
|   Authors:                                                                   |
|   Felix Plasser, Stefanie Mewes (Baeppler), Benjamin Thomitzni,              |
|   Michael Wormit, Feng Chen, Anna I. Krylov, Pavel Pokhilko                  |
|                                                                              |
| - libadc - 1.1-trunk                                                         |
|   Authors:                                                                   |
|   Michael Wormit, Adrian L. Dempwolff, Philipp H. P. Harbach,                |
|   Caroline Krauter, Dirk Rehn, Matthias Schneider, Jan Wenzel                |
|                                                                              |
| - adcman - 2.6-trunk                                                         |
|   Authors:                                                                   |
|   Michael Wormit, Adrian L. Dempwolff, Philipp H. P. Harbach,                |
|   Caroline Krauter, Daniel Lefrancois, Jan-Michael Mewes, Dirk Rehn,         |
|   Matthias Schneider, Jan Wenzel, Andreas Dreuw                              |
|                                                                              |
| Authors of earlier versions of ADCMAN:                                       |
| Andreas Dreuw, Jan Hendrik Starcke, Dirk Rehn, Michael Wormit                |
|                                                                              |
================================================================================

 Created directory /scratch/fum/qchem15128/plots
  Import QC data ...  CPU 0.00 s  wall 0.00 s

 Alpha MOs, Restricted
 -- Occupied --                  
-11.235 -11.233  -1.032  -0.790  -0.641  -0.582  -0.505  -0.374
  1 A     2 A     3 A     4 A     5 A     6 A     7 A     8 A                  
 -- Virtual --                   
  0.168   0.204   0.233   0.239   0.303   0.462   0.578   0.615
  9 A    10 A    11 A    12 A    13 A    14 A    15 A    16 A                  
  0.689   0.709   0.785   0.808   0.862   0.936   0.972   1.010
 17 A    18 A    19 A    20 A    21 A    22 A    23 A    24 A                  
  1.130   1.235   1.254   1.266   1.294   1.601   1.727   1.750
 25 A    26 A    27 A    28 A    29 A    30 A    31 A    32 A                  
  1.819   1.859   1.867   1.922   1.977   1.978   2.221   2.258
 33 A    34 A    35 A    36 A    37 A    38 A    39 A    40 A                  
  2.376   2.454   2.506   2.634   2.721   2.822   3.140   3.399
 41 A    42 A    43 A    44 A    45 A    46 A    47 A    48 A                  

 Beta MOs, Restricted
 -- Occupied --                  
-11.235 -11.233  -1.032  -0.790  -0.641  -0.582  -0.505  -0.374
  1 A     2 A     3 A     4 A     5 A     6 A     7 A     8 A                  
 -- Virtual --                   
  0.168   0.204   0.233   0.239   0.303   0.462   0.578   0.615
  9 A    10 A    11 A    12 A    13 A    14 A    15 A    16 A                  
  0.689   0.709   0.785   0.808   0.862   0.936   0.972   1.010
 17 A    18 A    19 A    20 A    21 A    22 A    23 A    24 A                  
  1.130   1.235   1.254   1.266   1.294   1.601   1.727   1.750
 25 A    26 A    27 A    28 A    29 A    30 A    31 A    32 A                  
  1.819   1.859   1.867   1.922   1.977   1.978   2.221   2.258
 33 A    34 A    35 A    36 A    37 A    38 A    39 A    40 A                  
  2.376   2.454   2.506   2.634   2.721   2.822   3.140   3.399
 41 A    42 A    43 A    44 A    45 A    46 A    47 A    48 A                  
  Import AO data ...  CPU 0.00 s  wall 0.00 s
  Using point group: C1
  Irreducible representations in point group: A
  Molecular orbitals: 
  Occupied MOs:
  Block   0:   1 (  A) A   2 (  A) A   3 (  A) A   4 (  A) A   5 (  A) A
                  -11.24      -11.23      -1.032     -0.7898     -0.6411
               6 (  A) A   7 (  A) A   8 (  A) A
                 -0.5819     -0.5046      -0.374
  Block   1:   1 (  A) B   2 (  A) B   3 (  A) B   4 (  A) B   5 (  A) B
                  -11.24      -11.23      -1.032     -0.7898     -0.6411
               6 (  A) B   7 (  A) B   8 (  A) B
                 -0.5819     -0.5046      -0.374
  Virtual MOs:
  Block   0:   9 (  A) A  10 (  A) A  11 (  A) A  12 (  A) A  13 (  A) A
                  0.1684      0.2037       0.233      0.2394      0.3033
              14 (  A) A  15 (  A) A  16 (  A) A  17 (  A) A  18 (  A) A
                   0.462      0.5775      0.6151      0.6891      0.7089
              19 (  A) A  20 (  A) A  21 (  A) A  22 (  A) A
                  0.7846       0.808      0.8622      0.9359
  Block   1:  23 (  A) A  24 (  A) A  25 (  A) A  26 (  A) A  27 (  A) A
                  0.9725        1.01        1.13       1.235       1.254
              28 (  A) A  29 (  A) A  30 (  A) A  31 (  A) A  32 (  A) A
                   1.266       1.294       1.601       1.727        1.75
              33 (  A) A  34 (  A) A  35 (  A) A  36 (  A) A
                   1.819       1.859       1.867       1.922
  Block   2:  37 (  A) A  38 (  A) A  39 (  A) A  40 (  A) A  41 (  A) A
                   1.977       1.978       2.221       2.258       2.376
              42 (  A) A  43 (  A) A  44 (  A) A  45 (  A) A  46 (  A) A
                   2.454       2.506       2.634       2.721       2.822
              47 (  A) A  48 (  A) A
                    3.14       3.399
  Block   3:   9 (  A) B  10 (  A) B  11 (  A) B  12 (  A) B  13 (  A) B
                  0.1684      0.2037       0.233      0.2394      0.3033
              14 (  A) B  15 (  A) B  16 (  A) B  17 (  A) B  18 (  A) B
                   0.462      0.5775      0.6151      0.6891      0.7089
              19 (  A) B  20 (  A) B  21 (  A) B  22 (  A) B
                  0.7846       0.808      0.8622      0.9359
  Block   4:  23 (  A) B  24 (  A) B  25 (  A) B  26 (  A) B  27 (  A) B
                  0.9725        1.01        1.13       1.235       1.254
              28 (  A) B  29 (  A) B  30 (  A) B  31 (  A) B  32 (  A) B
                   1.266       1.294       1.601       1.727        1.75
              33 (  A) B  34 (  A) B  35 (  A) B  36 (  A) B
                   1.819       1.859       1.867       1.922
  Block   5:  37 (  A) B  38 (  A) B  39 (  A) B  40 (  A) B  41 (  A) B
                   1.977       1.978       2.221       2.258       2.376
              42 (  A) B  43 (  A) B  44 (  A) B  45 (  A) B  46 (  A) B
                   2.454       2.506       2.634       2.721       2.822
              47 (  A) B  48 (  A) B
                    3.14       3.399
  Import MO data ...  CPU 0.13 s  wall 0.03 s
  Import HF data ...  CPU 1.73 s  wall 0.44 s
  Import 2e integrals ...  CPU 0.58 s  wall 0.08 s

--------------------------------------------------------------------------------
                                   HF Summary                                   
--------------------------------------------------------------------------------
  Energy:                                                  -78.0399209975 a.u.
  Dip. moment [a.u.]:                  [  -0.000546,    0.000924,   -0.002269]
  Total dipole [Debye]:                                               0.006381
  <r^2> [a.u.]:                        [ 175.319656,   34.920433,   11.625943]
  Total <r^2> [a.u.]:                                               221.866032
--------------------------------------------------------------------------------
  HF properties ...  CPU 0.01 s  wall 0.00 s
  MP(1) calculation ...  CPU 0.01 s  wall 0.00 s
  N^6 prerequesite intermediates ...  CPU 0.35 s  wall 0.06 s
  Difference density matrix of state mp2_gs printed to ASCII file 'State_mp2_gs_Difference.txt'
Exporting MP density matrix to file 'Densmat_MP.txt'.
Export successful
  Total density matrix of state mp2_gs printed to ASCII file 'State_mp2_gs_Total.txt'
Exporting MP density matrix to file 'Densmat_MP.txt'.
Export successful

--------------------------------------------------------------------------------
                                 MP(2) Summary                                  
--------------------------------------------------------------------------------
  MP energy contribution:                                   -0.2797049594 a.u.
  Total energy:                                            -78.3196259568 a.u.
  Dip. moment [a.u.]:                  [  -0.000543,    0.000800,   -0.002247]
  Total dipole [Debye]:                                               0.006217
  <r^2> [a.u.]:                        [ 175.366383,   34.960947,   11.457791]
  Total <r^2> [a.u.]:                                               221.785120

  Density matrix analysis:
  ------------------------
  NOs
    Occupation of frontier NOs:
       0.0453   1.9383
    Number of electrons: 16.000000
    Number of unpaired electrons: n_u =  0.40343, n_u,nl =  0.04508
    NO participation ratio (PR_NO): 13.857628
  
  
  Mulliken Population Analysis
  Atom      Charge (e)              h+              e-           Del q
  --------------------------------------------------------------------
   1 H        0.050904        0.014033       -0.011202        0.002831
   2 C       -0.100784        0.093228       -0.098846       -0.005618
   3 H        0.050600        0.014072       -0.011191        0.002881
   4 C       -0.101406        0.092976       -0.098899       -0.005923
   5 H        0.050115        0.014123       -0.011184        0.002940
   6 H        0.050572        0.014082       -0.011192        0.002890
  --------------------------------------------------------------------
  Sum:        0.000000        0.242515       -0.242515       -0.000000
  
  Multipole moment analysis of the density matrix
    Molecular charge:                      0.000000
    Number of electrons:                   16.000000
      Center of electronic charge [Ang]: [ -1.560558,  -0.065629,   0.003927]
    Total nuclear charge:                  16.000000
      Center of nuclear charge [Ang]:    [ -1.560576,  -0.065602,   0.003853]
    Dipole moment [D]:                     0.006217
      Cartesian components [D]:          [ -0.001381,   0.002033,  -0.005710]
    RMS size of the density [Ang]:         1.200821
      Cartesian components [Ang]:        [  0.796167,   0.779469,   0.447790]
  
  Exciton analysis of the difference density matrix
    <r_h> [Ang]:                  [ -1.560466,  -0.065968,   0.004280]
    <r_e> [Ang]:                  [ -1.560473,  -0.065698,   0.004231]
    |<r_e - r_h>| [Ang]:            0.000275
    Hole size [Ang]:                1.393692
      Cartesian components [Ang]: [  0.846592,   0.834216,   0.727835]
    Electron size [Ang]:            1.359767
      Cartesian components [Ang]: [  0.877869,   0.861819,   0.579294]
--------------------------------------------------------------------------------
  MP(2) calculation ...  CPU 0.15 s  wall 0.14 s
  Start ADC(2)-s ...  CPU 0.01 s  wall 0.02 s
  ADC(2) intermediates ...  CPU 0.02 s  wall 0.01 s
  Starting Davidson for singlet states of irrep A ... 
--------------------------------------------------------------------------------
   It NVec Conv  Avg. Norm  Max. Norm  Conv. states           Remark
--------------------------------------------------------------------------------
        10    0  1.330e-01  4.687e-01  0.4119 n n n n n n n n Guess.
    1   20    0  2.310e-02  1.109e-01  0.3263 n n n n n n n n 
    2   30    0  5.969e-03  2.547e-02  0.3215 n n n n n n n n 
    3   40    0  2.067e-03  1.161e-02  0.3211 n n n n n n n n 
    4   50    0  5.333e-04  3.349e-03  0.3211 n n n n n n n n 
    5   20    0  2.709e-04  1.705e-03  0.3211 n n n n n n n n Subspace collapsed.
    6   30    0  1.923e-04  1.422e-03  0.3211 n n n n n n n n 
    7   40    0  1.606e-04  1.264e-03  0.3211 n n n n n n n n 
    8   50    0  1.020e-04  9.022e-04  0.3211 n n n n n n n n 
    9   20    1  4.815e-05  3.924e-04  0.3211 n y n n n n n n Subspace collapsed.
   10   30    3  3.296e-05  2.487e-04  0.3211 n y y y n n n n 
   11   40    3  1.572e-05  1.219e-04  0.3211 n y y y n n n n 
   12   50    5  8.888e-06  7.825e-05  0.3211 n y y y y y n n 
   13   20    6  8.155e-06  7.566e-05  0.3211 y y y y y y n n Subspace collapsed.
   14   30    6  1.091e-05  1.051e-04  0.3211 y y y y y y n n 
   15   40    6  1.035e-05  1.017e-04  0.3211 y y y y y y n n 
   16   50    6  8.390e-06  8.307e-05  0.3211 y y y y y y n n 
   17   20    6  4.049e-06  4.014e-05  0.3211 y y y y y y n n Subspace collapsed.
   18   30    6  2.784e-06  2.757e-05  0.3211 y y y y y y n n 
   19   40    7  1.522e-06  1.506e-05  0.3211 y y y y y y n y 
   20   50    8  1.087e-06  1.077e-05  0.3211 y y y y y y y y 
   21   20    9  1.021e-06  1.014e-05  0.3211 y y y y y y y y Subspace collapsed.
   22   30    8  1.468e-06  1.462e-05  0.3211 y y y y y y y y 
   23   40    9  1.417e-06  1.414e-05  0.3211 y y y y y y y y 
   24   49    9  1.079e-06  1.078e-05  0.3211 y y y y y y y y 
   25   50    9  1.044e-06  1.043e-05  0.3211 y y y y y y y y 
   26   16    9  5.860e-07  5.855e-06  0.3211 y y y y y y y y Subspace collapsed.
   27   22    9  3.813e-07  3.809e-06  0.3211 y y y y y y y y 
   28   28    9  2.480e-07  2.478e-06  0.3211 y y y y y y y y 
   29   33    9  1.780e-07  1.779e-06  0.3211 y y y y y y y y 
   30   33    9  1.780e-07  1.779e-06  0.3211 y y y y y y y y 
   31   43    9  2.203e-07  2.202e-06  0.3211 y y y y y y y y 
   32   43    9  2.203e-07  2.202e-06  0.3211 y y y y y y y y 
   33   46    9  2.223e-07  2.222e-06  0.3211 y y y y y y y y 
   34   50    9  1.990e-07  1.990e-06  0.3211 y y y y y y y y 
   35   14    9  1.136e-07  1.136e-06  0.3211 y y y y y y y y Subspace collapsed.
   36   18   10  7.254e-08  7.252e-07  0.3211 y y y y y y y y Converged.
--------------------------------------------------------------------------------
  Davidson Summary: 
 ------------------------------------------------------------
  State  0: excitation energy =   0.3211 a.u.   (converged)
  State  1: excitation energy =   0.3327 a.u.   (converged)
  State  2: excitation energy =   0.3370 a.u.   (converged)
  State  3: excitation energy =   0.3614 a.u.   (converged)
  State  4: excitation energy =   0.3753 a.u.   (converged)
  State  5: excitation energy =   0.3872 a.u.   (converged)
  State  6: excitation energy =   0.4247 a.u.   (converged)
  State  7: excitation energy =   0.4471 a.u.   (converged)
  State  8: excitation energy =   0.4563 a.u.   (converged)
  State  9: excitation energy =   0.4647 a.u.   (converged)
 ------------------------------------------------------------

  Singlet states of irrep A ...  CPU 93.21 s  wall 30.01 s
  TDMs ...  CPU 1.29 s  wall 0.41 s
  SDMs ...  CPU 3.31 s  wall 0.84 s
  Starting TPA DIIS iterations ... 
------------------------------------ 
   It     Res. Norm  Remark
------------------------------------
                       Guess.
    1     4.405e+00  
    2     5.840e+00  
    3     1.077e+00  
    4     2.566e-01  
    5     6.575e-02  
    6     2.674e-02  
    7     8.238e-03  
    8     1.440e-03  
    9     5.345e-04  
   10     9.002e-05  
   11     2.827e-05  
   12     4.422e-06  
   13     1.423e-06  
   14     4.454e-07  Converged.
   ... Converged in 14 steps (norm: 4.45385e-07)
------------------------------------
  Starting TPA DIIS iterations ... 
------------------------------------ 
   It     Res. Norm  Remark
------------------------------------
                       Guess.
    1     4.185e+00  
    2     5.542e+00  
    3     1.030e+00  
    4     2.556e-01  
    5     6.534e-02  
    6     2.673e-02  
    7     8.117e-03  
    8     1.455e-03  
    9     5.375e-04  
   10     8.992e-05  
   11     2.847e-05  
   12     4.340e-06  
   13     1.468e-06  
   14     4.239e-07  Converged.
   ... Converged in 14 steps (norm: 4.23908e-07)
------------------------------------
  Starting TPA DIIS iterations ... 
------------------------------------ 
   It     Res. Norm  Remark
------------------------------------
                       Guess.
    1     6.870e-01  
    2     4.807e-01  
    3     1.696e-01  
    4     3.716e-02  
    5     1.367e-02  
    6     7.609e-03  
    7     1.048e-03  
    8     4.486e-04  
    9     1.237e-04  
   10     2.984e-05  
   11     5.066e-06  
   12     1.375e-06  
   13     5.538e-07  Converged.
   ... Converged in 13 steps (norm: 5.53803e-07)
------------------------------------
  Starting TPA DIIS iterations ... 
------------------------------------ 
   It     Res. Norm  Remark
------------------------------------
                       Guess.
    1     4.692e+00  
    2     6.355e+00  
    3     1.158e+00  
    4     2.851e-01  
    5     7.406e-02  
    6     3.037e-02  
    7     9.341e-03  
    8     1.631e-03  
    9     6.097e-04  
   10     1.033e-04  
   11     3.276e-05  
   12     5.175e-06  
   13     1.678e-06  
   14     5.271e-07  Converged.
   ... Converged in 14 steps (norm: 5.27088e-07)
------------------------------------
  Starting TPA DIIS iterations ... 
------------------------------------ 
   It     Res. Norm  Remark
------------------------------------
                       Guess.
    1     4.457e+00  
    2     6.030e+00  
    3     1.107e+00  
    4     2.838e-01  
    5     7.362e-02  
    6     3.039e-02  
    7     9.207e-03  
    8     1.649e-03  
    9     6.132e-04  
   10     1.031e-04  
   11     3.297e-05  
   12     5.066e-06  
   13     1.735e-06  
   14     4.979e-07  Converged.
   ... Converged in 14 steps (norm: 4.97941e-07)
------------------------------------
  Starting TPA DIIS iterations ... 
------------------------------------ 
   It     Res. Norm  Remark
------------------------------------
                       Guess.
    1     6.990e-01  
    2     4.977e-01  
    3     1.793e-01  
    4     4.041e-02  
    5     1.525e-02  
    6     8.502e-03  
    7     1.179e-03  
    8     5.285e-04  
    9     1.495e-04  
   10     3.421e-05  
   11     5.732e-06  
   12     1.604e-06  
   13     6.726e-07  Converged.
   ... Converged in 13 steps (norm: 6.72595e-07)
------------------------------------
  Starting TPA DIIS iterations ... 
------------------------------------ 
   It     Res. Norm  Remark
------------------------------------
                       Guess.
    1     4.805e+00  
    2     6.562e+00  
    3     1.190e+00  
    4     2.967e-01  
    5     7.745e-02  
    6     3.187e-02  
    7     9.792e-03  
    8     1.708e-03  
    9     6.406e-04  
   10     1.087e-04  
   11     3.463e-05  
   12     5.489e-06  
   13     1.785e-06  
   14     5.615e-07  Converged.
   ... Converged in 14 steps (norm: 5.61462e-07)
------------------------------------
  Starting TPA DIIS iterations ... 
------------------------------------ 
   It     Res. Norm  Remark
------------------------------------
                       Guess.
    1     4.565e+00  
    2     6.226e+00  
    3     1.137e+00  
    4     2.952e-01  
    5     7.700e-02  
    6     3.189e-02  
    7     9.652e-03  
    8     1.727e-03  
    9     6.442e-04  
   10     1.086e-04  
   11     3.484e-05  
   12     5.367e-06  
   13     1.848e-06  
   14     5.288e-07  Converged.
   ... Converged in 14 steps (norm: 5.28807e-07)
------------------------------------
  Starting TPA DIIS iterations ... 
------------------------------------ 
   It     Res. Norm  Remark
------------------------------------
                       Guess.
    1     7.035e-01  
    2     5.043e-01  
    3     1.831e-01  
    4     4.173e-02  
    5     1.590e-02  
    6     8.854e-03  
    7     1.234e-03  
    8     5.621e-04  
    9     1.604e-04  
   10     3.567e-05  
   11     5.998e-06  
   12     1.699e-06  
   13     7.238e-07  Converged.
   ... Converged in 13 steps (norm: 7.23807e-07)
------------------------------------
  Starting TPA DIIS iterations ... 
------------------------------------ 
   It     Res. Norm  Remark
------------------------------------
                       Guess.
    1     5.545e+00  
    2     7.941e+00  
    3     1.397e+00  
    4     3.768e-01  
    5     1.008e-01  
    6     4.223e-02  
    7     1.290e-02  
    8     2.241e-03  
    9     8.549e-04  
   10     1.465e-04  
   11     4.789e-05  
   12     7.730e-06  
   13     2.568e-06  
   14     8.143e-07  Converged.
   ... Converged in 14 steps (norm: 8.14288e-07)
------------------------------------
  Starting TPA DIIS iterations ... 
------------------------------------ 
   It     Res. Norm  Remark
------------------------------------
                       Guess.
    1     5.265e+00  
    2     7.534e+00  
    3     1.335e+00  
    4     3.742e-01  
    5     1.003e-01  
    6     4.234e-02  
    7     1.272e-02  
    8     2.269e-03  
    9     8.597e-04  
   10     1.463e-04  
   11     4.806e-05  
   12     7.503e-06  
   13     2.676e-06  
   14     7.515e-07  Converged.
   ... Converged in 14 steps (norm: 7.51536e-07)
------------------------------------
  Starting TPA DIIS iterations ... 
------------------------------------ 
   It     Res. Norm  Remark
------------------------------------
                       Guess.
    1     7.301e-01  
    2     5.446e-01  
    3     2.071e-01  
    4     5.067e-02  
    5     2.021e-02  
    6     1.112e-02  
    7     1.628e-03  
    8     8.002e-04  
    9     2.359e-04  
   10     4.135e-05  
   11     7.789e-06  
   12     2.383e-06  
   13     1.118e-06  
   14     4.901e-07  Converged.
   ... Converged in 14 steps (norm: 4.90136e-07)
------------------------------------
  Starting TPA DIIS iterations ... 
------------------------------------ 
   It     Res. Norm  Remark
------------------------------------
                       Guess.
    1     6.056e+00  
    2     8.927e+00  
    3     1.539e+00  
    4     4.362e-01  
    5     1.181e-01  
    6     5.002e-02  
    7     1.520e-02  
    8     2.635e-03  
    9     1.016e-03  
   10     1.750e-04  
   11     5.809e-05  
   12     9.467e-06  
   13     3.192e-06  
   14     1.020e-06  
   15     3.175e-07  Converged.
   ... Converged in 15 steps (norm: 3.17477e-07)
------------------------------------
  Starting TPA DIIS iterations ... 
------------------------------------ 
   It     Res. Norm  Remark
------------------------------------
                       Guess.
    1     5.749e+00  
    2     8.469e+00  
    3     1.470e+00  
    4     4.327e-01  
    5     1.175e-01  
    6     5.020e-02  
    7     1.500e-02  
    8     2.670e-03  
    9     1.021e-03  
   10     1.747e-04  
   11     5.819e-05  
   12     9.138e-06  
   13     3.344e-06  
   14     9.291e-07  Converged.
   ... Converged in 14 steps (norm: 9.29071e-07)
------------------------------------
  Starting TPA DIIS iterations ... 
------------------------------------ 
   It     Res. Norm  Remark
------------------------------------
                       Guess.
    1     7.462e-01  
    2     5.704e-01  
    3     2.230e-01  
    4     5.721e-02  
    5     2.325e-02  
    6     1.266e-02  
    7     1.938e-03  
    8     9.724e-04  
    9     2.894e-04  
   10     4.256e-05  
   11     9.118e-06  
   12     2.920e-06  
   13     1.456e-06  
   14     6.225e-07  Converged.
   ... Converged in 14 steps (norm: 6.22452e-07)
------------------------------------
  Starting TPA DIIS iterations ... 
------------------------------------ 
   It     Res. Norm  Remark
------------------------------------
                       Guess.
    1     6.555e+00  
    2     9.916e+00  
    3     1.677e+00  
    4     4.973e-01  
    5     1.359e-01  
    6     5.809e-02  
    7     1.757e-02  
    8     3.039e-03  
    9     1.183e-03  
   10     2.045e-04  
   11     6.880e-05  
   12     1.130e-05  
   13     3.865e-06  
   14     1.250e-06  
   15     3.904e-07  Converged.
   ... Converged in 15 steps (norm: 3.904e-07)
------------------------------------
  Starting TPA DIIS iterations ... 
------------------------------------ 
   It     Res. Norm  Remark
------------------------------------
                       Guess.
    1     6.222e+00  
    2     9.407e+00  
    3     1.602e+00  
    4     4.929e-01  
    5     1.353e-01  
    6     5.836e-02  
    7     1.734e-02  
    8     3.081e-03  
    9     1.189e-03  
   10     2.041e-04  
   11     6.879e-05  
   12     1.085e-05  
   13     4.071e-06  
   14     1.124e-06  
   15     5.717e-07  Converged.
   ... Converged in 15 steps (norm: 5.71677e-07)
------------------------------------
  Starting TPA DIIS iterations ... 
------------------------------------ 
   It     Res. Norm  Remark
------------------------------------
                       Guess.
    1     7.605e-01  
    2     5.943e-01  
    3     2.381e-01  
    4     6.391e-02  
    5     2.622e-02  
    6     1.416e-02  
    7     2.270e-03  
    8     1.136e-03  
    9     3.409e-04  
   10     4.302e-05  
   11     1.052e-05  
   12     3.498e-06  
   13     1.844e-06  
   14     7.722e-07  Converged.
   ... Converged in 14 steps (norm: 7.72245e-07)
------------------------------------
  Starting TPA DIIS iterations ... 
------------------------------------ 
   It     Res. Norm  Remark
------------------------------------
                       Guess.
    1     8.661e+00  
    2     1.432e+01  
    3     2.250e+00  
    4     7.821e-01  
    5     2.190e-01  
    6     9.655e-02  
    7     2.863e-02  
    8     4.916e-03  
    9     1.975e-03  
   10     3.441e-04  
   11     1.198e-04  
   12     2.033e-05  
   13     7.274e-06  
   14     2.548e-06  
   15     7.883e-07  Converged.
   ... Converged in 15 steps (norm: 7.88317e-07)
------------------------------------
  Starting TPA DIIS iterations ... 
------------------------------------ 
   It     Res. Norm  Remark
------------------------------------
                       Guess.
    1     8.217e+00  
    2     1.359e+01  
    3     2.147e+00  
    4     7.723e-01  
    5     2.181e-01  
    6     9.727e-02  
    7     2.829e-02  
    8     4.988e-03  
    9     1.982e-03  
   10     3.428e-04  
   11     1.189e-04  
   12     1.897e-05  
   13     7.881e-06  
   14     2.257e-06  
   15     1.391e-06  
   16     5.359e-07  Converged.
   ... Converged in 16 steps (norm: 5.35853e-07)
------------------------------------
  Starting TPA DIIS iterations ... 
------------------------------------ 
   It     Res. Norm  Remark
------------------------------------
                       Guess.
    1     8.093e-01  
    2     6.833e-01  
    3     2.976e-01  
    4     9.525e-02  
    5     3.831e-02  
    6     2.064e-02  
    7     3.936e-03  
    8     1.659e-03  
    9     5.392e-04  
   10     5.169e-05  
   11     1.758e-05  
   12     6.581e-06  
   13     4.231e-06  
   14     1.688e-06  
   15     9.524e-07  Converged.
   ... Converged in 15 steps (norm: 9.52378e-07)
------------------------------------
  Starting TPA DIIS iterations ... 
------------------------------------ 
   It     Res. Norm  Remark
------------------------------------
                       Guess.
    1     1.048e+01  
    2     1.842e+01  
    3     2.733e+00  
    4     1.057e+00  
    5     2.998e-01  
    6     1.348e-01  
    7     3.939e-02  
    8     6.733e-03  
    9     2.761e-03  
   10     4.814e-04  
   11     1.689e-04  
   12     2.976e-05  
   13     1.086e-05  
   14     4.104e-06  
   15     1.319e-06  
   16     6.740e-07  Converged.
   ... Converged in 16 steps (norm: 6.73963e-07)
------------------------------------
  Starting TPA DIIS iterations ... 
------------------------------------ 
   It     Res. Norm  Remark
------------------------------------
                       Guess.
    1     9.945e+00  
    2     1.747e+01  
    3     2.606e+00  
    4     1.041e+00  
    5     2.988e-01  
    6     1.361e-01  
    7     3.893e-02  
    8     6.831e-03  
    9     2.769e-03  
   10     4.788e-04  
   11     1.668e-04  
   12     2.703e-05  
   13     1.218e-05  
   14     3.823e-06  
   15     2.542e-06  
   16     1.149e-06  
   17     7.599e-07  Converged.
   ... Converged in 17 steps (norm: 7.59931e-07)
------------------------------------
  Starting TPA DIIS iterations ... 
------------------------------------ 
   It     Res. Norm  Remark
------------------------------------
                       Guess.
    1     8.416e-01  
    2     7.491e-01  
    3     3.445e-01  
    4     1.264e-01  
    5     4.854e-02  
    6     2.637e-02  
    7     5.621e-03  
    8     1.874e-03  
    9     6.916e-04  
   10     6.996e-05  
   11     2.513e-05  
   12     1.029e-05  
   13     7.546e-06  
   14     2.963e-06  
   15     1.375e-06  
   16     8.879e-07  Converged.
   ... Converged in 16 steps (norm: 8.87946e-07)
------------------------------------
  Starting TPA DIIS iterations ... 
------------------------------------ 
   It     Res. Norm  Remark
------------------------------------
                       Guess.
    1     1.142e+01  
    2     2.062e+01  
    3     2.977e+00  
    4     1.205e+00  
    5     3.441e-01  
    6     1.561e-01  
    7     4.528e-02  
    8     7.725e-03  
    9     3.196e-03  
   10     5.569e-04  
   11     1.953e-04  
   12     3.521e-05  
   13     1.294e-05  
   14     5.044e-06  
   15     1.708e-06  
   16     8.824e-07  Converged.
   ... Converged in 16 steps (norm: 8.82412e-07)
------------------------------------
  Starting TPA DIIS iterations ... 
------------------------------------ 
   It     Res. Norm  Remark
------------------------------------
                       Guess.
    1     1.083e+01  
    2     1.956e+01  
    3     2.839e+00  
    4     1.186e+00  
    5     3.430e-01  
    6     1.576e-01  
    7     4.476e-02  
    8     7.838e-03  
    9     3.204e-03  
   10     5.533e-04  
   11     1.925e-04  
   12     3.155e-05  
   13     1.481e-05  
   14     4.894e-06  
   15     3.338e-06  
   16     1.583e-06  
   17     9.918e-07  Converged.
   ... Converged in 17 steps (norm: 9.9178e-07)
------------------------------------
  Starting TPA DIIS iterations ... 
------------------------------------ 
   It     Res. Norm  Remark
------------------------------------
                       Guess.
    1     8.558e-01  
    2     7.799e-01  
    3     3.673e-01  
    4     1.438e-01  
    5     5.392e-02  
    6     2.927e-02  
    7     6.540e-03  
    8     1.932e-03  
    9     7.657e-04  
   10     8.112e-05  
   11     2.949e-05  
   12     1.265e-05  
   13     9.803e-06  
   14     3.826e-06  
   15     1.625e-06  
   16     1.185e-06  
   17     3.562e-07  Converged.
   ... Converged in 17 steps (norm: 3.56164e-07)
------------------------------------
  Starting TPA DIIS iterations ... 
------------------------------------ 
   It     Res. Norm  Remark
------------------------------------
                       Guess.
    1     1.239e+01  
    2     2.295e+01  
    3     3.227e+00  
    4     1.363e+00  
    5     3.916e-01  
    6     1.791e-01  
    7     5.159e-02  
    8     8.788e-03  
    9     3.666e-03  
   10     6.379e-04  
   11     2.234e-04  
   12     4.131e-05  
   13     1.525e-05  
   14     6.110e-06  
   15     2.213e-06  
   16     1.142e-06  
   17     6.139e-07  Converged.
   ... Converged in 17 steps (norm: 6.13948e-07)
------------------------------------
  Starting TPA DIIS iterations ... 
------------------------------------ 
   It     Res. Norm  Remark
------------------------------------
                       Guess.
    1     1.175e+01  
    2     2.177e+01  
    3     3.076e+00  
    4     1.340e+00  
    5     3.903e-01  
    6     1.809e-01  
    7     5.101e-02  
    8     8.915e-03  
    9     3.674e-03  
   10     6.333e-04  
   11     2.198e-04  
   12     3.651e-05  
   13     1.784e-05  
   14     6.203e-06  
   15     4.327e-06  
   16     2.123e-06  
   17     1.262e-06  
   18     5.565e-07  Converged.
   ... Converged in 18 steps (norm: 5.56546e-07)
------------------------------------
  Starting TPA DIIS iterations ... 
------------------------------------ 
   It     Res. Norm  Remark
------------------------------------
                       Guess.
    1     8.690e-01  
    2     8.098e-01  
    3     3.899e-01  
    4     1.629e-01  
    5     5.963e-02  
    6     3.216e-02  
    7     7.513e-03  
    8     1.976e-03  
    9     8.403e-04  
   10     9.318e-05  
   11     3.433e-05  
   12     1.540e-05  
   13     1.257e-05  
   14     4.876e-06  
   15     1.996e-06  
   16     1.547e-06  
   17     4.542e-07  Converged.
   ... Converged in 17 steps (norm: 4.54242e-07)
------------------------------------
  Two-photon absorbption ...  CPU 85.76 s  wall 21.38 s
  Transition density matrix of state singlet_A_1 printed to ASCII file 'State_singlet_A_1_Transition.txt'
  Transition density matrix of state singlet_A_2 printed to ASCII file 'State_singlet_A_2_Transition.txt'
  Transition density matrix of state singlet_A_3 printed to ASCII file 'State_singlet_A_3_Transition.txt'
  Transition density matrix of state singlet_A_4 printed to ASCII file 'State_singlet_A_4_Transition.txt'
  Transition density matrix of state singlet_A_5 printed to ASCII file 'State_singlet_A_5_Transition.txt'
  Transition density matrix of state singlet_A_6 printed to ASCII file 'State_singlet_A_6_Transition.txt'
  Transition density matrix of state singlet_A_7 printed to ASCII file 'State_singlet_A_7_Transition.txt'
  Transition density matrix of state singlet_A_8 printed to ASCII file 'State_singlet_A_8_Transition.txt'
  Transition density matrix of state singlet_A_9 printed to ASCII file 'State_singlet_A_9_Transition.txt'
  Transition density matrix of state singlet_A_10 printed to ASCII file 'State_singlet_A_10_Transition.txt'
  Transition properties ...  CPU 0.14 s  wall 0.26 s
  Difference density matrix of state singlet_A_1 printed to ASCII file 'State_singlet_A_1_Difference.txt'
  Total density matrix of state singlet_A_1 printed to ASCII file 'State_singlet_A_1_Total.txt'
  Difference density matrix of state singlet_A_2 printed to ASCII file 'State_singlet_A_2_Difference.txt'
  Total density matrix of state singlet_A_2 printed to ASCII file 'State_singlet_A_2_Total.txt'
  Difference density matrix of state singlet_A_3 printed to ASCII file 'State_singlet_A_3_Difference.txt'
  Total density matrix of state singlet_A_3 printed to ASCII file 'State_singlet_A_3_Total.txt'
  Difference density matrix of state singlet_A_4 printed to ASCII file 'State_singlet_A_4_Difference.txt'
  Total density matrix of state singlet_A_4 printed to ASCII file 'State_singlet_A_4_Total.txt'
  Difference density matrix of state singlet_A_5 printed to ASCII file 'State_singlet_A_5_Difference.txt'
  Total density matrix of state singlet_A_5 printed to ASCII file 'State_singlet_A_5_Total.txt'
  Difference density matrix of state singlet_A_6 printed to ASCII file 'State_singlet_A_6_Difference.txt'
  Total density matrix of state singlet_A_6 printed to ASCII file 'State_singlet_A_6_Total.txt'
  Difference density matrix of state singlet_A_7 printed to ASCII file 'State_singlet_A_7_Difference.txt'
  Total density matrix of state singlet_A_7 printed to ASCII file 'State_singlet_A_7_Total.txt'
  Difference density matrix of state singlet_A_8 printed to ASCII file 'State_singlet_A_8_Difference.txt'
  Total density matrix of state singlet_A_8 printed to ASCII file 'State_singlet_A_8_Total.txt'
  Difference density matrix of state singlet_A_9 printed to ASCII file 'State_singlet_A_9_Difference.txt'
  Total density matrix of state singlet_A_9 printed to ASCII file 'State_singlet_A_9_Total.txt'
  Difference density matrix of state singlet_A_10 printed to ASCII file 'State_singlet_A_10_Difference.txt'
  Total density matrix of state singlet_A_10 printed to ASCII file 'State_singlet_A_10_Total.txt'
  Properties ...  CPU 0.30 s  wall 0.54 s
  ISR TDMS ...  CPU 16.05 s  wall 4.41 s
  ISR transition properties ...  CPU 0.26 s  wall 0.10 s
  Sum-over-states TPA ...  CPU 0.00 s  wall 0.00 s

--------------------------------------------------------------------------------
                   State-averaged natural transition orbitals
--------------------------------------------------------------------------------
--------------------------------------------------------------------------------
  SA-NTO decomposition ...  CPU 0.01 s  wall 0.02 s

--------------------------------------------------------------------------------
                             Excited State Summary
--------------------------------------------------------------------------------
--------------------------------------------------------------------------------

  Excited state 1 (singlet, A)                                     [converged]
  ----------------------------------------------------------------------------
  Term symbol:  2 (1) A                                     R^2 =  1.50062e-13

  Total energy:                                            -77.9985391305 a.u.
  Excitation energy:                                               8.737217 eV

  Osc. strength:                                                      0.445619
  Trans. dip. moment [a.u.]:           [  -1.045337,    0.994501,    0.002885]
  <i|r^2|0> [a.u.]:                    [  -6.165654,    0.249122,    0.000178]
  Two-photon absorption cross-section (SoS) [a.u.]:                   0.000486
  Two-photon absorption matrix (SoS) [a.u.]:
                                       |   -0.005629    0.001756   -0.001523 |
                                       |    0.001756   -0.000824    0.001554 |
                                       |   -0.001523    0.001554   -0.004149 |
  Two-photon absorption cross-section [a.u.]:                         0.000540
  Two-photon absorption matrix [a.u.]:
                                       |   -0.000132    0.002880   -0.004677 |
                                       |    0.002880    0.006707    0.002559 |
                                       |   -0.004677    0.002559   -0.003415 |

  Dip. moment [a.u.]:                  [  -0.000508,    0.000686,   -0.002798]
  Total dipole [Debye]:                                               0.007436
  <r^2> [a.u.]:                        [ 176.121033,   35.651133,   11.867631]
  Total <r^2> [a.u.]:                                               223.639798

  V1^2 = 0.9715, V2^2 = 0.0285

  Important amplitudes:
      occ i     occ j     vir a      vir b          v   
    -----------------------------------------------------
     8 (A) A              9 (A) A                -0.6811
     6 (A) A             14 (A) A                 0.0623
     4 (A) A             10 (A) A                 0.0606
     7 (A) A             16 (A) A                -0.0570
     5 (A) A             13 (A) A                 0.0513
     6 (A) A             23 (A) A                 0.0486
     8 (A) A             20 (A) A                -0.0350
     6 (A) A             19 (A) A                 0.0309
     3 (A) A             12 (A) A                -0.0281
     5 (A) A             22 (A) A                -0.0215
     7 (A) A             11 (A) A                -0.0209
     4 (A) A             24 (A) A                 0.0187
     3 (A) A             26 (A) A                 0.0185
     8 (A) A   8 (A) B   17 (A) A   20 (A) B      0.0184
     8 (A) A   8 (A) B    9 (A) A   28 (A) B     -0.0168
     6 (A) A             26 (A) A                 0.0163
     7 (A) A             21 (A) A                -0.0148
     3 (A) A             14 (A) A                 0.0139
     6 (A) A             12 (A) A                 0.0132
     3 (A) A   4 (A) B    9 (A) A    9 (A) B     -0.0129
     3 (A) A             19 (A) A                 0.0119
     8 (A) A   8 (A) B   18 (A) A   19 (A) B     -0.0113
     7 (A) A             32 (A) A                -0.0096
     7 (A) A             36 (A) A                -0.0086
     3 (A) A             23 (A) A                 0.0080
     8 (A) A   8 (A) B   25 (A) A   29 (A) B     -0.0076
     6 (A) A             35 (A) A                 0.0072
     6 (A) A             40 (A) A                 0.0068
     3 (A) A   6 (A) B    9 (A) A   28 (A) B     -0.0065
     6 (A) A   8 (A) A   19 (A) A   28 (A) A     -0.0061
     5 (A) A   7 (A) B    9 (A) A    9 (A) B      0.0060
     5 (A) A   8 (A) B   11 (A) A   20 (A) B      0.0059
     7 (A) A   8 (A) B   13 (A) A   20 (A) B     -0.0059
     5 (A) A   8 (A) B   16 (A) A    9 (A) B      0.0059
     5 (A) A   8 (A) B   11 (A) A    9 (A) B     -0.0059
     3 (A) A   5 (A) B    9 (A) A   25 (A) B      0.0058
     3 (A) A             40 (A) A                 0.0057
     7 (A) A   8 (A) B   22 (A) A   20 (A) B      0.0057
     6 (A) A   8 (A) A    9 (A) A   18 (A) A      0.0057
     8 (A) A   8 (A) B   19 (A) A   30 (A) B     -0.0056
    -----------------------------------------------------

  Density matrix analysis:
  ------------------------
  NOs
    Occupation of frontier NOs:
       0.9495   1.0217
    Number of electrons: 16.000000
    Number of unpaired electrons: n_u =  2.31339, n_u,nl =  2.03264
    NO participation ratio (PR_NO):  2.863912
  
  
  Mulliken Population Analysis
  Atom      Charge (e)              h+              e-           Del q
  --------------------------------------------------------------------
   1 H        0.058629        0.020289       -0.012564        0.007725
   2 C       -0.115973        0.490896       -0.506085       -0.015189
   3 H        0.058154        0.020180       -0.012626        0.007554
   4 C       -0.116942        0.490730       -0.506265       -0.015536
   5 H        0.057749        0.020200       -0.012566        0.007634
   6 H        0.058383        0.020333       -0.012522        0.007811
  --------------------------------------------------------------------
  Sum:        0.000000        1.062628       -1.062628       -0.000000
  
  Multipole moment analysis of the density matrix
    Molecular charge:                      0.000000
    Number of electrons:                   16.000000
      Center of electronic charge [Ang]: [ -1.560559,  -0.065625,   0.003946]
    Total nuclear charge:                  16.000000
      Center of nuclear charge [Ang]:    [ -1.560576,  -0.065602,   0.003853]
    Dipole moment [D]:                     0.007436
      Cartesian components [D]:          [ -0.001292,   0.001743,  -0.007112]
    RMS size of the density [Ang]:         1.214260
      Cartesian components [Ang]:        [  0.804417,   0.787180,   0.455729]
  
  Exciton analysis of the difference density matrix
    <r_h> [Ang]:                  [ -1.560273,  -0.065862,   0.005069]
    <r_e> [Ang]:                  [ -1.560290,  -0.065805,   0.005344]
    |<r_e - r_h>| [Ang]:            0.000281
    Hole size [Ang]:                1.285447
      Cartesian components [Ang]: [  0.728475,   0.712663,   0.783460]
    Electron size [Ang]:            1.463242
      Cartesian components [Ang]: [  0.854102,   0.830529,   0.849593]

  Transition density matrix analysis:
  -----------------------------------
  
  CT numbers (Mulliken)
    omega =     0.9535
    <Phe> =    -0.1607
  
  Exciton analysis of the transition density matrix
    Trans. dipole moment [D]:             1.833659
      Cartesian components [D]:         [ -1.328490,   1.263885,   0.003667]
    <r_h> [Ang]:                        [ -1.560108,  -0.065955,   0.004863]
    <r_e> [Ang]:                        [ -1.560319,  -0.065809,   0.005523]
    |<r_e - r_h>| [Ang]:                  0.000708
    Hole size [Ang]:                      1.214142
      Cartesian components [Ang]:       [  0.649608,   0.636412,   0.804443]
    Electron size [Ang]:                  1.486103
      Cartesian components [Ang]:       [  0.864541,   0.839444,   0.869716]
    RMS electron-hole separation [Ang]:   1.936752
      Cartesian components [Ang]:       [  1.106807,   1.075187,   1.170452]
    Covariance(r_h, r_e) [Ang^2]:        -0.034182
    Correlation coefficient:             -0.018944
    Center-of-mass size [Ang]:            0.950563
      Cartesian components [Ang]:       [  0.527689,   0.515594,   0.599398]

  Decomposition into state-averaged NTOs
    H- 0 -> L+ 0:  0.6699 ( 89.7%)
    H- 2 -> L+ 5:  0.0836 (  1.4%)
                   omega =  95.4%
  ----------------------------------------------------------------------------


  Excited state 2 (singlet, A)                                     [converged]
  ----------------------------------------------------------------------------
  Term symbol:  3 (1) A                                     R^2 =  3.87232e-14

  Total energy:                                            -77.9868947992 a.u.
  Excitation energy:                                               9.054075 eV

  Osc. strength:                                                      0.000007
  Trans. dip. moment [a.u.]:           [  -0.003875,    0.001878,   -0.003672]
  <i|r^2|0> [a.u.]:                    [   0.052343,    0.075795,   -0.150381]
  Two-photon absorption cross-section (SoS) [a.u.]:                   4.886610
  Two-photon absorption matrix (SoS) [a.u.]:
                                       |    0.070666    0.059488   -0.538108 |
                                       |    0.059488    0.047470   -0.554241 |
                                       |   -0.538108   -0.554241   -0.117647 |
  Two-photon absorption cross-section [a.u.]:                         0.096775
  Two-photon absorption matrix [a.u.]:
                                       |    0.042778   -0.004934    0.059564 |
                                       |   -0.004934   -0.058049    0.076263 |
                                       |    0.059564    0.076263    0.014749 |

  Dip. moment [a.u.]:                  [  -0.002651,    0.010850,   -0.004658]
  Total dipole [Debye]:                                               0.030759
  <r^2> [a.u.]:                        [ 174.532424,   33.967395,   13.172989]
  Total <r^2> [a.u.]:                                               221.672808

  V1^2 = 0.9542, V2^2 = 0.0458

  Important amplitudes:
      occ i     occ j     vir a      vir b          v   
    -----------------------------------------------------
     7 (A) A              9 (A) A                -0.6692
     8 (A) A             11 (A) A                -0.1481
     7 (A) A             20 (A) A                -0.0759
     5 (A) A   8 (A) B    9 (A) A    9 (A) B      0.0316
     8 (A) A             16 (A) A                 0.0273
     8 (A) A             21 (A) A                -0.0175
     5 (A) A             28 (A) A                -0.0151
     4 (A) A   7 (A) B    9 (A) A   19 (A) B      0.0135
     5 (A) A   7 (A) B    9 (A) A   16 (A) B     -0.0134
     7 (A) A   8 (A) B   20 (A) A   17 (A) B      0.0105
     7 (A) A   8 (A) A    9 (A) A   28 (A) A      0.0098
     5 (A) A   8 (A) B    9 (A) A   20 (A) B      0.0096
     4 (A) A   6 (A) B    9 (A) A   16 (A) B     -0.0091
     5 (A) A   6 (A) A    9 (A) A   23 (A) A      0.0091
     5 (A) A   6 (A) A    9 (A) A   14 (A) A      0.0089
     5 (A) A   6 (A) B    9 (A) A   19 (A) B      0.0087
     8 (A) A   7 (A) B    9 (A) A   28 (A) B     -0.0085
     4 (A) A   5 (A) A    9 (A) A   10 (A) A     -0.0085
     6 (A) A   7 (A) B    9 (A) A   18 (A) B      0.0083
     5 (A) A   6 (A) B    9 (A) A   23 (A) B      0.0080
     3 (A) A   7 (A) B    9 (A) A   18 (A) B     -0.0080
     5 (A) A   7 (A) A    9 (A) A   16 (A) A     -0.0079
     4 (A) A   8 (A) B    9 (A) A   25 (A) B     -0.0077
     7 (A) A   8 (A) B   17 (A) A   20 (A) B      0.0074
     4 (A) A   7 (A) B   19 (A) A    9 (A) B      0.0074
     5 (A) A   5 (A) B    9 (A) A   13 (A) B      0.0072
     7 (A) A   8 (A) B   19 (A) A   18 (A) B     -0.0072
     8 (A) A             10 (A) A                 0.0071
     5 (A) A   8 (A) A    9 (A) A   20 (A) A      0.0069
     4 (A) A   5 (A) B    9 (A) A   18 (A) B      0.0068
     7 (A) A   7 (A) B   20 (A) A   22 (A) B      0.0065
     7 (A) A   8 (A) B   17 (A) A    9 (A) B      0.0065
     5 (A) A   6 (A) B    9 (A) A   14 (A) B      0.0063
     4 (A) A   7 (A) A    9 (A) A   19 (A) A      0.0061
     4 (A) A   5 (A) B   10 (A) A    9 (A) B      0.0061
     5 (A) A   7 (A) B   11 (A) A   20 (A) B      0.0060
     5 (A) A             38 (A) A                 0.0060
     4 (A) A   7 (A) B    9 (A) A   14 (A) B     -0.0060
     4 (A) A   8 (A) A    9 (A) A   25 (A) A     -0.0057
     6 (A) A   7 (A) A   19 (A) A   28 (A) A     -0.0057
    -----------------------------------------------------

  Density matrix analysis:
  ------------------------
  NOs
    Occupation of frontier NOs:
       0.9580   1.0537
    Number of electrons: 16.000000
    Number of unpaired electrons: n_u =  2.35532, n_u,nl =  2.06275
    NO participation ratio (PR_NO):  3.027279
  
  
  Mulliken Population Analysis
  Atom      Charge (e)              h+              e-           Del q
  --------------------------------------------------------------------
   1 H        0.148889        0.121150       -0.023165        0.097985
   2 C       -0.301941        0.270900       -0.472057       -0.201157
   3 H        0.152243        0.127511       -0.025868        0.101643
   4 C       -0.302506        0.273107       -0.474207       -0.201100
   5 H        0.154942        0.128115       -0.023287        0.104828
   6 H        0.148374        0.123235       -0.025434        0.097801
  --------------------------------------------------------------------
  Sum:        0.000000        1.044018       -1.044018       -0.000000
  
  Multipole moment analysis of the density matrix
    Molecular charge:                      0.000000
    Number of electrons:                   16.000000
      Center of electronic charge [Ang]: [ -1.560489,  -0.065961,   0.004007]
    Total nuclear charge:                  16.000000
      Center of nuclear charge [Ang]:    [ -1.560576,  -0.065602,   0.003853]
    Dipole moment [D]:                     0.030759
      Cartesian components [D]:          [ -0.006738,   0.027578,  -0.011839]
    RMS size of the density [Ang]:         1.200074
      Cartesian components [Ang]:        [  0.787086,   0.768205,   0.480140]
  
  Exciton analysis of the difference density matrix
    <r_h> [Ang]:                  [ -1.565298,  -0.063377,   0.003493]
    <r_e> [Ang]:                  [ -1.564230,  -0.068471,   0.004715]
    |<r_e - r_h>| [Ang]:            0.005347
    Hole size [Ang]:                1.486310
      Cartesian components [Ang]: [  0.998340,   1.002980,   0.454382]
    Electron size [Ang]:            1.477042
      Cartesian components [Ang]: [  0.881102,   0.859538,   0.816399]

  Transition density matrix analysis:
  -----------------------------------
  
  CT numbers (Mulliken)
    omega =     0.9218
    <Phe> =    -0.0121
  
  Exciton analysis of the transition density matrix
    Trans. dipole moment [D]:             0.007192
      Cartesian components [D]:         [ -0.004924,   0.002387,  -0.004667]
    <r_h> [Ang]:                        [ -1.565932,  -0.062776,   0.003170]
    <r_e> [Ang]:                        [ -1.563890,  -0.069127,   0.005040]
    |<r_e - r_h>| [Ang]:                  0.006928
    Hole size [Ang]:                      1.514968
      Cartesian components [Ang]:       [  1.020864,   1.027541,   0.443987]
    Electron size [Ang]:                  1.474111
      Cartesian components [Ang]:       [  0.871716,   0.848842,   0.832214]
    RMS electron-hole separation [Ang]:   2.093984
      Cartesian components [Ang]:       [  1.326539,   1.317861,   0.942499]
    Covariance(r_h, r_e) [Ang^2]:         0.041704
    Correlation coefficient:              0.018675
    Center-of-mass size [Ang]:            1.066717
      Cartesian components [Ang]:       [  0.679044,   0.673801,   0.471992]

  Decomposition into state-averaged NTOs
    H- 1 -> L+ 0:  0.6616 ( 87.5%)
    H- 0 -> L+ 2:  0.1480 (  4.4%)
                   omega =  92.2%
  ----------------------------------------------------------------------------


  Excited state 3 (singlet, A)                                     [converged]
  ----------------------------------------------------------------------------
  Term symbol:  4 (1) A                                     R^2 =  8.16905e-14

  Total energy:                                            -77.9826012474 a.u.
  Excitation energy:                                               9.170909 eV

  Osc. strength:                                                      0.025225
  Trans. dip. moment [a.u.]:           [   0.008121,    0.027180,   -0.333860]
  <i|r^2|0> [a.u.]:                    [   0.050469,    0.006206,    0.005349]
  Two-photon absorption cross-section (SoS) [a.u.]:                   0.006120
  Two-photon absorption matrix (SoS) [a.u.]:
                                       |    0.008807    0.001344   -0.011536 |
                                       |    0.001344   -0.012724   -0.007291 |
                                       |   -0.011536   -0.007291   -0.023316 |
  Two-photon absorption cross-section [a.u.]:                         0.006833
  Two-photon absorption matrix [a.u.]:
                                       |   -0.001337    0.004339   -0.015868 |
                                       |    0.004339   -0.016789   -0.006306 |
                                       |   -0.015868   -0.006306   -0.015470 |

  Dip. moment [a.u.]:                  [   0.004829,    0.015035,    0.004200]
  Total dipole [Debye]:                                               0.041532
  <r^2> [a.u.]:                        [ 180.888345,   40.611335,   11.028168]
  Total <r^2> [a.u.]:                                               232.527848

  V1^2 = 0.9587, V2^2 = 0.0413

  Important amplitudes:
      occ i     occ j     vir a      vir b          v   
    -----------------------------------------------------
     8 (A) A             10 (A) A                 0.6890
     8 (A) A             24 (A) A                 0.0507
     8 (A) A             18 (A) A                -0.0312
     4 (A) A              9 (A) A                -0.0238
     8 (A) A   8 (A) B    9 (A) A   12 (A) B      0.0219
     8 (A) A   8 (A) B   10 (A) A   17 (A) B      0.0173
     8 (A) A             15 (A) A                 0.0169
     5 (A) A   8 (A) B   11 (A) A   10 (A) B      0.0165
     7 (A) A   8 (A) B   13 (A) A   10 (A) B     -0.0141
     4 (A) A   8 (A) B   12 (A) A   10 (A) B     -0.0111
     6 (A) A   8 (A) A   10 (A) A   15 (A) A     -0.0110
     7 (A) A   8 (A) B   22 (A) A   10 (A) B      0.0108
     6 (A) A   8 (A) B   15 (A) A   10 (A) B      0.0108
     4 (A) A   8 (A) A   10 (A) A   12 (A) A      0.0106
     7 (A) A   8 (A) A   10 (A) A   22 (A) A     -0.0099
     7 (A) A   8 (A) A   10 (A) A   13 (A) A      0.0097
     5 (A) A   8 (A) B   21 (A) A   10 (A) B      0.0094
     5 (A) A   8 (A) A   10 (A) A   11 (A) A     -0.0094
     6 (A) A   8 (A) A   10 (A) A   18 (A) A     -0.0088
     6 (A) A   8 (A) B   10 (A) A   10 (A) B     -0.0087
     7 (A) A   8 (A) A   12 (A) A   16 (A) A      0.0082
     5 (A) A   8 (A) A   10 (A) A   21 (A) A     -0.0080
     3 (A) A   4 (A) B   10 (A) A    9 (A) B      0.0079
     4 (A) A   8 (A) B   19 (A) A   10 (A) B      0.0075
     8 (A) A   8 (A) B    9 (A) A   23 (A) B      0.0075
     8 (A) A   8 (A) B   10 (A) A   28 (A) B      0.0073
     7 (A) A              9 (A) A                 0.0073
     3 (A) A   8 (A) B   10 (A) A   10 (A) B      0.0072
     5 (A) A   8 (A) B   10 (A) A   11 (A) B      0.0071
     3 (A) A   8 (A) A   10 (A) A   24 (A) A     -0.0071
     7 (A) A   8 (A) B   16 (A) A   12 (A) B     -0.0070
     3 (A) A   8 (A) B   10 (A) A   18 (A) B     -0.0069
     8 (A) A   8 (A) B    9 (A) A   19 (A) B     -0.0068
     6 (A) A   8 (A) B   18 (A) A   10 (A) B      0.0067
     3 (A) A   6 (A) B   10 (A) A   28 (A) B      0.0062
     7 (A) A   8 (A) B   12 (A) A   11 (A) B      0.0058
     6 (A) A             28 (A) A                -0.0057
     3 (A) A   5 (A) B   10 (A) A   25 (A) B     -0.0056
     5 (A) A   8 (A) A   10 (A) A   16 (A) A      0.0056
     3 (A) A   8 (A) A   10 (A) A   18 (A) A     -0.0056
    -----------------------------------------------------

  Density matrix analysis:
  ------------------------
  NOs
    Occupation of frontier NOs:
       0.9815   0.9849
    Number of electrons: 16.000000
    Number of unpaired electrons: n_u =  2.28543, n_u,nl =  2.02444
    NO participation ratio (PR_NO):  2.692297
  
  
  Mulliken Population Analysis
  Atom      Charge (e)              h+              e-           Del q
  --------------------------------------------------------------------
   1 H       -0.162053        0.053923       -0.266880       -0.212957
   2 C        0.327606        0.538774       -0.110383        0.428391
   3 H       -0.166495        0.053722       -0.270817       -0.217095
   4 C        0.326735        0.537527       -0.109386        0.428141
   5 H       -0.162022        0.054015       -0.266151       -0.212136
   6 H       -0.163771        0.053839       -0.268182       -0.214344
  --------------------------------------------------------------------
  Sum:        0.000000        1.291800       -1.291800        0.000000
  
  Multipole moment analysis of the density matrix
    Molecular charge:                      0.000000
    Number of electrons:                   16.000000
      Center of electronic charge [Ang]: [ -1.560736,  -0.066100,   0.003714]
    Total nuclear charge:                  16.000000
      Center of nuclear charge [Ang]:    [ -1.560576,  -0.065602,   0.003853]
    Dipole moment [D]:                     0.041532
      Cartesian components [D]:          [  0.012273,   0.038214,   0.010676]
    RMS size of the density [Ang]:         1.276469
      Cartesian components [Ang]:        [  0.854384,   0.840477,   0.439316]
  
  Exciton analysis of the difference density matrix
    <r_h> [Ang]:                  [ -1.560131,  -0.066094,   0.004550]
    <r_e> [Ang]:                  [ -1.562332,  -0.071925,   0.001909]
    |<r_e - r_h>| [Ang]:            0.006769
    Hole size [Ang]:                1.410256
      Cartesian components [Ang]: [  0.833961,   0.819870,   0.788127]
    Electron size [Ang]:            2.076031
      Cartesian components [Ang]: [  1.373185,   1.377040,   0.726657]

  Transition density matrix analysis:
  -----------------------------------
  
  CT numbers (Mulliken)
    omega =     0.9259
    <Phe> =    -0.0109
  
  Exciton analysis of the transition density matrix
    Trans. dipole moment [D]:             0.425823
      Cartesian components [D]:         [  0.010320,   0.034542,  -0.424294]
    <r_h> [Ang]:                        [ -1.559681,  -0.065643,   0.005219]
    <r_e> [Ang]:                        [ -1.562816,  -0.074074,   0.001178]
    |<r_e - r_h>| [Ang]:                  0.009861
    Hole size [Ang]:                      1.212959
      Cartesian components [Ang]:       [  0.636431,   0.623641,   0.822980]
    Electron size [Ang]:                  2.296358
      Cartesian components [Ang]:       [  1.517735,   1.524575,   0.803374]
    RMS electron-hole separation [Ang]:   2.587136
      Cartesian components [Ang]:       [  1.638285,   1.640231,   1.148451]
    Covariance(r_h, r_e) [Ang^2]:         0.025675
    Correlation coefficient:              0.009218
    Center-of-mass size [Ang]:            1.303445
      Cartesian components [Ang]:       [  0.826614,   0.827078,   0.575866]

  Decomposition into state-averaged NTOs
    H- 0 -> L+ 1:  0.6797 ( 92.4%)
                   omega =  92.6%
  ----------------------------------------------------------------------------


  Excited state 4 (singlet, A)                                     [converged]
  ----------------------------------------------------------------------------
  Term symbol:  5 (1) A                                     R^2 =  4.41592e-14

  Total energy:                                            -77.9582560683 a.u.
  Excitation energy:                                               9.833375 eV

  Osc. strength:                                                      0.000002
  Trans. dip. moment [a.u.]:           [   0.001302,   -0.001160,    0.002175]
  <i|r^2|0> [a.u.]:                    [   0.027305,    0.016506,   -0.036347]
  Two-photon absorption cross-section (SoS) [a.u.]:                 149.634511
  Two-photon absorption matrix (SoS) [a.u.]:
                                       |    0.356049    0.327056   -3.009507 |
                                       |    0.327056    0.296129   -3.036740 |
                                       |   -3.009507   -3.036740   -0.649913 |
  Two-photon absorption cross-section [a.u.]:                        91.933145
  Two-photon absorption matrix [a.u.]:
                                       |    0.315166    0.258379   -2.350205 |
                                       |    0.258379    0.197457   -2.387975 |
                                       |   -2.350205   -2.387975   -0.509575 |

  Dip. moment [a.u.]:                  [  -0.018760,   -0.013239,    0.001665]
  Total dipole [Debye]:                                               0.058514
  <r^2> [a.u.]:                        [ 181.187429,   40.533613,   10.764881]
  Total <r^2> [a.u.]:                                               232.485922

  V1^2 = 0.9635, V2^2 = 0.0365

  Important amplitudes:
      occ i     occ j     vir a      vir b          v   
    -----------------------------------------------------
     8 (A) A             11 (A) A                -0.6697
     7 (A) A              9 (A) A                 0.1501
     8 (A) A             21 (A) A                -0.0781
     8 (A) A             16 (A) A                 0.0646
     8 (A) A   8 (A) B    9 (A) A   13 (A) B      0.0167
     5 (A) A   8 (A) B   11 (A) A   11 (A) B     -0.0155
     8 (A) A   8 (A) B   11 (A) A   17 (A) B     -0.0140
     7 (A) A             20 (A) A                 0.0137
     7 (A) A   8 (A) B   13 (A) A   11 (A) B      0.0127
     8 (A) A             12 (A) A                -0.0115
     5 (A) A   8 (A) A   11 (A) A   21 (A) A      0.0110
     4 (A) A   8 (A) B   12 (A) A   11 (A) B      0.0110
     8 (A) A   8 (A) B    9 (A) A   22 (A) B     -0.0107
     7 (A) A   8 (A) A   11 (A) A   22 (A) A      0.0096
     6 (A) A   8 (A) B   15 (A) A   11 (A) B     -0.0090
     6 (A) A   8 (A) B   10 (A) A   11 (A) B      0.0090
     7 (A) A   8 (A) B   22 (A) A   11 (A) B     -0.0089
     3 (A) A   4 (A) B   11 (A) A    9 (A) B     -0.0083
     3 (A) A   8 (A) B   11 (A) A   18 (A) B      0.0081
     6 (A) A   8 (A) A   11 (A) A   15 (A) A      0.0080
     6 (A) A              9 (A) A                -0.0079
     7 (A) A   8 (A) A   13 (A) A   16 (A) A      0.0078
     7 (A) A   8 (A) A   11 (A) A   13 (A) A     -0.0077
     5 (A) A   8 (A) B   21 (A) A   11 (A) B     -0.0071
     4 (A) A   8 (A) B   19 (A) A   11 (A) B     -0.0070
     5 (A) A   8 (A) B    9 (A) A    9 (A) B     -0.0068
     4 (A) A   8 (A) A   11 (A) A   12 (A) A     -0.0062
     6 (A) A   8 (A) A   11 (A) A   18 (A) A      0.0062
     3 (A) A   6 (A) B   11 (A) A   28 (A) B     -0.0060
     6 (A) A   8 (A) B   18 (A) A   11 (A) B     -0.0060
     7 (A) A   8 (A) B   16 (A) A   13 (A) B     -0.0057
     3 (A) A   8 (A) A   11 (A) A   18 (A) A      0.0056
     5 (A) A   8 (A) B   10 (A) A   10 (A) B     -0.0056
     3 (A) A   8 (A) B   11 (A) A   30 (A) B      0.0055
     3 (A) A   5 (A) B   11 (A) A   25 (A) B      0.0054
     6 (A) A   8 (A) B   11 (A) A   10 (A) B      0.0054
     7 (A) A   8 (A) B   12 (A) A   10 (A) B     -0.0054
     8 (A) A   8 (A) B   20 (A) A   22 (A) B     -0.0053
     3 (A) A   8 (A) A   11 (A) A   24 (A) A      0.0053
     5 (A) A   8 (A) A   11 (A) A   16 (A) A     -0.0048
    -----------------------------------------------------

  Density matrix analysis:
  ------------------------
  NOs
    Occupation of frontier NOs:
       0.9408   1.0277
    Number of electrons: 16.000000
    Number of unpaired electrons: n_u =  2.31914, n_u,nl =  2.04905
    NO participation ratio (PR_NO):  2.914021
  
  
  Mulliken Population Analysis
  Atom      Charge (e)              h+              e-           Del q
  --------------------------------------------------------------------
   1 H       -0.147780        0.045741       -0.244425       -0.198684
   2 C        0.274968        0.497205       -0.121453        0.375752
   3 H       -0.127474        0.046955       -0.225029       -0.178074
   4 C        0.273245        0.496847       -0.122196        0.374651
   5 H       -0.132276        0.047096       -0.229486       -0.182390
   6 H       -0.140682        0.045786       -0.237040       -0.191254
  --------------------------------------------------------------------
  Sum:        0.000000        1.179629       -1.179629       -0.000000
  
  Multipole moment analysis of the density matrix
    Molecular charge:                      0.000000
    Number of electrons:                   16.000000
      Center of electronic charge [Ang]: [ -1.559956,  -0.065164,   0.003798]
    Total nuclear charge:                  16.000000
      Center of nuclear charge [Ang]:    [ -1.560576,  -0.065602,   0.003853]
    Dipole moment [D]:                     0.058514
      Cartesian components [D]:          [ -0.047684,  -0.033649,   0.004232]
    RMS size of the density [Ang]:         1.277183
      Cartesian components [Ang]:        [  0.858860,   0.839740,   0.434039]
  
  Exciton analysis of the difference density matrix
    <r_h> [Ang]:                  [ -1.559942,  -0.065312,   0.004709]
    <r_e> [Ang]:                  [ -1.551770,  -0.059015,   0.002954]
    |<r_e - r_h>| [Ang]:            0.010465
    Hole size [Ang]:                1.394807
      Cartesian components [Ang]: [  0.818102,   0.806993,   0.790543]
    Electron size [Ang]:            2.124133
      Cartesian components [Ang]: [  1.441027,   1.405311,   0.678590]

  Transition density matrix analysis:
  -----------------------------------
  
  CT numbers (Mulliken)
    omega =     0.9298
    <Phe> =    -0.0135
  
  Exciton analysis of the transition density matrix
    Trans. dipole moment [D]:             0.003542
      Cartesian components [D]:         [  0.001654,  -0.001474,   0.002764]
    <r_h> [Ang]:                        [ -1.560467,  -0.065722,   0.005087]
    <r_e> [Ang]:                        [ -1.550238,  -0.057642,   0.002751]
    |<r_e - r_h>| [Ang]:                  0.013243
    Hole size [Ang]:                      1.227911
      Cartesian components [Ang]:       [  0.657637,   0.650415,   0.807613]
    Electron size [Ang]:                  2.262249
      Cartesian components [Ang]:       [  1.535310,   1.496963,   0.720899]
    RMS electron-hole separation [Ang]:   2.563360
      Cartesian components [Ang]:       [  1.661707,   1.624386,   1.082089]
    Covariance(r_h, r_e) [Ang^2]:         0.027448
    Correlation coefficient:              0.009881
    Center-of-mass size [Ang]:            1.292327
      Cartesian components [Ang]:       [  0.839369,   0.819956,   0.541515]

  Decomposition into state-averaged NTOs
    H- 0 -> L+ 2:  0.6650 ( 88.5%)
    H- 1 -> L+ 0: -0.1481 (  4.4%)
                   omega =  93.0%
  ----------------------------------------------------------------------------


  Excited state 5 (singlet, A)                                     [converged]
  ----------------------------------------------------------------------------
  Term symbol:  6 (1) A                                     R^2 =  1.18505e-13

  Total energy:                                            -77.9443326666 a.u.
  Excitation energy:                                              10.212250 eV

  Osc. strength:                                                      0.000000
  Trans. dip. moment [a.u.]:           [   0.000049,    0.000180,    0.000283]
  <i|r^2|0> [a.u.]:                    [   0.091191,   -0.100754,    0.013448]
  Two-photon absorption cross-section (SoS) [a.u.]:                 178.434277
  Two-photon absorption matrix (SoS) [a.u.]:
                                       |    0.374377    0.009574   -3.351887 |
                                       |    0.009574   -0.337657    3.307195 |
                                       |   -3.351887    3.307195    0.062573 |
  Two-photon absorption cross-section [a.u.]:                        79.968828
  Two-photon absorption matrix [a.u.]:
                                       |    0.280812    0.024755   -2.226273 |
                                       |    0.024755   -0.194042    2.230780 |
                                       |   -2.226273    2.230780    0.037506 |

  Dip. moment [a.u.]:                  [   0.008124,   -0.009900,   -0.001374]
  Total dipole [Debye]:                                               0.032737
  <r^2> [a.u.]:                        [ 178.429258,   38.326699,   11.928111]
  Total <r^2> [a.u.]:                                               228.684069

  V1^2 = 0.9573, V2^2 = 0.0427

[...]
    16   -1.279824418647e-03
    17   -1.946515124258e-03
    18   -1.574118517924e-04
    19   -3.322779630930e-03
    20    1.085948580561e-02
    21    9.355200861789e-01
    22   -2.641085453987e-04
    23    1.397796108922e-02
    24    9.211908733984e-04
    25    7.025008744726e-02
    26   -5.225487227938e-02
    27   -1.398965251239e+00
    28    9.806795704275e-02
    29   -9.250888375750e-02
    30   -2.245906903206e-03
    31    3.855714514534e-01
    32   -3.618477636115e-01
    33   -8.900404360955e-03
    34    1.562957112458e-02
    35   -1.368971594396e-03
    36   -1.883984383973e-03
    37   -5.684163900794e-05
    38   -3.133964614974e-03
    39    9.802718715530e-03
    40    9.310967309149e-01
    41    2.468797776835e-04
    42   -1.391423536582e-02
    43   -8.755707561203e-04
    44    1.014083240924e-02
    45    9.407129688023e-01
    46    1.413571617599e-02
    47    3.789282233112e-04
    48    6.374893268715e-04
Sym=X
Ene= 0.232963
Spin=Alpha
Occup=0
     1    2.612199125354e-02
     2    1.234897294054e+00
     3   -1.433580069242e-02
     4   -3.834468931377e-03
     5   -8.582996165059e-04
     6    3.079850169822e-03
     7   -3.509863478831e-03
     8   -4.917611584747e-02
     9   -1.548686703947e-01
    10   -1.585948527705e-01
    11   -1.658748815835e-02
    12   -5.571157443488e-01
    13   -5.575887404442e-01
    14   -5.886442401498e-02
    15    5.713083228926e-04
    16    1.342131785122e-04
    17    1.400837282739e-04
    18   -2.071065782267e-04
    19   -3.792816688190e-04
    20   -2.512249538257e-02
    21   -1.159458694379e+00
    22   -2.481879357412e-03
    23   -1.355368802177e-02
    24   -9.506845918600e-04
    25   -2.668341187825e-03
    26    3.180336484324e-03
    27    3.799608343817e-02
    28   -1.538039340282e-01
    29   -1.591650057500e-01
    30   -1.686671857236e-02
    31   -5.477989020833e-01
    32   -5.556892445834e-01
    33   -5.953295614076e-02
    34   -4.698349357430e-04
    35   -5.527346910431e-05
    36   -1.141543197232e-04
    37    3.790633065105e-04
    38    3.389644648684e-04
    39    2.507024847751e-02
    40    1.159691030796e+00
    41   -2.458148287151e-03
    42   -1.365174195601e-02
    43   -9.628841999383e-04
    44   -2.622187959812e-02
    45   -1.221022765031e+00
    46   -1.420649042582e-02
    47   -3.766360217655e-03
    48   -8.739164955588e-04
Sym=X
Ene= 0.239408
Spin=Alpha
Occup=0
     1   -1.599978111969e-02
     2   -1.051940760311e+00
     3    1.654364180694e-02
     4    9.106845696364e-03
     5    1.196873138814e-03
     6   -8.649971744571e-02
     7    7.973206080656e-02
     8    1.592941890360e+00
     9    5.325668710552e-02
    10   -6.054409629858e-02
    11   -2.772739504847e-03
    12    2.115947074338e-01
    13   -2.351575599696e-01
    14   -1.024037281532e-02
    15   -2.254350005243e-02
    16    2.534413264481e-03
    17    3.050303703161e-03
    18   -4.806774707109e-04
    19    1.286684992436e-02
    20   -1.699097566974e-02
    21   -1.123939251298e+00
    22   -8.538285584593e-03
    23   -1.773998502464e-02
    24   -1.583576841553e-03
    25    8.643860269149e-02
    26   -7.930524817533e-02
    27   -1.596250164312e+00
    28    5.343099311693e-02
    29   -6.114571293276e-02
    30   -9.339163787334e-04
    31    2.111899935941e-01
    32   -2.409660792776e-01
    33   -2.791941317835e-03
    34    2.261412216459e-02
    35   -2.706851501611e-03
    36   -2.907463298949e-03
    37    7.317971499058e-04
    38   -1.278834073567e-02
    39    1.683981207444e-02
    40    1.130454917895e+00
    41   -8.622140874479e-03
    42   -1.789772746168e-02
    43   -1.475990642596e-03
    44    1.561388208679e-02
    45    1.049108804390e+00
    46    1.643711065411e-02
    47    9.269883432964e-03
    48    1.332348493963e-03
Sym=X
Ene= 0.303262
Spin=Alpha
Occup=0
     1   -2.084124540505e-02
     2    1.691949011728e+00
     3   -2.291531843176e-02
     4    2.664161392869e-04
     5   -1.059360939585e-03
     6   -2.142375905368e-04
     7    1.936911495300e-04
     8    1.068190284121e-03
     9   -1.339100205637e-01
    10   -1.395745401535e-01
    11   -1.457463692528e-02
    12   -1.144386331950e+00
    13   -1.193516576892e+00
    14   -1.249295547777e-01
    15   -5.768053581670e-05
    16   -1.364924778483e-03
    17    2.145392779256e-03
    18   -3.265019485721e-02
    19   -1.639889884848e-03
    20    1.987031123206e-02
    21   -1.689162602897e+00
    22    1.438597356562e-03
    23   -2.290408683749e-02
    24   -1.295191666367e-03
    25    9.209052400454e-05
    26    2.706472046015e-04
    27   -9.275967289413e-03
    28    1.347207884165e-01
    29    1.402402729676e-01
    30    1.477574652548e-02
    31    1.139722456413e+00
    32    1.197767026675e+00
    33    1.253484415769e-01
    34    5.666100841271e-05
    35   -1.698079994656e-03
    36    1.793873268304e-03
    37   -3.251022440912e-02
    38   -1.697816910822e-03
    39    1.955888110721e-02
    40   -1.691915903244e+00
    41   -1.618719053207e-03
    42    2.283975109279e-02
    43    1.197621255486e-03
    44   -2.015998701842e-02
    45    1.698844996868e+00
    46    2.304586981728e-02
    47   -3.591955830844e-04
    48    1.162560433285e-03
Sym=X
Ene= 0.462050
Spin=Alpha
Occup=0
     1   -1.152168142087e-01
     2   -7.156793998886e-01
     3   -1.565551426432e-02
     4   -1.035689553170e-02
     5   -1.408321242301e-03
     6    6.080751341348e-02
     7    1.737592113045e-02
     8   -3.592372696673e+00
     9    1.030873033343e-01
    10   -9.891766969765e-02
    11   -3.015202874889e-03
    12    2.426781394725e+00
    13   -2.302691558821e+00
    14   -1.303256887505e-02
    15    5.365514558593e-02
    16   -3.490557971328e-03
    17   -4.524549846923e-03
    18   -7.245440452460e-04
    19    1.801767671140e-02
    20   -1.214653841471e-01
    21   -7.010010071785e-01
    22    8.685490854539e-03
    23    1.639576417115e-02
    24    1.318878689753e-03
    25   -6.094667764636e-02
    26   -1.627149150131e-02
    27    3.591721934065e+00
    28    1.051906502589e-01
    29   -1.003721534767e-01
    30   -1.860397059405e-03
    31    2.422763180407e+00
    32   -2.298816199805e+00
    33   -7.865183925569e-03
    34   -5.271332897147e-02
    35    3.271369815769e-03
    36    4.522201658539e-03
    37    6.379153607429e-04
    38   -1.903949049477e-02
    39    1.154199384281e-01
    40    7.089208749299e-01
    41    8.553579593406e-03
    42    1.626712301007e-02
    43    1.364789122336e-03
    44    1.106010400637e-01
    45    7.184122286117e-01
    46   -1.544276059560e-02
    47   -9.968954622384e-03
    48   -1.342034729903e-03
Sym=X
Ene= 0.577500
Spin=Alpha
Occup=0
     1    2.467930301599e-01
     2    4.177148439448e-02
     3   -1.846935615590e-02
     4    2.566643348925e-02
     5    7.360973722658e-04
     6   -4.459225929540e-03
     7   -1.572201692469e-01
     8   -4.659822415139e-01
     9    2.986477224160e-01
    10   -2.880929534617e-01
    11   -1.533636851998e-03
    12   -7.199698622144e-01
    13    6.961770043259e-01
    14    8.533368357053e-03
    15   -5.873862319519e-03
    16    3.840717581648e-03
    17    3.781073976243e-03
    18   -4.475162006252e-03
    19    6.022211949028e-02
    20    2.554679956431e-01
    21    2.843345166813e-02
    22   -2.646368538086e-02
    23    1.646686979829e-02
    24   -1.922983095157e-04
    25   -5.635460949100e-03
    26   -1.579130443309e-01
    27   -4.096753828021e-01
    28   -2.972613085255e-01
    29    2.853719990396e-01
    30    1.511664059233e-03
    31    7.624189745565e-01
    32   -7.332541676870e-01
    33   -7.316087725699e-03
    34   -5.857745019965e-03
    35    3.866399103054e-03
    36    3.737498527746e-03
    37   -3.910333061754e-03
    38    6.017498857751e-02
    39    2.509752313760e-01
    40    4.955801842758e-02
    41    2.722439961850e-02
    42   -1.698502629584e-02
    43    3.052030846105e-04
    44    2.488031279519e-01
    45    5.651050242408e-02
    46    1.845963916698e-02
    47   -2.586654574118e-02
    48   -6.432147962266e-04
Sym=X
Ene= 0.615149
Spin=Alpha
Occup=0
     1   -5.223857252648e-01
     2    1.991823760934e-01
     3   -6.138219905975e-02
     4    3.757056667885e-02
     5   -5.100899344334e-04
     6   -6.239150946650e-04
     7   -7.757011391617e-05
     8   -1.774369137774e-02
     9   -4.052604512137e-02
    10   -3.839923584163e-02
    11   -4.303920280055e-03
    12    3.068422806495e-01
    13    2.772495593365e-01
    14    3.080330717424e-02
    15    2.063872206170e-03
    16   -6.815265462296e-03
    17    9.044395641654e-03
    18   -1.479856548145e-01
    19   -6.431231954017e-03
    20    5.080663482298e-01
    21   -2.060659807775e-01
    22    4.182577209230e-02
    23   -5.842903677524e-02
    24   -1.679916903904e-03
    25    4.466471522679e-04
    26   -1.047785266415e-03
    27    2.668910984883e-02
    28   -4.008800531860e-02
    29   -4.017324102362e-02
    30   -4.296061184558e-03
    31    3.053954841259e-01
    32    2.881643205909e-01
    33    3.201850817628e-02
    34   -1.549818369707e-03
    35    7.679610361492e-03
    36   -8.289221614501e-03
    37    1.491324332912e-01
    38    6.289850763866e-03
    39   -5.143774571632e-01
    40    2.075457695036e-01
    41    4.095807170923e-02
    42   -5.854872177630e-02
    43   -1.424825978102e-03
    44    5.223284423614e-01
    45   -2.038067600754e-01
    46   -6.151332608928e-02
    47    3.756955362308e-02
    48   -7.792128947236e-04
Sym=X
Ene= 0.689149
Spin=Alpha
Occup=0
     1    9.962470629295e-04
     2    4.916799562901e-03
     3    2.833955569428e-04
     4    1.376550932029e-03
     5   -2.108909731974e-02
     6    5.485255955078e-05
     7   -2.938305533394e-03
     8    4.859655233189e-03
     9    3.229647518791e-02
    10    3.911968939499e-02
    11   -6.703400487972e-01
    12   -3.682250099218e-02
    13   -2.881350645909e-02
    14    6.136286206809e-01
    15   -2.647927972733e-05
    16    8.262420622362e-02
    17   -7.839757092052e-02
    18   -8.646366433977e-03
    19   -4.694982322920e-04
    20    1.005395261539e-03
    21    4.678370019093e-03
    22    7.903715036114e-04
    23    1.923222367774e-03
    24   -2.082883965314e-02
    25   -1.935164211253e-04
    26   -4.861772305892e-04
    27   -2.914092638980e-03
    28    3.199177336872e-02
    29    3.982509911043e-02
    30   -6.701137143790e-01
    31   -3.665127762741e-02
    32   -2.959180138615e-02
    33    6.132851309642e-01
    34    1.079793392985e-03
    35   -8.283159031784e-02
    36    7.838263671303e-02
    37    8.586215537357e-03
    38    7.000856269377e-05
    39   -3.153795769123e-03
    40   -2.895510912090e-03
    41    6.506579688055e-04
    42    1.084967824796e-03
    43   -2.109805102323e-02
    44   -3.270927934789e-03
    45   -2.681816715614e-03
    46    1.178224027420e-03
    47    1.639820114149e-03
    48   -2.101575532579e-02
Sym=X
Ene= 0.708913
Spin=Alpha
Occup=0
     1   -4.755726938956e-01
     2    1.576421834329e-01
     3   -8.074690436745e-02
     4   -4.422481654213e-02
     5   -6.674936522022e-03
     6   -4.780968770554e-02
     7   -3.199065823281e-01
     8    5.092860206006e-01
     9    2.033555597829e-01
    10   -1.926279804429e-01
    11    6.219125166470e-04
    12   -9.696784488217e-02
    13    8.202400616483e-02
    14   -7.638621866394e-03
    15    1.940613720086e-01
    16   -2.077132845200e-02
    17   -2.363766374812e-02
    18    3.131031042593e-03
    19   -7.744986456050e-02
    20   -4.785201749159e-01
    21    1.508511991344e-01
    22    4.101443175902e-02
    23    8.167795657344e-02
    24    6.551245000775e-03
    25   -4.671833101344e-02
    26   -3.210803798575e-01
    27    4.631647689574e-01
    28   -2.044133598518e-01
    29    1.915734111782e-01
    30    3.011023881220e-03
    31    6.545201950676e-02
    32   -5.123543050955e-02
    33    3.210888609767e-03
    34    1.936319267086e-01
    35   -2.089071737607e-02
    36   -2.340508250823e-02
    37    2.469927617670e-03
    38   -7.557050582709e-02
    39   -4.725720424609e-01
    40    1.349150314506e-01
    41   -4.066521825107e-02
    42   -8.099514616806e-02
    43   -6.362167798178e-03
    44   -4.741535460359e-01
    45    1.465726299543e-01
    46    8.051253478055e-02
    47    4.399816187741e-02
    48    6.847365689916e-03
Sym=X
Ene= 0.784554
Spin=Alpha
Occup=0
     1    5.260054907168e-01
     2   -4.674850818554e-01
     3    1.101268478963e-01
     4    2.598454646344e-02
     5    6.758059984499e-03
     6    9.095858846643e-02
     7   -2.158899915304e-01
     8   -6.419960404247e-01
     9    1.112035250319e-01
    10   -1.052567581490e-01
    11   -3.181457775109e-03
    12    3.160494217142e-01
    13   -2.947643242680e-01
    14    5.804693562318e-03
    15   -2.062799023141e-01
    16    1.675408942803e-02
    17    2.248128562882e-02
    18   -1.214169231132e-03
    19    9.233490342704e-03
    20    5.366521211182e-01
    21   -4.700268828178e-01
    22   -2.029881560466e-02
    23   -1.124421472439e-01
    24   -7.618156977096e-03
    25   -9.138174412125e-02
    26    2.128882770327e-01
    27    6.566181583146e-01
    28    1.113950765011e-01
    29   -1.057869763929e-01
    30    4.283822194557e-03
    31    3.104721270807e-01
    32   -2.874323739108e-01
    33   -8.669082520530e-03
    34    2.076934653334e-01
    35   -1.803156137394e-02
    36   -2.176099129162e-02
    37    2.031103644881e-03
    38   -8.858524202563e-03
    39   -5.419251230133e-01
    40    4.668346563390e-01
    41   -2.050681680929e-02
    42   -1.129867509476e-01
    43   -7.486531880661e-03
    44   -5.313313200291e-01
    45    4.647066406058e-01
    46    1.099471975990e-01
    47    2.676394969353e-02
    48    7.042929765292e-03
Sym=X
Ene= 0.807969
Spin=Alpha
Occup=0
     1   -2.329697796876e-03
     2    3.049179248619e-03
     3    3.197753649183e-04
     4    2.251097156277e-03
     5   -3.388788422019e-02
     6   -3.541412687822e-04
     7   -1.150801348094e-03
     8    1.895819948043e-03
     9    3.565712477342e-02
    10    4.536297903788e-02
    11   -7.630178419852e-01
    12   -5.579346655743e-02
    13   -6.380040225336e-02
    14    1.127015458828e+00
    15    1.951263534834e-03
    16   -6.534972693833e-02
    17    6.171952068542e-02
    18    6.869925070439e-03
    19    7.229435438571e-04
    20   -2.356193961774e-03
    21    3.823841570952e-03
    22    1.373158601281e-03
    23    3.412239816262e-03
    24   -3.437722890673e-02
    25    5.422247575613e-04
    26   -3.041751641671e-03
    27    3.133496746444e-04
    28   -3.900025346667e-02
    29   -4.302232275044e-02
    30    7.632282836896e-01
    31    5.517235127764e-02
    32    6.572801615637e-02
    33   -1.127028224265e+00
    34   -7.619885787621e-04
    35   -6.513660568967e-02
    36    6.197000353402e-02
    37    6.707587928086e-03
    38    1.343659056148e-04
    39    2.435158657148e-03
    40   -2.537662112709e-03
    41   -1.627875002359e-03
    42   -1.632680633975e-03
    43    3.430143051132e-02
    44    2.320950454439e-03
    45   -1.982936673681e-03
    46   -1.934831216034e-03
    47   -1.981802386257e-03
    48    3.371142209760e-02
Sym=X
Ene= 0.862249
Spin=Alpha
Occup=0
     1    1.389193512317e-02
     2   -1.095976221026e+00
     3    1.485317171854e-01
     4    5.639419561887e-02
     5    9.773609856588e-03
     6    3.117626139801e-04
     7    1.011837966384e-04
     8    1.664748172542e-03
     9   -4.065089315352e-01
    10   -4.294764862953e-01
    11   -4.444261504861e-02
    12    9.473439301107e-01
    13    9.995535018258e-01
    14    1.035503762389e-01
    15   -1.173544832147e-03
    16    1.139671186225e-02
    17   -1.386117834553e-02
    18    2.353168617306e-01
    19    9.342476903249e-03
    20   -1.330361874204e-02
    21    1.103538870082e+00
    22    5.037104882357e-02
    23    1.512825845706e-01
    24    1.195351210248e-02
    25   -1.627336846466e-04
    26    2.511679572082e-03
    27   -3.205746069638e-03
    28   -4.061347127552e-01
    29   -4.298658629175e-01
    30   -4.513830653125e-02
    31    9.459348929913e-01
    32    1.002804841189e+00
    33    1.051613499030e-01
    34    5.124935960644e-04
    35   -1.161156913830e-02
    36    1.378211199959e-02
    37   -2.364069301578e-01
    38   -1.008904296259e-02
    39    1.167701534368e-02
    40   -1.102239628279e+00
    41    4.894862426280e-02
    42    1.515063541810e-01
    43    1.162828797787e-02
    44   -1.164359583562e-02
    45    1.094735109848e+00
    46    1.487731248532e-01
    47    5.567719689949e-02
    48    1.009713204283e-02
Sym=X
Ene= 0.935920
Spin=Alpha
Occup=0
     1   -1.133114714208e-01
     2    1.276661211135e+00
     3   -1.809012232125e-01
     4    5.761381798038e-03
     5   -8.492604469129e-03
     6   -1.567149792049e-04
     7   -4.515559408709e-03
     8   -9.639772658071e-05
     9    4.713247156968e-01
    10    5.007702589282e-01
    11    5.194894250649e-02
    12   -1.461861327130e+00
    13   -1.543973501863e+00
    14   -1.606570223773e-01
    15   -5.131933586379e-04
    16   -5.599045564550e-03
    17    7.209312280273e-03
    18   -1.202847929669e-01
    19   -1.371702851978e-03
    20    1.171786000717e-01
    21   -1.288998175802e+00
    22    1.126000747018e-02
    23   -1.831845039058e-01
    24   -1.004724086296e-02
    25    1.395949717555e-04
    26   -1.834255374852e-03
    27    4.763904946105e-03
    28   -4.757897486105e-01
    29   -4.964404177322e-01
    30   -5.212148004327e-02
    31    1.473326939022e+00
    32    1.529310125137e+00
    33    1.609488229061e-01
    34   -1.069499191614e-03
    35   -6.898228798619e-03
    36    6.103414710208e-03
    37   -1.207009188221e-01
    38   -5.238504585875e-03
    39    1.168716763627e-01
    40   -1.280480289602e+00
    41   -1.351573511006e-02
    42    1.820921393697e-01
    43    9.421832271537e-03
    44   -1.150832171397e-01
    45    1.287754969740e+00
    46    1.818977215504e-01
    47   -5.355410526625e-03
    48    9.120518260333e-03
Sym=X
Ene= 0.972467
Spin=Alpha
Occup=0
     1   -6.457738600358e-02
     2    9.321442750718e-01
     3   -9.178562786530e-02
     4   -9.857260532340e-02
     5   -9.252199678425e-03
     6    2.534465207095e-02
     7    2.538041645270e-01
     8    5.171621442735e-01
     9    4.830306102072e-01
    10   -4.526748034682e-01
    11   -4.917675593610e-03
    12   -1.501768504393e+00
    13    1.400672898982e+00
    14    1.322130993442e-02
    15   -5.389688466096e-02
    16   -1.127070996007e-02
    17   -1.119873880664e-02
    18    1.273056637735e-02
    19   -3.016575616474e-01
    20   -6.243312537415e-02
    21    9.041981470168e-01
    22    9.530832275362e-02
    23    9.224855698859e-02
    24    1.095185271513e-02
    25   -2.515613187487e-02
    26   -2.371125163188e-01
    27   -5.448730389877e-01
    28    4.765068689517e-01
    29   -4.564579497987e-01
    30   -2.643821323757e-03
    31   -1.478514140049e+00
    32    1.421530824437e+00
    33    7.799956448815e-03
    34    5.279525715759e-02
    35    1.128734294979e-02
    36    1.106552322040e-02
    37   -1.428342640479e-02
    38    2.989789432260e-01
    39    6.201390170572e-02
    40   -9.127596608788e-01
    41    9.417132707067e-02
    42    9.325845510665e-02
    43    1.038198595489e-02
    44    6.601901442992e-02
    45   -9.064829001559e-01
    46   -8.838470886746e-02
    47   -9.783681411720e-02
    48   -9.625856224157e-03
[5D]

======= END OF MOLDEN-FORMATTED INPUT FILE =======


        *************************************************************
        *                                                           *
        *  Thank you very much for using Q-Chem.  Have a nice day.  *
        *                                                           *
        *************************************************************


