                  Welcome to Q-Chem
     A Quantum Leap Into The Future Of Chemistry


 Q-Chem 5.4 (devel), Q-Chem, Inc., Pleasanton, CA (2021)

 E. Epifanovsky,  A. T. B. Gilbert,  Xintian Feng,  Joonho Lee,  Yuezhi Mao,  
 N. Mardirossian,  P. Pokhilko,  A. White,  M. Wormit,  M. P. Coons,  
 A. L. Dempwolff,  Zhengting Gan,  D. Hait,  P. R. Horn,  L. D. Jacobson,  
 I. Kaliman,  J. Kussmann,  A. W. Lange,  Ka Un Lao,  D. S. Levine,  Jie Liu,  
 S. C. McKenzie,  A. F. Morrison,  K. Nanda,  F. Plasser,  D. R. Rehn,  
 M. L. Vidal,  Zhi-Qiang You,  Ying Zhu,  B. Alam,  B. Albrecht,  
 A. Aldossary,  E. Alguire,  J. H. Andersen,  D. Barton,  K. Begam,  A. Behn,  
 Y. A. Bernard,  E. J. Berquist,  H. Burton,  A. Carreras,  K. Carter-Fenk,  
 R. Chakraborty,  A. D. Chien,  K. D. Closser,  V. Cofer-Shabica,  
 S. Dasgupta,  Jia Deng,  M. de Wergifosse,  M. Diedenhofen,  Hainam Do,  
 S. Ehlert,  Po-Tung Fang,  S. Fatehi,  Qingguo Feng,  T. Friedhoff,  
 J. Gayvert,  Qinghui Ge,  G. Gidofalvi,  M. Goldey,  J. Gomes,  
 C. Gonzalez-Espinoza,  S. Gulania,  A. Gunina,  M. W. D. Hanson-Heine,  
 P. H. P. Harbach,  A. W. Hauser,  M. F. Herbst,  M. Hernandez Vera,  
 M. Hodecker,  Z. C. Holden,  S. Houck,  Xunkun Huang,  Kerwin Hui,  
 B. C. Huynh,  M. Ivanov,  Hyunjun Ji,  Hanjie Jiang,  B. Kaduk,  S. Kaehler,  
 K. Khistyaev,  Jaehoon Kim,  P. Klunzinger,  Z. Koczor-Benda,  
 Joong Hoon Koh,  D. Kosenkov,  L. Koulias,  T. Kowalczyk,  C. M. Krauter,  
 K. Kue,  A. Kunitsa,  T. Kus,  A. Landau,  K. V. Lawler,  D. Lefrancois,  
 S. Lehtola,  Rain Li,  Yi-Pei Li,  Jiashu Liang,  M. Liebenthal,  
 Hung-Hsuan Lin,  You-Sheng Lin,  Fenglai Liu,  Kuan-Yu Liu,  
 M. Loipersberger,  A. Luenser,  A. Manjanath,  P. Manohar,  E. Mansoor,  
 S. F. Manzer,  Shan-Ping Mao,  A. V. Marenich,  T. Markovich,  S. Mason,  
 S. A. Maurer,  P. F. McLaughlin,  M. F. S. J. Menger,  J.-M. Mewes,  
 S. A. Mewes,  P. Morgante,  J. W. Mullinax,  K. J. Oosterbaan,  G. Paran,  
 Alexander C. Paul,  Suranjan K. Paul,  F. Pavosevic,  Zheng Pei,  S. Prager,  
 E. I. Proynov,  E. Ramos,  B. Rana,  A. E. Rask,  A. Rettig,  R. M. Richard,  
 F. Rob,  E. Rossomme,  T. Scheele,  M. Scheurer,  M. Schneider,  
 N. Sergueev,  S. M. Sharada,  W. Skomorowski,  D. W. Small,  C. J. Stein,  
 Yu-Chuan Su,  E. J. Sundstrom,  Zhen Tao,  J. Thirman,  T. Tsuchimochi,  
 N. M. Tubman,  S. P. Veccham,  O. Vydrov,  J. Wenzel,  J. Witte,  A. Yamada,  
 Kun Yao,  S. Yeganeh,  S. R. Yost,  A. Zech,  Igor Ying Zhang,  Xing Zhang,  
 Yu Zhang,  D. Zuev,  A. Aspuru-Guzik,  A. T. Bell,  N. A. Besley,  
 K. B. Bravaya,  B. R. Brooks,  D. Casanova,  Jeng-Da Chai,  S. Coriani,  
 C. J. Cramer,  A. E. DePrince, III,  R. A. DiStasio Jr.,  A. Dreuw,  
 B. D. Dunietz,  T. R. Furlani,  W. A. Goddard III,  S. Grimme,  
 S. Hammes-Schiffer,  T. Head-Gordon,  W. J. Hehre,  Chao-Ping Hsu,  
 T.-C. Jagau,  Yousung Jung,  A. Klamt,  Jing Kong,  D. S. Lambrecht,  
 WanZhen Liang,  N. J. Mayhall,  C. W. McCurdy,  J. B. Neaton,  
 C. Ochsenfeld,  J. A. Parkhill,  R. Peverati,  V. A. Rassolov,  Yihan Shao,  
 L. V. Slipchenko,  T. Stauch,  R. P. Steele,  J. E. Subotnik,  
 A. J. W. Thom,  A. Tkatchenko,  D. G. Truhlar,  T. Van Voorhis,  
 T. A. Wesolowski,  K. B. Whaley,  H. L. Woodcock III,  P. M. Zimmerman,  
 S. Faraji,  P. M. W. Gill,  M. Head-Gordon,  J. M. Herbert,  A. I. Krylov

 Additional authors for Version 5.4.1: 
 S. Kotaru,  Shaozhi Li,  Xiangyuan Li,  F. Matz,  A. Molle,  Haisheng Ren,  
 Yingli Su,  Hung-Yi Tsai,  C. Utku,  Fang Wang

 Contributors to earlier versions of Q-Chem not listed above: 
 R. D. Adamson,  B. Austin,  R. Baer,  J. Baker,  G. J. O. Beran,  
 K. Brandhorst,  S. T. Brown,  E. F. C. Byrd,  A. K. Chakraborty,  
 G. K. L. Chan,  Chun-Min Chang,  Yunqing Chen,  C.-L. Cheng,  
 Siu Hung Chien,  D. M. Chipman,  D. L. Crittenden,  H. Dachsel,  
 R. J. Doerksen,  A. D. Dutoi,  R. G. Edgar,  J. Fosso-Tande,  
 L. Fusti-Molnar,  D. Ghosh,  A. Ghysels,  A. Golubeva-Zadorozhnaya,  
 J. Gonthier,  M. S. Gordon,  S. R. Gwaltney,  G. Hawkins,  J. E. Herr,  
 A. Heyden,  S. Hirata,  E. G. Hohenstein,  G. Kedziora,  F. J. Keil,  
 C. Kelley,  Jihan Kim,  R. A. King,  R. Z. Khaliullin,  P. P. Korambath,  
 W. Kurlancheek,  A. Laurent,  A. M. Lee,  M. S. Lee,  S. V. Levchenko,  
 Ching Yeh Lin,  D. Liotard,  E. Livshits,  R. C. Lochan,  I. Lotan,  
 L. A. Martinez-Martinez,  P. E. Maslen,  N. Nair,  D. P. O'Neill,  
 D. Neuhauser,  E. Neuscamman,  C. M. Oana,  R. Olivares-Amaya,  R. Olson,  
 T. M. Perrine,  B. Peters,  P. A. Pieniazek,  A. Prociuk,  Y. M. Rhee,  
 J. Ritchie,  M. A. Rohrdanz,  E. Rosta,  N. J. Russ,  H. F. Schaefer III,  
 M. W. Schmidt,  N. E. Schultz,  S. Sharma,  N. Shenvi,  C. D. Sherrill,  
 A. C. Simmonett,  A. Sodt,  T. Stein,  D. Stuck,  K. S. Thanthiriwatte,  
 V. Vanovschi,  L. Vogt,  Tao Wang,  A. Warshel,  M. A. Watson,  
 C. F. Williams,  Q. Wu,  X. Xu,  Jun Yang,  W. Zhang,  Yan Zhao

 Please cite Q-Chem as follows:
 Y. Shao et al., Mol. Phys. 113, 184-215 (2015)
 DOI: 10.1080/00268976.2014.952696

 Q-Chem 5.4.1 for Intel X86 EM64T Linux

 Parts of Q-Chem use Armadillo 9.800.1 (Horizon Scraper).
 http://arma.sourceforge.net/

 Q-Chem begins on Wed Mar 15 16:14:15 2023  

 Host: cpu121.yggdrasil
0

     Scratch files written to /srv/beegfs/scratch/users/f/fum/qchem65279//
 Processing $rem in /home/share/wesolowski/qc5.aug2021.FDE/config/preferences:
 Processing $rem in /home/fum/.qchemrc:

 Checking the input file for inconsistencies... 	...done.

--------------------------------------------------------------
User input:
--------------------------------------------------------------
$comment
generated from CCJob.Templates
$end

$rem
sym_ignore = true
method = adc(2)
ee_states = 10
basis = cc-pVDZ
mem_static = 1024
mem_total = 40000
adc_davidson_maxiter = 900
adc_davidson_conv = 6
adc_print = 3
adc_prop_es = true
adc_prop_es2es = true
adc_prop_tpa = true
molden_format = True
state_analysis = true
print_orbitals = 15
gen_scfman = false
fde_export_density = true
fde_details = 3
$end

$molecule
0 1
H -0.0348278765 -0.2442097827 0.023648960599999998
C -1.0765972949 -0.5242748755 -0.0023551776
H -1.313264467 -1.5767591607 -0.0757276926
C -2.043634118 0.3926884087 0.0061254933
H -1.8137616575 1.4459188338 0.0804456828
H -3.085977293 0.114931858 -0.0593381042                     
$end
--------------------------------------------------------------
 ----------------------------------------------------------------
             Standard Nuclear Orientation (Angstroms)
    I     Atom           X                Y                Z
 ----------------------------------------------------------------
    1      H      -0.0348278765    -0.2442097827     0.0236489606
    2      C      -1.0765972949    -0.5242748755    -0.0023551776
    3      H      -1.3132644670    -1.5767591607    -0.0757276926
    4      C      -2.0436341180     0.3926884087     0.0061254933
    5      H      -1.8137616575     1.4459188338     0.0804456828
    6      H      -3.0859772930     0.1149318580    -0.0593381042
 ----------------------------------------------------------------
 Nuclear Repulsion Energy =          33.42922013 hartrees
 There are        8 alpha and        8 beta electrons
 Requested basis set is cc-pVDZ
 There are 24 shells and 48 basis functions
 Total memory of 40000 MB is distributed as follows: 
   MEM_STATIC is set to 1024 MB
   QALLOC/CCMAN JOB total memory use is  38976 MB
 Warning: actual memory use might exceed 40000 MB

 Total QAlloc Memory Limit  40000 MB
 Mega-Array Size      1001 MB
 MEM_STATIC part      1024 MB

                       Distance Matrix (Angstroms)
             H (  1)   C (  2)   H (  3)   C (  4)   H (  5)
   C (  2)  1.079072
   H (  3)  1.849314  1.081258
   C (  4)  2.107427  1.332687  2.102109
   H (  5)  2.454458  2.105215  3.067812  1.080583
   H (  6)  3.073334  2.109370  2.450428  1.080700  1.846510

 A cutoff of  1.0D-11 yielded    300 shell pairs
 There are      1220 function pairs (      1329 Cartesian)
 Smallest overlap matrix eigenvalue = 4.80E-03

 Scale SEOQF with 1.000000e-01/1.000000e-01/1.000000e+00

 Standard Electronic Orientation quadrupole field applied
 Nucleus-field energy     =     0.0000000022 hartrees
 Guess from superposition of atomic densities
 Warning:  Energy on first SCF cycle will be non-variational
 SAD guess density has 16.000000 electrons
 A restricted Hartree-Fock SCF calculation will be
 performed using Pulay DIIS extrapolation
 SCF converges when DIIS error is below 1.0E-08
 using 10 threads for integral computing
 -------------------------------------------------------
 OpenMP Integral computing Module                
 Release: version 1.0, May 2013, Q-Chem Inc. Pittsburgh 
 -------------------------------------------------------
 ---------------------------------------
  Cycle       Energy         DIIS Error
 ---------------------------------------
    1     -78.4400149848      1.01E-01
    2     -78.0175999825      7.21E-03
    3     -78.0382340103      1.84E-03
    4     -78.0397169948      5.73E-04
    5     -78.0398386226      5.79E-05
    6     -78.0398405023      9.22E-06
    7     -78.0398405629      1.96E-06
    8     -78.0398405656      1.91E-07
    9     -78.0398405657      6.84E-08
   10     -78.0398405657      1.59E-08
   11     -78.0398405657      3.84E-09 Convergence criterion met
 ---------------------------------------
 SCF time:  CPU 2.19 s  wall 10.88 s
 SCF   energy in the final basis set = -78.03984057
 Total energy in the final basis set = -78.03984057
Exporting Density Matrix to file 'Densmat_SCF.txt'.
Export successful
================================================================================
|                                                                              |
|                                 A D C  M A N                                 |
|                                                                              |
 ------------------------------------------------------------------------------ 
|                                                                              |
| Components:                                                                  |
|                                                                              |
| - libvmm - 1.3-trunk                                                         |
|   Authors:                                                                   |
|   Evgeny Epifanovsky, Ilya Kaliman                                           |
|                                                                              |
| - libtensor - 2.5-trunk                                                      |
|   Authors:                                                                   |
|   Evgeny Epifanovsky, Michael Wormit, Dmitry Zuev, Sam Manzer,               |
|   Ilya Kaliman                                                               |
|                                                                              |
| - libwfa - 1.1-trunk                                                         |
|   Authors:                                                                   |
|   Felix Plasser, Stefanie Mewes (Baeppler), Benjamin Thomitzni,              |
|   Michael Wormit, Feng Chen, Anna I. Krylov, Pavel Pokhilko                  |
|                                                                              |
| - libadc - 1.1-trunk                                                         |
|   Authors:                                                                   |
|   Michael Wormit, Adrian L. Dempwolff, Philipp H. P. Harbach,                |
|   Caroline Krauter, Dirk Rehn, Matthias Schneider, Jan Wenzel                |
|                                                                              |
| - adcman - 2.6-trunk                                                         |
|   Authors:                                                                   |
|   Michael Wormit, Adrian L. Dempwolff, Philipp H. P. Harbach,                |
|   Caroline Krauter, Daniel Lefrancois, Jan-Michael Mewes, Dirk Rehn,         |
|   Matthias Schneider, Jan Wenzel, Andreas Dreuw                              |
|                                                                              |
| Authors of earlier versions of ADCMAN:                                       |
| Andreas Dreuw, Jan Hendrik Starcke, Dirk Rehn, Michael Wormit                |
|                                                                              |
================================================================================

 Created directory /srv/beegfs/scratch/users/f/fum/qchem65279/plots
  Import QC data ...  CPU 0.00 s  wall 0.00 s

 Alpha MOs, Restricted
 -- Occupied --                  
-11.235 -11.233  -1.032  -0.790  -0.641  -0.582  -0.505  -0.374
  1 A     2 A     3 A     4 A     5 A     6 A     7 A     8 A                  
 -- Virtual --                   
  0.168   0.204   0.233   0.239   0.303   0.462   0.578   0.615
  9 A    10 A    11 A    12 A    13 A    14 A    15 A    16 A                  
  0.689   0.709   0.785   0.808   0.862   0.936   0.973   1.010
 17 A    18 A    19 A    20 A    21 A    22 A    23 A    24 A                  
  1.130   1.235   1.250   1.269   1.295   1.602   1.728   1.751
 25 A    26 A    27 A    28 A    29 A    30 A    31 A    32 A                  
  1.819   1.859   1.867   1.921   1.977   1.979   2.221   2.258
 33 A    34 A    35 A    36 A    37 A    38 A    39 A    40 A                  
  2.375   2.455   2.507   2.635   2.722   2.823   3.140   3.400
 41 A    42 A    43 A    44 A    45 A    46 A    47 A    48 A                  

 Beta MOs, Restricted
 -- Occupied --                  
-11.235 -11.233  -1.032  -0.790  -0.641  -0.582  -0.505  -0.374
  1 A     2 A     3 A     4 A     5 A     6 A     7 A     8 A                  
 -- Virtual --                   
  0.168   0.204   0.233   0.239   0.303   0.462   0.578   0.615
  9 A    10 A    11 A    12 A    13 A    14 A    15 A    16 A                  
  0.689   0.709   0.785   0.808   0.862   0.936   0.973   1.010
 17 A    18 A    19 A    20 A    21 A    22 A    23 A    24 A                  
  1.130   1.235   1.250   1.269   1.295   1.602   1.728   1.751
 25 A    26 A    27 A    28 A    29 A    30 A    31 A    32 A                  
  1.819   1.859   1.867   1.921   1.977   1.979   2.221   2.258
 33 A    34 A    35 A    36 A    37 A    38 A    39 A    40 A                  
  2.375   2.455   2.507   2.635   2.722   2.823   3.140   3.400
 41 A    42 A    43 A    44 A    45 A    46 A    47 A    48 A                  
  Import AO data ...  CPU 0.00 s  wall 0.10 s
  Using point group: C1
  Irreducible representations in point group: A
  Molecular orbitals: 
  Occupied MOs:
  Block   0:   1 (  A) A   2 (  A) A   3 (  A) A   4 (  A) A   5 (  A) A
                  -11.24      -11.23      -1.032       -0.79     -0.6412
               6 (  A) A   7 (  A) A   8 (  A) A
                 -0.5821     -0.5047      -0.374
  Block   1:   1 (  A) B   2 (  A) B   3 (  A) B   4 (  A) B   5 (  A) B
                  -11.24      -11.23      -1.032       -0.79     -0.6412
               6 (  A) B   7 (  A) B   8 (  A) B
                 -0.5821     -0.5047      -0.374
  Virtual MOs:
  Block   0:   9 (  A) A  10 (  A) A  11 (  A) A  12 (  A) A  13 (  A) A
                  0.1683      0.2037      0.2331      0.2394      0.3033
              14 (  A) A  15 (  A) A  16 (  A) A  17 (  A) A  18 (  A) A
                  0.4622      0.5776       0.615      0.6892      0.7093
              19 (  A) A  20 (  A) A  21 (  A) A  22 (  A) A
                  0.7848      0.8079      0.8623      0.9361
  Block   1:  23 (  A) A  24 (  A) A  25 (  A) A  26 (  A) A  27 (  A) A
                  0.9726        1.01        1.13       1.235        1.25
              28 (  A) A  29 (  A) A  30 (  A) A  31 (  A) A  32 (  A) A
                   1.269       1.295       1.602       1.728       1.751
              33 (  A) A  34 (  A) A  35 (  A) A  36 (  A) A
                   1.819       1.859       1.867       1.921
  Block   2:  37 (  A) A  38 (  A) A  39 (  A) A  40 (  A) A  41 (  A) A
                   1.977       1.979       2.221       2.258       2.375
              42 (  A) A  43 (  A) A  44 (  A) A  45 (  A) A  46 (  A) A
                   2.455       2.507       2.635       2.722       2.823
              47 (  A) A  48 (  A) A
                    3.14         3.4
  Block   3:   9 (  A) B  10 (  A) B  11 (  A) B  12 (  A) B  13 (  A) B
                  0.1683      0.2037      0.2331      0.2394      0.3033
              14 (  A) B  15 (  A) B  16 (  A) B  17 (  A) B  18 (  A) B
                  0.4622      0.5776       0.615      0.6892      0.7093
              19 (  A) B  20 (  A) B  21 (  A) B  22 (  A) B
                  0.7848      0.8079      0.8623      0.9361
  Block   4:  23 (  A) B  24 (  A) B  25 (  A) B  26 (  A) B  27 (  A) B
                  0.9726        1.01        1.13       1.235        1.25
              28 (  A) B  29 (  A) B  30 (  A) B  31 (  A) B  32 (  A) B
                   1.269       1.295       1.602       1.728       1.751
              33 (  A) B  34 (  A) B  35 (  A) B  36 (  A) B
                   1.819       1.859       1.867       1.921
  Block   5:  37 (  A) B  38 (  A) B  39 (  A) B  40 (  A) B  41 (  A) B
                   1.977       1.979       2.221       2.258       2.375
              42 (  A) B  43 (  A) B  44 (  A) B  45 (  A) B  46 (  A) B
                   2.455       2.507       2.635       2.722       2.823
              47 (  A) B  48 (  A) B
                    3.14         3.4
  Import MO data ...  CPU 0.01 s  wall 0.51 s
  Import HF data ...  CPU 0.10 s  wall 0.06 s
  Import 2e integrals ...  CPU 1.04 s  wall 0.47 s

--------------------------------------------------------------------------------
                                   HF Summary                                   
--------------------------------------------------------------------------------
  Energy:                                                  -78.0398405657 a.u.
  Dip. moment [a.u.]:                  [  -0.000146,    0.001361,   -0.010526]
  Total dipole [Debye]:                                               0.026979
  <r^2> [a.u.]:                        [ 175.319371,   34.919719,   11.614054]
  Total <r^2> [a.u.]:                                               221.853144
--------------------------------------------------------------------------------
  HF properties ...  CPU 0.02 s  wall 0.04 s
  MP(1) calculation ...  CPU 0.01 s  wall 0.06 s
  N^6 prerequesite intermediates ...  CPU 0.50 s  wall 0.19 s
  Difference density matrix of state mp2_gs printed to ASCII file 'State_mp2_gs_Difference.txt'
Exporting MP density matrix to file 'Densmat_MP.txt'.
Export successful
  Total density matrix of state mp2_gs printed to ASCII file 'State_mp2_gs_Total.txt'
Exporting MP density matrix to file 'Densmat_MP.txt'.
Export successful

--------------------------------------------------------------------------------
                                 MP(2) Summary                                  
--------------------------------------------------------------------------------
  MP energy contribution:                                   -0.2796889028 a.u.
  Total energy:                                            -78.3195294684 a.u.
  Dip. moment [a.u.]:                  [  -0.000153,    0.001175,   -0.010398]
  Total dipole [Debye]:                                               0.026601
  <r^2> [a.u.]:                        [ 175.366393,   34.960349,   11.445800]
  Total <r^2> [a.u.]:                                               221.772542

  Density matrix analysis:
  ------------------------
  NOs
    Occupation of frontier NOs:
       0.0453   1.9382
    Number of electrons: 16.000000
    Number of unpaired electrons: n_u =  0.40335, n_u,nl =  0.04507
    NO participation ratio (PR_NO): 13.854647
  
  
  Mulliken Population Analysis
  Atom      Charge (e)              h+              e-           Del q
  --------------------------------------------------------------------
   1 H        0.050533        0.014062       -0.011197        0.002865
   2 C       -0.100140        0.093122       -0.098804       -0.005682
   3 H        0.050410        0.014092       -0.011185        0.002907
   4 C       -0.101553        0.092996       -0.098913       -0.005917
   5 H        0.050158        0.014122       -0.011184        0.002938
   6 H        0.050591        0.014081       -0.011192        0.002889
  --------------------------------------------------------------------
  Sum:        0.000000        0.242475       -0.242475        0.000000
  
  Multipole moment analysis of the density matrix
    Molecular charge:                      0.000000
    Number of electrons:                   16.000000
      Center of electronic charge [Ang]: [ -1.560571,  -0.065641,  -0.000178]
    Total nuclear charge:                  16.000000
      Center of nuclear charge [Ang]:    [ -1.560576,  -0.065602,  -0.000522]
    Dipole moment [D]:                     0.026601
      Cartesian components [D]:          [ -0.000388,   0.002988,  -0.026430]
    RMS size of the density [Ang]:         1.200718
      Cartesian components [Ang]:        [  0.796142,   0.779461,   0.447573]
  
  Exciton analysis of the difference density matrix
    <r_h> [Ang]:                  [ -1.560716,  -0.065994,   0.001501]
    <r_e> [Ang]:                  [ -1.560700,  -0.065590,   0.001223]
    |<r_e - r_h>| [Ang]:            0.000491
    Hole size [Ang]:                1.393521
      Cartesian components [Ang]: [  0.846330,   0.834155,   0.727881]
    Electron size [Ang]:            1.359748
      Cartesian components [Ang]: [  0.877853,   0.861853,   0.579222]
--------------------------------------------------------------------------------
  MP(2) calculation ...  CPU 0.25 s  wall 0.22 s
  Start ADC(2)-s ...  CPU 0.01 s  wall 0.00 s
  ADC(2) intermediates ...  CPU 0.05 s  wall 0.01 s
  Starting Davidson for singlet states of irrep A ... 
--------------------------------------------------------------------------------
   It NVec Conv  Avg. Norm  Max. Norm  Conv. states           Remark
--------------------------------------------------------------------------------
        10    0  1.330e-01  4.688e-01  0.4119 n n n n n n n n Guess.
    1   20    0  2.326e-02  1.109e-01  0.3258 n n n n n n n n 
    2   30    0  6.120e-03  2.507e-02  0.3211 n n n n n n n n 
    3   40    0  2.094e-03  1.016e-02  0.3207 n n n n n n n n 
    4   50    0  5.402e-04  3.347e-03  0.3207 n n n n n n n n 
    5   20    0  3.117e-04  1.674e-03  0.3207 n n n n n n n n Subspace collapsed.
    6   30    0  2.631e-04  1.500e-03  0.3207 n n n n n n n n 
    7   40    0  1.913e-04  1.276e-03  0.3207 n n n n n n n n 
    8   50    0  1.185e-04  8.764e-04  0.3207 n n n n n n n n 
    9   20    0  5.749e-05  4.151e-04  0.3207 n n n n n n n n Subspace collapsed.
   10   30    2  4.309e-05  2.835e-04  0.3207 n y y n n n n n 
   11   40    3  1.787e-05  1.124e-04  0.3207 n y y y n n n n 
   12   50    5  1.002e-05  7.422e-05  0.3207 y y y y y n n n 
   13   20    6  8.900e-06  7.090e-05  0.3207 y y y y y y n n Subspace collapsed.
   14   30    6  1.117e-05  9.419e-05  0.3207 y y y y y y n n 
   15   40    6  1.407e-05  1.307e-04  0.3207 y y y y y y n n 
   16   50    6  9.094e-06  8.703e-05  0.3207 y y y y y y n n 
   17   20    6  4.907e-06  4.700e-05  0.3207 y y y y y y n n Subspace collapsed.
   18   30    7  2.570e-06  2.461e-05  0.3207 y y y y y y y n 
   19   40    7  1.409e-06  1.353e-05  0.3207 y y y y y y y n 
   20   50    7  1.471e-06  1.431e-05  0.3207 y y y y y y y n 
   21   20    8  1.068e-06  1.046e-05  0.3207 y y y y y y y y Subspace collapsed.
   22   30    8  1.396e-06  1.378e-05  0.3207 y y y y y y y y 
   23   40    8  1.427e-06  1.417e-05  0.3207 y y y y y y y y 
   24   42    8  1.420e-06  1.410e-05  0.3207 y y y y y y y y 
   25   50    8  1.245e-06  1.239e-05  0.3207 y y y y y y y y 
   26   17    9  6.055e-07  6.030e-06  0.3207 y y y y y y y y Subspace collapsed.
   27   23    9  5.086e-07  5.066e-06  0.3207 y y y y y y y y 
   28   29    9  2.764e-07  2.754e-06  0.3207 y y y y y y y y 
   29   35    9  2.377e-07  2.371e-06  0.3207 y y y y y y y y 
   30   35    9  2.377e-07  2.371e-06  0.3207 y y y y y y y y 
   31   45    9  3.221e-07  3.215e-06  0.3207 y y y y y y y y 
   32   45    9  3.221e-07  3.215e-06  0.3207 y y y y y y y y 
   33   50    9  3.357e-07  3.352e-06  0.3207 y y y y y y y y 
   34   15    9  1.672e-07  1.670e-06  0.3207 y y y y y y y y Subspace collapsed.
   35   19    9  1.643e-07  1.640e-06  0.3207 y y y y y y y y 
   36   23    9  2.020e-07  2.018e-06  0.3207 y y y y y y y y 
   37   27    9  1.739e-07  1.738e-06  0.3207 y y y y y y y y 
   38   31    9  1.669e-07  1.668e-06  0.3207 y y y y y y y y 
   39   35   10  9.565e-08  9.563e-07  0.3207 y y y y y y y y Converged.
--------------------------------------------------------------------------------
  Davidson Summary: 
 ------------------------------------------------------------
  State  0: excitation energy =   0.3207 a.u.   (converged)
  State  1: excitation energy =   0.3329 a.u.   (converged)
  State  2: excitation energy =   0.3371 a.u.   (converged)
  State  3: excitation energy =   0.3615 a.u.   (converged)
  State  4: excitation energy =   0.3753 a.u.   (converged)
  State  5: excitation energy =   0.3872 a.u.   (converged)
  State  6: excitation energy =   0.4249 a.u.   (converged)
  State  7: excitation energy =   0.4470 a.u.   (converged)
  State  8: excitation energy =   0.4563 a.u.   (converged)
  State  9: excitation energy =   0.4649 a.u.   (converged)
 ------------------------------------------------------------

  Singlet states of irrep A ...  CPU 138.43 s  wall 37.34 s
  TDMs ...  CPU 0.89 s  wall 0.34 s
  SDMs ...  CPU 2.49 s  wall 0.69 s
  Starting TPA DIIS iterations ... 
------------------------------------ 
   It     Res. Norm  Remark
------------------------------------
                       Guess.
    1     4.400e+00  
    2     5.832e+00  
    3     1.075e+00  
    4     2.562e-01  
    5     6.566e-02  
    6     2.685e-02  
    7     8.221e-03  
    8     1.532e-03  
    9     5.485e-04  
   10     1.345e-04  
   11     4.506e-05  
   12     1.799e-05  
   13     5.560e-06  
   14     3.104e-06  
   15     5.508e-07  Converged.
   ... Converged in 15 steps (norm: 5.50797e-07)
------------------------------------
  Starting TPA DIIS iterations ... 
------------------------------------ 
   It     Res. Norm  Remark
------------------------------------
                       Guess.
    1     4.182e+00  
    2     5.536e+00  
    3     1.029e+00  
    4     2.553e-01  
    5     6.534e-02  
    6     2.673e-02  
    7     8.088e-03  
    8     1.441e-03  
    9     5.146e-04  
   10     1.151e-04  
   11     3.424e-05  
   12     1.344e-05  
   13     3.917e-06  
   14     2.167e-06  
   15     4.128e-07  Converged.
   ... Converged in 15 steps (norm: 4.12806e-07)
------------------------------------
  Starting TPA DIIS iterations ... 
------------------------------------ 
   It     Res. Norm  Remark
------------------------------------
                       Guess.
    1     6.847e-01  
    2     4.800e-01  
    3     1.696e-01  
    4     3.973e-02  
    5     1.608e-02  
    6     7.544e-03  
    7     1.038e-03  
    8     4.487e-04  
    9     1.249e-04  
   10     2.978e-05  
   11     5.654e-06  
   12     1.493e-06  
   13     7.870e-07  Converged.
   ... Converged in 13 steps (norm: 7.87014e-07)
------------------------------------
  Starting TPA DIIS iterations ... 
------------------------------------ 
   It     Res. Norm  Remark
------------------------------------
                       Guess.
    1     4.702e+00  
    2     6.374e+00  
    3     1.160e+00  
    4     2.862e-01  
    5     7.442e-02  
    6     3.072e-02  
    7     9.383e-03  
    8     1.758e-03  
    9     6.347e-04  
   10     1.603e-04  
   11     5.606e-05  
   12     2.267e-05  
   13     7.097e-06  
   14     3.884e-06  
   15     7.097e-07  Converged.
   ... Converged in 15 steps (norm: 7.09677e-07)
------------------------------------
  Starting TPA DIIS iterations ... 
------------------------------------ 
   It     Res. Norm  Remark
------------------------------------
                       Guess.
    1     4.468e+00  
    2     6.050e+00  
    3     1.110e+00  
    4     2.850e-01  
    5     7.407e-02  
    6     3.059e-02  
    7     9.231e-03  
    8     1.642e-03  
    9     5.890e-04  
   10     1.361e-04  
   11     4.075e-05  
   12     1.680e-05  
   13     4.787e-06  
   14     2.811e-06  
   15     5.199e-07  Converged.
   ... Converged in 15 steps (norm: 5.19922e-07)
------------------------------------
  Starting TPA DIIS iterations ... 
------------------------------------ 
   It     Res. Norm  Remark
------------------------------------
                       Guess.
    1     6.972e-01  
    2     4.980e-01  
    3     1.799e-01  
    4     4.370e-02  
    5     1.793e-02  
    6     8.309e-03  
    7     1.178e-03  
    8     5.331e-04  
    9     1.523e-04  
   10     3.409e-05  
   11     6.485e-06  
   12     1.773e-06  
   13     9.873e-07  Converged.
   ... Converged in 13 steps (norm: 9.87335e-07)
------------------------------------
  Starting TPA DIIS iterations ... 
------------------------------------ 
   It     Res. Norm  Remark
------------------------------------
                       Guess.
    1     4.813e+00  
    2     6.576e+00  
    3     1.191e+00  
    4     2.975e-01  
    5     7.773e-02  
    6     3.218e-02  
    7     9.822e-03  
    8     1.844e-03  
    9     6.678e-04  
   10     1.704e-04  
   11     6.052e-05  
   12     2.455e-05  
   13     7.725e-06  
   14     4.194e-06  
   15     7.740e-07  Converged.
   ... Converged in 15 steps (norm: 7.73964e-07)
------------------------------------
  Starting TPA DIIS iterations ... 
------------------------------------ 
   It     Res. Norm  Remark
------------------------------------
                       Guess.
    1     4.573e+00  
    2     6.241e+00  
    3     1.139e+00  
    4     2.962e-01  
    5     7.737e-02  
    6     3.206e-02  
    7     9.663e-03  
    8     1.718e-03  
    9     6.172e-04  
   10     1.442e-04  
   11     4.330e-05  
   12     1.816e-05  
   13     5.134e-06  
   14     3.078e-06  
   15     5.630e-07  Converged.
   ... Converged in 15 steps (norm: 5.63037e-07)
------------------------------------
  Starting TPA DIIS iterations ... 
------------------------------------ 
   It     Res. Norm  Remark
------------------------------------
                       Guess.
    1     7.016e-01  
    2     5.044e-01  
    3     1.836e-01  
    4     4.519e-02  
    5     1.861e-02  
    6     8.589e-03  
    7     1.232e-03  
    8     5.659e-04  
    9     1.629e-04  
   10     3.536e-05  
   11     6.797e-06  
   12     1.883e-06  
   13     1.068e-06  
   14     4.028e-07  Converged.
   ... Converged in 14 steps (norm: 4.02833e-07)
------------------------------------
  Starting TPA DIIS iterations ... 
------------------------------------ 
   It     Res. Norm  Remark
------------------------------------
                       Guess.
    1     5.557e+00  
    2     7.964e+00  
    3     1.399e+00  
    4     3.781e-01  
    5     1.013e-01  
    6     4.272e-02  
    7     1.295e-02  
    8     2.467e-03  
    9     9.111e-04  
   10     2.475e-04  
   11     9.693e-05  
   12     3.969e-05  
   13     1.293e-05  
   14     6.624e-06  
   15     1.293e-06  
   16     6.329e-07  Converged.
   ... Converged in 16 steps (norm: 6.32933e-07)
------------------------------------
  Starting TPA DIIS iterations ... 
------------------------------------ 
   It     Res. Norm  Remark
------------------------------------
                       Guess.
    1     5.277e+00  
    2     7.558e+00  
    3     1.338e+00  
    4     3.758e-01  
    5     1.008e-01  
    6     4.260e-02  
    7     1.274e-02  
    8     2.255e-03  
    9     8.180e-04  
   10     2.058e-04  
   11     6.298e-05  
   12     2.911e-05  
   13     7.875e-06  
   14     5.337e-06  
   15     9.099e-07  Converged.
   ... Converged in 15 steps (norm: 9.09947e-07)
------------------------------------
  Starting TPA DIIS iterations ... 
------------------------------------ 
   It     Res. Norm  Remark
------------------------------------
                       Guess.
    1     7.282e-01  
    2     5.449e-01  
    3     2.077e-01  
    4     5.576e-02  
    5     2.311e-02  
    6     1.050e-02  
    7     1.630e-03  
    8     8.034e-04  
    9     2.386e-04  
   10     3.998e-05  
   11     9.027e-06  
   12     2.712e-06  
   13     1.720e-06  
   14     6.453e-07  Converged.
   ... Converged in 14 steps (norm: 6.45269e-07)
------------------------------------
  Starting TPA DIIS iterations ... 
------------------------------------ 
   It     Res. Norm  Remark
------------------------------------
                       Guess.
    1     6.066e+00  
    2     8.947e+00  
    3     1.541e+00  
    4     4.375e-01  
    5     1.185e-01  
    6     5.058e-02  
    7     1.525e-02  
    8     2.937e-03  
    9     1.099e-03  
   10     3.095e-04  
   11     1.287e-04  
   12     5.264e-05  
   13     1.756e-05  
   14     8.632e-06  
   15     1.736e-06  
   16     8.416e-07  Converged.
   ... Converged in 16 steps (norm: 8.41575e-07)
------------------------------------
  Starting TPA DIIS iterations ... 
------------------------------------ 
   It     Res. Norm  Remark
------------------------------------
                       Guess.
    1     5.760e+00  
    2     8.490e+00  
    3     1.473e+00  
    4     4.343e-01  
    5     1.181e-01  
    6     5.046e-02  
    7     1.500e-02  
    8     2.649e-03  
    9     9.662e-04  
   10     2.550e-04  
   11     7.916e-05  
   12     3.859e-05  
   13     1.019e-05  
   14     7.386e-06  
   15     1.207e-06  
   16     9.756e-07  Converged.
   ... Converged in 16 steps (norm: 9.75556e-07)
------------------------------------
  Starting TPA DIIS iterations ... 
------------------------------------ 
   It     Res. Norm  Remark
------------------------------------
                       Guess.
    1     7.442e-01  
    2     5.706e-01  
    3     2.236e-01  
    4     6.354e-02  
    5     2.610e-02  
    6     1.186e-02  
    7     1.940e-03  
    8     9.714e-04  
    9     2.915e-04  
   10     4.067e-05  
   11     1.074e-05  
   12     3.381e-06  
   13     2.285e-06  
   14     8.672e-07  Converged.
   ... Converged in 14 steps (norm: 8.67175e-07)
------------------------------------
  Starting TPA DIIS iterations ... 
------------------------------------ 
   It     Res. Norm  Remark
------------------------------------
                       Guess.
    1     6.566e+00  
    2     9.937e+00  
    3     1.679e+00  
    4     4.987e-01  
    5     1.364e-01  
    6     5.877e-02  
    7     1.763e-02  
    8     3.432e-03  
    9     1.300e-03  
   10     3.780e-04  
   11     1.655e-04  
   12     6.746e-05  
   13     2.302e-05  
   14     1.088e-05  
   15     2.243e-06  
   16     1.075e-06  
   17     1.660e-07  Converged.
   ... Converged in 17 steps (norm: 1.65972e-07)
------------------------------------
  Starting TPA DIIS iterations ... 
------------------------------------ 
   It     Res. Norm  Remark
------------------------------------
                       Guess.
    1     6.234e+00  
    2     9.430e+00  
    3     1.605e+00  
    4     4.946e-01  
    5     1.359e-01  
    6     5.865e-02  
    7     1.734e-02  
    8     3.054e-03  
    9     1.120e-03  
   10     3.089e-04  
   11     9.744e-05  
   12     4.963e-05  
   13     1.284e-05  
   14     9.819e-06  
   15     1.548e-06  
   16     1.280e-06  
   17     1.900e-07  Converged.
   ... Converged in 17 steps (norm: 1.89971e-07)
------------------------------------
  Starting TPA DIIS iterations ... 
------------------------------------ 
   It     Res. Norm  Remark
------------------------------------
                       Guess.
    1     7.585e-01  
    2     5.946e-01  
    3     2.388e-01  
    4     7.161e-02  
    5     2.897e-02  
    6     1.323e-02  
    7     2.273e-03  
    8     1.130e-03  
    9     3.424e-04  
   10     4.097e-05  
   11     1.259e-05  
   12     4.127e-06  
   13     2.944e-06  
   14     1.137e-06  
   15     6.707e-07  Converged.
   ... Converged in 15 steps (norm: 6.70722e-07)
------------------------------------
  Starting TPA DIIS iterations ... 
------------------------------------ 
   It     Res. Norm  Remark
------------------------------------
                       Guess.
    1     8.688e+00  
    2     1.438e+01  
    3     2.256e+00  
    4     7.863e-01  
    5     2.204e-01  
    6     9.811e-02  
    7     2.883e-02  
    8     5.886e-03  
    9     2.340e-03  
   10     7.509e-04  
   11     3.864e-04  
   12     1.536e-04  
   13     5.702e-05  
   14     2.341e-05  
   15     5.175e-06  
   16     2.346e-06  
   17     4.241e-07  Converged.
   ... Converged in 17 steps (norm: 4.24068e-07)
------------------------------------
  Starting TPA DIIS iterations ... 
------------------------------------ 
   It     Res. Norm  Remark
------------------------------------
                       Guess.
    1     8.245e+00  
    2     1.365e+01  
    3     2.154e+00  
    4     7.769e-01  
    5     2.197e-01  
    6     9.802e-02  
    7     2.831e-02  
    8     4.948e-03  
    9     1.848e-03  
   10     6.017e-04  
   11     2.062e-04  
   12     1.174e-04  
   13     2.826e-05  
   14     2.479e-05  
   15     3.545e-06  
   16     2.857e-06  
   17     4.551e-07  Converged.
   ... Converged in 17 steps (norm: 4.55093e-07)
------------------------------------
  Starting TPA DIIS iterations ... 
------------------------------------ 
   It     Res. Norm  Remark
------------------------------------
                       Guess.
    1     8.076e-01  
    2     6.843e-01  
    3     2.988e-01  
    4     1.102e-01  
    5     4.059e-02  
    6     1.953e-02  
    7     3.943e-03  
    8     1.624e-03  
    9     5.400e-04  
   10     5.222e-05  
   11     2.248e-05  
   12     8.434e-06  
   13     7.043e-06  
   14     2.979e-06  
   15     1.320e-06  
   16     7.917e-07  Converged.
   ... Converged in 16 steps (norm: 7.91653e-07)
------------------------------------
  Starting TPA DIIS iterations ... 
------------------------------------ 
   It     Res. Norm  Remark
------------------------------------
                       Guess.
    1     1.050e+01  
    2     1.846e+01  
    3     2.736e+00  
    4     1.060e+00  
    5     3.010e-01  
    6     1.368e-01  
    7     3.959e-02  
    8     8.416e-03  
    9     3.466e-03  
   10     1.173e-03  
   11     6.577e-04  
   12     2.567e-04  
   13     9.991e-05  
   14     3.791e-05  
   15     8.673e-06  
   16     3.775e-06  
   17     7.965e-07  Converged.
   ... Converged in 17 steps (norm: 7.96503e-07)
------------------------------------
  Starting TPA DIIS iterations ... 
------------------------------------ 
   It     Res. Norm  Remark
------------------------------------
                       Guess.
    1     9.964e+00  
    2     1.752e+01  
    3     2.611e+00  
    4     1.044e+00  
    5     3.002e-01  
    6     1.367e-01  
    7     3.882e-02  
    8     6.756e-03  
    9     2.560e-03  
   10     9.356e-04  
   11     3.488e-04  
   12     2.047e-04  
   13     4.753e-05  
   14     4.323e-05  
   15     6.057e-06  
   16     4.368e-06  
   17     9.217e-07  Converged.
   ... Converged in 17 steps (norm: 9.21679e-07)
------------------------------------
  Starting TPA DIIS iterations ... 
------------------------------------ 
   It     Res. Norm  Remark
------------------------------------
                       Guess.
    1     8.396e-01  
    2     7.497e-01  
    3     3.456e-01  
    4     1.484e-01  
    5     5.061e-02  
    6     2.521e-02  
    7     5.602e-03  
    8     1.819e-03  
    9     6.915e-04  
   10     7.375e-05  
   11     3.357e-05  
   12     1.374e-05  
   13     1.242e-05  
   14     5.590e-06  
   15     2.314e-06  
   16     1.447e-06  
   17     3.111e-07  Converged.
   ... Converged in 17 steps (norm: 3.11128e-07)
------------------------------------
  Starting TPA DIIS iterations ... 
------------------------------------ 
   It     Res. Norm  Remark
------------------------------------
                       Guess.
    1     1.144e+01  
    2     2.067e+01  
    3     2.981e+00  
    4     1.209e+00  
    5     3.454e-01  
    6     1.585e-01  
    7     4.553e-02  
    8     9.878e-03  
    9     4.133e-03  
   10     1.429e-03  
   11     8.276e-04  
   12     3.205e-04  
   13     1.267e-04  
   14     4.682e-05  
   15     1.083e-05  
   16     4.649e-06  
   17     1.059e-06  
   18     6.207e-07  Converged.
   ... Converged in 18 steps (norm: 6.20687e-07)
------------------------------------
  Starting TPA DIIS iterations ... 
------------------------------------ 
   It     Res. Norm  Remark
------------------------------------
                       Guess.
    1     1.086e+01  
    2     1.961e+01  
    3     2.844e+00  
    4     1.190e+00  
    5     3.446e-01  
    6     1.584e-01  
    7     4.462e-02  
    8     7.752e-03  
    9     2.961e-03  
   10     1.139e-03  
   11     4.444e-04  
   12     2.611e-04  
   13     6.049e-05  
   14     5.471e-05  
   15     7.738e-06  
   16     5.130e-06  
   17     1.296e-06  
   18     9.164e-07  Converged.
   ... Converged in 18 steps (norm: 9.16385e-07)
------------------------------------
  Starting TPA DIIS iterations ... 
------------------------------------ 
   It     Res. Norm  Remark
------------------------------------
                       Guess.
    1     8.538e-01  
    2     7.806e-01  
    3     3.684e-01  
    4     1.699e-01  
    5     5.601e-02  
    6     2.812e-02  
    7     6.510e-03  
    8     1.875e-03  
    9     7.663e-04  
   10     8.681e-05  
   11     4.031e-05  
   12     1.702e-05  
   13     1.581e-05  
   14     7.329e-06  
   15     3.300e-06  
   16     1.862e-06  
   17     4.211e-07  Converged.
   ... Converged in 17 steps (norm: 4.21134e-07)
------------------------------------
  Starting TPA DIIS iterations ... 
------------------------------------ 
   It     Res. Norm  Remark
------------------------------------
                       Guess.
    1     1.244e+01  
    2     2.308e+01  
    3     3.238e+00  
    4     1.372e+00  
    5     3.946e-01  
    6     1.827e-01  
    7     5.212e-02  
    8     1.154e-02  
    9     4.905e-03  
   10     1.727e-03  
   11     1.030e-03  
   12     3.959e-04  
   13     1.584e-04  
   14     5.736e-05  
   15     1.336e-05  
   16     5.698e-06  
   17     1.399e-06  
   18     8.440e-07  Converged.
   ... Converged in 18 steps (norm: 8.44022e-07)
------------------------------------
  Starting TPA DIIS iterations ... 
------------------------------------ 
   It     Res. Norm  Remark
------------------------------------
                       Guess.
    1     1.181e+01  
    2     2.190e+01  
    3     3.089e+00  
    4     1.349e+00  
    5     3.937e-01  
    6     1.826e-01  
    7     5.102e-02  
    8     8.853e-03  
    9     3.412e-03  
   10     1.379e-03  
   11     5.643e-04  
   12     3.294e-04  
   13     7.710e-05  
   14     6.833e-05  
   15     9.882e-06  
   16     5.899e-06  
   17     1.823e-06  
   18     1.232e-06  
   19     3.708e-07  Converged.
   ... Converged in 19 steps (norm: 3.70833e-07)
------------------------------------
  Starting TPA DIIS iterations ... 
------------------------------------ 
   It     Res. Norm  Remark
------------------------------------
                       Guess.
    1     8.674e-01  
    2     8.115e-01  
    3     3.919e-01  
    4     1.940e-01  
    5     6.194e-02  
    6     3.111e-02  
    7     7.499e-03  
    8     1.922e-03  
    9     8.442e-04  
   10     1.015e-04  
   11     4.826e-05  
   12     2.079e-05  
   13     1.961e-05  
   14     9.444e-06  
   15     4.652e-06  
   16     2.364e-06  
   17     5.854e-07  Converged.
   ... Converged in 17 steps (norm: 5.85378e-07)
------------------------------------
  Two-photon absorbption ...  CPU 124.39 s  wall 26.05 s
  Transition density matrix of state singlet_A_1 printed to ASCII file 'State_singlet_A_1_Transition.txt'
  Transition density matrix of state singlet_A_2 printed to ASCII file 'State_singlet_A_2_Transition.txt'
  Transition density matrix of state singlet_A_3 printed to ASCII file 'State_singlet_A_3_Transition.txt'
  Transition density matrix of state singlet_A_4 printed to ASCII file 'State_singlet_A_4_Transition.txt'
  Transition density matrix of state singlet_A_5 printed to ASCII file 'State_singlet_A_5_Transition.txt'
  Transition density matrix of state singlet_A_6 printed to ASCII file 'State_singlet_A_6_Transition.txt'
  Transition density matrix of state singlet_A_7 printed to ASCII file 'State_singlet_A_7_Transition.txt'
  Transition density matrix of state singlet_A_8 printed to ASCII file 'State_singlet_A_8_Transition.txt'
  Transition density matrix of state singlet_A_9 printed to ASCII file 'State_singlet_A_9_Transition.txt'
  Transition density matrix of state singlet_A_10 printed to ASCII file 'State_singlet_A_10_Transition.txt'
  Transition properties ...  CPU 0.17 s  wall 1.43 s
  Difference density matrix of state singlet_A_1 printed to ASCII file 'State_singlet_A_1_Difference.txt'
  Total density matrix of state singlet_A_1 printed to ASCII file 'State_singlet_A_1_Total.txt'
  Difference density matrix of state singlet_A_2 printed to ASCII file 'State_singlet_A_2_Difference.txt'
  Total density matrix of state singlet_A_2 printed to ASCII file 'State_singlet_A_2_Total.txt'
  Difference density matrix of state singlet_A_3 printed to ASCII file 'State_singlet_A_3_Difference.txt'
  Total density matrix of state singlet_A_3 printed to ASCII file 'State_singlet_A_3_Total.txt'
  Difference density matrix of state singlet_A_4 printed to ASCII file 'State_singlet_A_4_Difference.txt'
  Total density matrix of state singlet_A_4 printed to ASCII file 'State_singlet_A_4_Total.txt'
  Difference density matrix of state singlet_A_5 printed to ASCII file 'State_singlet_A_5_Difference.txt'
  Total density matrix of state singlet_A_5 printed to ASCII file 'State_singlet_A_5_Total.txt'
  Difference density matrix of state singlet_A_6 printed to ASCII file 'State_singlet_A_6_Difference.txt'
  Total density matrix of state singlet_A_6 printed to ASCII file 'State_singlet_A_6_Total.txt'
  Difference density matrix of state singlet_A_7 printed to ASCII file 'State_singlet_A_7_Difference.txt'
  Total density matrix of state singlet_A_7 printed to ASCII file 'State_singlet_A_7_Total.txt'
  Difference density matrix of state singlet_A_8 printed to ASCII file 'State_singlet_A_8_Difference.txt'
  Total density matrix of state singlet_A_8 printed to ASCII file 'State_singlet_A_8_Total.txt'
  Difference density matrix of state singlet_A_9 printed to ASCII file 'State_singlet_A_9_Difference.txt'
  Total density matrix of state singlet_A_9 printed to ASCII file 'State_singlet_A_9_Total.txt'
  Difference density matrix of state singlet_A_10 printed to ASCII file 'State_singlet_A_10_Difference.txt'
  Total density matrix of state singlet_A_10 printed to ASCII file 'State_singlet_A_10_Total.txt'
  Properties ...  CPU 0.46 s  wall 1.74 s
  ISR TDMS ...  CPU 17.39 s  wall 4.65 s
  ISR transition properties ...  CPU 0.23 s  wall 0.11 s
  Sum-over-states TPA ...  CPU 0.00 s  wall 0.00 s

--------------------------------------------------------------------------------
                   State-averaged natural transition orbitals
--------------------------------------------------------------------------------
--------------------------------------------------------------------------------
  SA-NTO decomposition ...  CPU 0.01 s  wall 0.11 s

--------------------------------------------------------------------------------
                             Excited State Summary
--------------------------------------------------------------------------------
--------------------------------------------------------------------------------

  Excited state 1 (singlet, A)                                     [converged]
  ----------------------------------------------------------------------------
  Term symbol:  2 (1) A                                     R^2 =  7.79149e-14

  Total energy:                                            -77.9988412931 a.u.
  Excitation energy:                                               8.726369 eV

  Osc. strength:                                                      0.433732
  Trans. dip. moment [a.u.]:           [   1.031051,   -0.982670,   -0.006935]
  <i|r^2|0> [a.u.]:                    [   6.094158,   -0.239961,   -0.018436]
  Two-photon absorption cross-section (SoS) [a.u.]:                   0.001670
  Two-photon absorption matrix (SoS) [a.u.]:
                                       |    0.013026    0.000743    0.007868 |
                                       |    0.000743   -0.008125   -0.004942 |
                                       |    0.007868   -0.004942   -0.001510 |
  Two-photon absorption cross-section [a.u.]:                         0.100680
  Two-photon absorption matrix [a.u.]:
                                       |    0.005143   -0.007806    0.089713 |
                                       |   -0.007806   -0.028949    0.062728 |
                                       |    0.089713    0.062728    0.012250 |

  Dip. moment [a.u.]:                  [  -0.001472,    0.001051,   -0.013234]
  Total dipole [Debye]:                                               0.033951
  <r^2> [a.u.]:                        [ 176.064110,   35.610459,   11.889300]
  Total <r^2> [a.u.]:                                               223.563869

  V1^2 = 0.9711, V2^2 = 0.0289

  Important amplitudes:
      occ i     occ j     vir a      vir b          v   
    -----------------------------------------------------
     8 (A) A              9 (A) A                -0.6751
     7 (A) A              9 (A) A                 0.0905
     6 (A) A             14 (A) A                -0.0615
     4 (A) A             10 (A) A                 0.0598
     7 (A) A             16 (A) A                 0.0563
     5 (A) A             13 (A) A                -0.0506
     6 (A) A             23 (A) A                -0.0480
     8 (A) A             20 (A) A                -0.0347
     6 (A) A             19 (A) A                 0.0305
     3 (A) A             12 (A) A                 0.0278
     5 (A) A             22 (A) A                 0.0212
     7 (A) A             11 (A) A                 0.0211
     4 (A) A             24 (A) A                 0.0185
     3 (A) A             26 (A) A                -0.0183
     8 (A) A   8 (A) B   17 (A) A   20 (A) B      0.0182
     6 (A) A             26 (A) A                -0.0162
     8 (A) A   8 (A) B    9 (A) A   28 (A) B     -0.0153
     7 (A) A             21 (A) A                 0.0147
     3 (A) A             14 (A) A                -0.0137
     6 (A) A             12 (A) A                -0.0130
     3 (A) A   4 (A) B    9 (A) A    9 (A) B     -0.0127
     3 (A) A             19 (A) A                 0.0118
     8 (A) A   8 (A) B   18 (A) A   19 (A) B     -0.0112
     7 (A) A             20 (A) A                 0.0104
     7 (A) A             32 (A) A                 0.0095
     7 (A) A             36 (A) A                 0.0084
     3 (A) A             23 (A) A                -0.0079
     8 (A) A   8 (A) B   25 (A) A   29 (A) B     -0.0073
     6 (A) A             35 (A) A                -0.0072
     6 (A) A             40 (A) A                -0.0067
     8 (A) A   8 (A) B    9 (A) A   27 (A) B     -0.0066
     3 (A) A   6 (A) B    9 (A) A   28 (A) B     -0.0060
     5 (A) A   8 (A) B   11 (A) A   20 (A) B      0.0059
     7 (A) A   8 (A) B   13 (A) A   20 (A) B     -0.0059
     5 (A) A   8 (A) B   16 (A) A    9 (A) B      0.0058
     5 (A) A   7 (A) B    9 (A) A    9 (A) B     -0.0058
     5 (A) A   8 (A) B   11 (A) A    9 (A) B     -0.0058
     5 (A) A             27 (A) A                -0.0058
     3 (A) A   5 (A) B    9 (A) A   25 (A) B      0.0057
     7 (A) A   8 (A) B   22 (A) A   20 (A) B      0.0056
    -----------------------------------------------------

  Density matrix analysis:
  ------------------------
  NOs
    Occupation of frontier NOs:
       0.9508   1.0210
    Number of electrons: 16.000000
    Number of unpaired electrons: n_u =  2.31413, n_u,nl =  2.03269
    NO participation ratio (PR_NO):  2.859951
  
  
  Mulliken Population Analysis
  Atom      Charge (e)              h+              e-           Del q
  --------------------------------------------------------------------
   1 H        0.060283        0.022313       -0.012564        0.009749
   2 C       -0.119869        0.485242       -0.504971       -0.019730
   3 H        0.060332        0.022662       -0.012739        0.009922
   4 C       -0.121685        0.485104       -0.505237       -0.020133
   5 H        0.059843        0.022143       -0.012459        0.009684
   6 H        0.061097        0.022918       -0.012411        0.010506
  --------------------------------------------------------------------
  Sum:        0.000000        1.060381       -1.060381        0.000000
  
  Multipole moment analysis of the density matrix
    Molecular charge:                      0.000000
    Number of electrons:                   16.000000
      Center of electronic charge [Ang]: [ -1.560528,  -0.065637,  -0.000084]
    Total nuclear charge:                  16.000000
      Center of nuclear charge [Ang]:    [ -1.560576,  -0.065602,  -0.000522]
    Dipole moment [D]:                     0.033951
      Cartesian components [D]:          [ -0.003743,   0.002671,  -0.033638]
    RMS size of the density [Ang]:         1.213759
      Cartesian components [Ang]:        [  0.803859,   0.786726,   0.456162]
  
  Exciton analysis of the difference density matrix
    <r_h> [Ang]:                  [ -1.560840,  -0.066477,   0.004819]
    <r_e> [Ang]:                  [ -1.560182,  -0.066415,   0.006234]
    |<r_e - r_h>| [Ang]:            0.001562
    Hole size [Ang]:                1.290426
      Cartesian components [Ang]: [  0.736542,   0.719403,   0.777924]
    Electron size [Ang]:            1.462979
      Cartesian components [Ang]: [  0.853700,   0.830200,   0.849865]

  Transition density matrix analysis:
  -----------------------------------
  
  CT numbers (Mulliken)
    omega =     0.9528
    <Phe> =    -0.1580
  
  Exciton analysis of the transition density matrix
    Trans. dipole moment [D]:             1.810159
      Cartesian components [D]:         [  1.310335,  -1.248848,  -0.008813]
    <r_h> [Ang]:                        [ -1.560590,  -0.066338,   0.003964]
    <r_e> [Ang]:                        [ -1.560085,  -0.066310,   0.007116]
    |<r_e - r_h>| [Ang]:                  0.003193
    Hole size [Ang]:                      1.221935
      Cartesian components [Ang]:       [  0.661932,   0.646546,   0.798092]
    Electron size [Ang]:                  1.484896
      Cartesian components [Ang]:       [  0.863719,   0.838569,   0.869314]
    RMS electron-hole separation [Ang]:   1.940139
      Cartesian components [Ang]:       [  1.112809,   1.079768,   1.166146]
    Covariance(r_h, r_e) [Ang^2]:        -0.033044
    Correlation coefficient:             -0.018212
    Center-of-mass size [Ang]:            0.952884
      Cartesian components [Ang]:       [  0.531504,   0.518782,   0.596956]

  Decomposition into state-averaged NTOs
    H- 0 -> L+ 0:  0.6644 ( 88.3%)
    H- 1 -> L+ 0: -0.0868 (  1.5%)
    H- 2 -> L+ 5:  0.0826 (  1.4%)
                   omega =  95.3%
  ----------------------------------------------------------------------------


  Excited state 2 (singlet, A)                                     [converged]
  ----------------------------------------------------------------------------
  Term symbol:  3 (1) A                                     R^2 =  4.68869e-14

  Total energy:                                            -77.9866016295 a.u.
  Excitation energy:                                               9.059427 eV

  Osc. strength:                                                      0.010271
  Trans. dip. moment [a.u.]:           [   0.160446,   -0.143254,    0.003141]
  <i|r^2|0> [a.u.]:                    [   0.876632,   -0.094308,    0.128170]
  Two-photon absorption cross-section (SoS) [a.u.]:                   5.049430
  Two-photon absorption matrix (SoS) [a.u.]:
                                       |   -0.080666   -0.052990    0.546716 |
                                       |   -0.052990   -0.020099    0.566310 |
                                       |    0.546716    0.566310    0.103039 |
  Two-photon absorption cross-section [a.u.]:                         0.138155
  Two-photon absorption matrix [a.u.]:
                                       |   -0.100915   -0.000982   -0.040715 |
                                       |   -0.000982    0.112517   -0.064323 |
                                       |   -0.040715   -0.064323   -0.010063 |

  Dip. moment [a.u.]:                  [  -0.003505,    0.009930,   -0.022982]
  Total dipole [Debye]:                                               0.064256
  <r^2> [a.u.]:                        [ 174.590120,   34.005830,   13.128953]
  Total <r^2> [a.u.]:                                               221.724903

  V1^2 = 0.9546, V2^2 = 0.0454

  Important amplitudes:
      occ i     occ j     vir a      vir b          v   
    -----------------------------------------------------
     7 (A) A              9 (A) A                -0.6629
     8 (A) A             11 (A) A                 0.1495
     8 (A) A              9 (A) A                -0.0884
     7 (A) A             20 (A) A                -0.0751
     5 (A) A   8 (A) B    9 (A) A    9 (A) B     -0.0312
     8 (A) A             16 (A) A                -0.0277
     8 (A) A             21 (A) A                 0.0178
     5 (A) A             28 (A) A                 0.0139
     4 (A) A   7 (A) B    9 (A) A   19 (A) B      0.0134
     5 (A) A   7 (A) B    9 (A) A   16 (A) B     -0.0132
     7 (A) A   8 (A) B   20 (A) A   17 (A) B      0.0104
     5 (A) A   8 (A) B    9 (A) A   20 (A) B     -0.0095
     6 (A) A             14 (A) A                -0.0094
     4 (A) A   6 (A) B    9 (A) A   16 (A) B      0.0090
     5 (A) A   6 (A) A    9 (A) A   23 (A) A      0.0090
     4 (A) A             10 (A) A                 0.0089
     5 (A) A   6 (A) A    9 (A) A   14 (A) A      0.0088
     7 (A) A   8 (A) A    9 (A) A   28 (A) A      0.0088
     5 (A) A   6 (A) B    9 (A) A   19 (A) B     -0.0086
     4 (A) A   5 (A) A    9 (A) A   10 (A) A      0.0083
     6 (A) A   7 (A) B    9 (A) A   18 (A) B      0.0082
     7 (A) A             16 (A) A                 0.0082
     5 (A) A   6 (A) B    9 (A) A   23 (A) B      0.0079
     3 (A) A   7 (A) B    9 (A) A   18 (A) B     -0.0079
     5 (A) A   7 (A) A    9 (A) A   16 (A) A     -0.0078
     5 (A) A             13 (A) A                -0.0078
     8 (A) A   7 (A) B    9 (A) A   28 (A) B     -0.0076
     4 (A) A   8 (A) B    9 (A) A   25 (A) B      0.0075
     7 (A) A   8 (A) B   17 (A) A   20 (A) B      0.0073
     4 (A) A   7 (A) B   19 (A) A    9 (A) B      0.0073
     7 (A) A   8 (A) B   19 (A) A   18 (A) B     -0.0071
     5 (A) A   5 (A) B    9 (A) A   13 (A) B      0.0071
     6 (A) A             23 (A) A                -0.0070
     8 (A) A             10 (A) A                -0.0069
     5 (A) A   8 (A) A    9 (A) A   20 (A) A     -0.0068
     4 (A) A   5 (A) B    9 (A) A   18 (A) B     -0.0067
     7 (A) A   7 (A) B   20 (A) A   22 (A) B      0.0065
     7 (A) A   8 (A) B   17 (A) A    9 (A) B      0.0064
     5 (A) A   6 (A) B    9 (A) A   14 (A) B      0.0063
     4 (A) A   7 (A) A    9 (A) A   19 (A) A      0.0061
    -----------------------------------------------------

  Density matrix analysis:
  ------------------------
  NOs
    Occupation of frontier NOs:
       0.9566   1.0539
    Number of electrons: 16.000000
    Number of unpaired electrons: n_u =  2.35429, n_u,nl =  2.06244
    NO participation ratio (PR_NO):  3.029676
  
  
  Mulliken Population Analysis
  Atom      Charge (e)              h+              e-           Del q
  --------------------------------------------------------------------
   1 H        0.145260        0.118374       -0.023647        0.094727
   2 C       -0.295841        0.274387       -0.470088       -0.195701
   3 H        0.149897        0.125096       -0.025609        0.099487
   4 C       -0.297273        0.276496       -0.472216       -0.195720
   5 H        0.152617        0.125955       -0.023496        0.102458
   6 H        0.145339        0.120246       -0.025498        0.094749
  --------------------------------------------------------------------
  Sum:        0.000000        1.040554       -1.040554        0.000000
  
  Multipole moment analysis of the density matrix
    Molecular charge:                      0.000000
    Number of electrons:                   16.000000
      Center of electronic charge [Ang]: [ -1.560460,  -0.065931,   0.000238]
    Total nuclear charge:                  16.000000
      Center of nuclear charge [Ang]:    [ -1.560576,  -0.065602,  -0.000522]
    Dipole moment [D]:                     0.064256
      Cartesian components [D]:          [ -0.008909,   0.025240,  -0.058415]
    RMS size of the density [Ang]:         1.200499
      Cartesian components [Ang]:        [  0.787783,   0.768645,   0.479354]
  
  Exciton analysis of the difference density matrix
    <r_h> [Ang]:                  [ -1.565291,  -0.063387,  -0.001409]
    <r_e> [Ang]:                  [ -1.563586,  -0.067840,   0.004990]
    |<r_e - r_h>| [Ang]:            0.007980
    Hole size [Ang]:                1.482123
      Cartesian components [Ang]: [  0.991423,   0.998740,   0.465069]
    Electron size [Ang]:            1.479391
      Cartesian components [Ang]: [  0.882806,   0.860245,   0.818063]

  Transition density matrix analysis:
  -----------------------------------
  
  CT numbers (Mulliken)
    omega =     0.9224
    <Phe> =    -0.0150
  
  Exciton analysis of the transition density matrix
    Trans. dipole moment [D]:             0.273384
      Cartesian components [D]:         [  0.203906,  -0.182058,   0.003992]
    <r_h> [Ang]:                        [ -1.565989,  -0.062896,  -0.003028]
    <r_e> [Ang]:                        [ -1.563189,  -0.068400,   0.006483]
    |<r_e - r_h>| [Ang]:                  0.011340
    Hole size [Ang]:                      1.508009
      Cartesian components [Ang]:       [  1.011555,   1.021293,   0.455859]
    Electron size [Ang]:                  1.477033
      Cartesian components [Ang]:       [  0.874428,   0.850426,   0.832933]
    RMS electron-hole separation [Ang]:   2.091730
      Cartesian components [Ang]:       [  1.321867,   1.314747,   0.948390]
    Covariance(r_h, r_e) [Ang^2]:         0.040254
    Correlation coefficient:              0.018072
    Center-of-mass size [Ang]:            1.064921
      Cartesian components [Ang]:       [  0.676093,   0.671566,   0.475346]

  Decomposition into state-averaged NTOs
    H- 1 -> L+ 0:  0.6557 ( 86.0%)
    H- 0 -> L+ 2:  0.1499 (  4.5%)
    H- 0 -> L+ 0:  0.0834 (  1.4%)
                   omega =  92.2%
  ----------------------------------------------------------------------------


  Excited state 3 (singlet, A)                                     [converged]
  ----------------------------------------------------------------------------
  Term symbol:  4 (1) A                                     R^2 =  6.08255e-14

  Total energy:                                            -77.9824379443 a.u.
  Excitation energy:                                               9.172727 eV

  Osc. strength:                                                      0.025371
  Trans. dip. moment [a.u.]:           [  -0.002054,    0.032085,   -0.334461]
  <i|r^2|0> [a.u.]:                    [   0.079226,   -0.069122,   -0.003608]
  Two-photon absorption cross-section (SoS) [a.u.]:                   2.619563
  Two-photon absorption matrix (SoS) [a.u.]:
                                       |    0.549016    0.026189    0.002609 |
                                       |    0.026189   -0.574568   -0.041786 |
                                       |    0.002609   -0.041786   -0.101779 |
  Two-photon absorption cross-section [a.u.]:                         1.418689
  Two-photon absorption matrix [a.u.]:
                                       |    0.360264    0.033798   -0.004470 |
                                       |    0.033798   -0.451709   -0.033665 |
                                       |   -0.004470   -0.033665   -0.064254 |

  Dip. moment [a.u.]:                  [   0.021448,    0.018750,    0.015886]
  Total dipole [Debye]:                                               0.082906
  <r^2> [a.u.]:                        [ 180.989253,   40.617110,   11.010030]
  Total <r^2> [a.u.]:                                               232.616392

  V1^2 = 0.9587, V2^2 = 0.0413

  Important amplitudes:
      occ i     occ j     vir a      vir b          v   
    -----------------------------------------------------
     8 (A) A             10 (A) A                 0.6890
     8 (A) A             24 (A) A                 0.0507
     8 (A) A             18 (A) A                -0.0312
     4 (A) A              9 (A) A                -0.0237
     8 (A) A   8 (A) B    9 (A) A   12 (A) B     -0.0219
     8 (A) A   8 (A) B   10 (A) A   17 (A) B      0.0173
     8 (A) A             15 (A) A                 0.0168
     5 (A) A   8 (A) B   11 (A) A   10 (A) B      0.0165
     7 (A) A   8 (A) B   13 (A) A   10 (A) B     -0.0141
     4 (A) A   8 (A) B   12 (A) A   10 (A) B      0.0111
     6 (A) A   8 (A) A   10 (A) A   15 (A) A     -0.0110
     7 (A) A   8 (A) B   22 (A) A   10 (A) B      0.0108
     6 (A) A   8 (A) B   15 (A) A   10 (A) B      0.0108
     4 (A) A   8 (A) A   10 (A) A   12 (A) A     -0.0106
     7 (A) A   8 (A) A   10 (A) A   22 (A) A     -0.0099
     7 (A) A   8 (A) A   10 (A) A   13 (A) A      0.0097
     5 (A) A   8 (A) B   21 (A) A   10 (A) B      0.0094
     5 (A) A   8 (A) A   10 (A) A   11 (A) A     -0.0094
     6 (A) A   8 (A) A   10 (A) A   18 (A) A     -0.0088
     6 (A) A   8 (A) B   10 (A) A   10 (A) B     -0.0087
     7 (A) A   8 (A) A   12 (A) A   16 (A) A      0.0082
     7 (A) A              9 (A) A                -0.0080
     5 (A) A   8 (A) A   10 (A) A   21 (A) A     -0.0080
     3 (A) A   4 (A) B   10 (A) A    9 (A) B      0.0079
     4 (A) A   8 (A) B   19 (A) A   10 (A) B      0.0075
     8 (A) A   8 (A) B    9 (A) A   23 (A) B     -0.0075
     3 (A) A   8 (A) B   10 (A) A   10 (A) B      0.0072
     5 (A) A   8 (A) B   10 (A) A   11 (A) B      0.0071
     3 (A) A   8 (A) A   10 (A) A   24 (A) A     -0.0071
     7 (A) A   8 (A) B   16 (A) A   12 (A) B     -0.0070
     3 (A) A   8 (A) B   10 (A) A   18 (A) B     -0.0069
     8 (A) A   8 (A) B    9 (A) A   19 (A) B     -0.0068
     8 (A) A   8 (A) B   10 (A) A   28 (A) B      0.0067
     6 (A) A   8 (A) B   18 (A) A   10 (A) B      0.0066
     7 (A) A   8 (A) B   12 (A) A   11 (A) B      0.0057
     3 (A) A   6 (A) B   10 (A) A   28 (A) B      0.0057
     3 (A) A   5 (A) B   10 (A) A   25 (A) B     -0.0056
     5 (A) A   8 (A) A   10 (A) A   16 (A) A      0.0056
     3 (A) A   8 (A) A   10 (A) A   18 (A) A     -0.0055
     4 (A) A   8 (A) A   10 (A) A   23 (A) A     -0.0055
    -----------------------------------------------------

  Density matrix analysis:
  ------------------------
  NOs
    Occupation of frontier NOs:
       0.9815   0.9849
    Number of electrons: 16.000000
    Number of unpaired electrons: n_u =  2.28544, n_u,nl =  2.02444
    NO participation ratio (PR_NO):  2.692271
  
  
  Mulliken Population Analysis
  Atom      Charge (e)              h+              e-           Del q
  --------------------------------------------------------------------
   1 H       -0.159900        0.053986       -0.264419       -0.210434
   2 C        0.328371        0.538036       -0.109526        0.428510
   3 H       -0.167660        0.053800       -0.271871       -0.218070
   4 C        0.327459        0.537996       -0.108984        0.429012
   5 H       -0.161507        0.054042       -0.265707       -0.211665
   6 H       -0.166763        0.053833       -0.271186       -0.217353
  --------------------------------------------------------------------
  Sum:        0.000000        1.291693       -1.291693       -0.000000
  
  Multipole moment analysis of the density matrix
    Molecular charge:                      -0.000000
    Number of electrons:                   16.000000
      Center of electronic charge [Ang]: [ -1.561286,  -0.066222,  -0.001047]
    Total nuclear charge:                  16.000000
      Center of nuclear charge [Ang]:    [ -1.560576,  -0.065602,  -0.000522]
    Dipole moment [D]:                     0.082906
      Cartesian components [D]:          [  0.054515,   0.047657,   0.040377]
    RMS size of the density [Ang]:         1.276402
      Cartesian components [Ang]:        [  0.854413,   0.840527,   0.438969]
  
  Exciton analysis of the difference density matrix
    <r_h> [Ang]:                  [ -1.560716,  -0.065976,   0.002694]
    <r_e> [Ang]:                  [ -1.569566,  -0.073176,  -0.008074]
    |<r_e - r_h>| [Ang]:            0.015687
    Hole size [Ang]:                1.410409
      Cartesian components [Ang]: [  0.834039,   0.820036,   0.788145]
    Electron size [Ang]:            2.076379
      Cartesian components [Ang]: [  1.373649,   1.377605,   0.725702]

  Transition density matrix analysis:
  -----------------------------------
  
  CT numbers (Mulliken)
    omega =     0.9260
    <Phe> =    -0.0109
  
  Exciton analysis of the transition density matrix
    Trans. dipole moment [D]:             0.427017
      Cartesian components [D]:         [ -0.002610,   0.040777,  -0.425058]
    <r_h> [Ang]:                        [ -1.559660,  -0.065698,   0.005612]
    <r_e> [Ang]:                        [ -1.572552,  -0.075800,  -0.010984]
    |<r_e - r_h>| [Ang]:                  0.023316
    Hole size [Ang]:                      1.213248
      Cartesian components [Ang]:       [  0.636615,   0.623906,   0.823063]
    Electron size [Ang]:                  2.296634
      Cartesian components [Ang]:       [  1.518173,   1.525161,   0.802226]
    RMS electron-hole separation [Ang]:   2.587557
      Cartesian components [Ang]:       [  1.638762,   1.640856,   1.147827]
    Covariance(r_h, r_e) [Ang^2]:         0.025796
    Correlation coefficient:              0.009258
    Center-of-mass size [Ang]:            1.303657
      Cartesian components [Ang]:       [  0.826874,   0.827412,   0.575493]

  Decomposition into state-averaged NTOs
    H- 0 -> L+ 1: -0.6797 ( 92.4%)
                   omega =  92.6%
  ----------------------------------------------------------------------------


  Excited state 4 (singlet, A)                                     [converged]
  ----------------------------------------------------------------------------
  Term symbol:  5 (1) A                                     R^2 =  5.52414e-14

  Total energy:                                            -77.9580356694 a.u.
  Excitation energy:                                               9.836747 eV

  Osc. strength:                                                      0.001781
  Trans. dip. moment [a.u.]:           [  -0.062766,    0.058662,   -0.003364]
  <i|r^2|0> [a.u.]:                    [  -0.386579,   -0.000004,    0.030667]
  Two-photon absorption cross-section (SoS) [a.u.]:                 149.729322
  Two-photon absorption matrix (SoS) [a.u.]:
                                       |   -0.346721   -0.282950    3.004394 |
                                       |   -0.282950   -0.215142    3.061359 |
                                       |    3.004394    3.061359    0.555954 |
  Two-photon absorption cross-section [a.u.]:                        92.166292
  Two-photon absorption matrix [a.u.]:
                                       |   -0.348469   -0.225725    2.343249 |
                                       |   -0.225725   -0.094889    2.412153 |
                                       |    2.343249    2.412153    0.436594 |

  Dip. moment [a.u.]:                  [  -0.025803,   -0.026164,    0.013176]
  Total dipole [Debye]:                                               0.099224
  <r^2> [a.u.]:                        [ 181.089744,   40.577163,   10.748272]
  Total <r^2> [a.u.]:                                               232.415179

  V1^2 = 0.9635, V2^2 = 0.0365

  Important amplitudes:
      occ i     occ j     vir a      vir b          v   
    -----------------------------------------------------
     8 (A) A             11 (A) A                 0.6694
     7 (A) A              9 (A) A                 0.1507
     8 (A) A             21 (A) A                 0.0781
     8 (A) A             16 (A) A                -0.0643
     8 (A) A   8 (A) B    9 (A) A   13 (A) B      0.0167
     5 (A) A   8 (A) B   11 (A) A   11 (A) B      0.0155
     8 (A) A              9 (A) A                 0.0149
     8 (A) A   8 (A) B   11 (A) A   17 (A) B      0.0140
     7 (A) A             20 (A) A                 0.0138
     7 (A) A   8 (A) B   13 (A) A   11 (A) B     -0.0127
     5 (A) A   8 (A) A   11 (A) A   21 (A) A     -0.0110
     4 (A) A   8 (A) B   12 (A) A   11 (A) B      0.0110
     8 (A) A   8 (A) B    9 (A) A   22 (A) B     -0.0107
     7 (A) A   8 (A) A   11 (A) A   22 (A) A     -0.0096
     8 (A) A             12 (A) A                 0.0096
     6 (A) A   8 (A) B   15 (A) A   11 (A) B      0.0090
     6 (A) A   8 (A) B   10 (A) A   11 (A) B     -0.0090
     7 (A) A   8 (A) B   22 (A) A   11 (A) B      0.0089
     3 (A) A   4 (A) B   11 (A) A    9 (A) B      0.0083
     3 (A) A   8 (A) B   11 (A) A   18 (A) B     -0.0081
     6 (A) A   8 (A) A   11 (A) A   15 (A) A     -0.0080
     6 (A) A              9 (A) A                -0.0078
     7 (A) A   8 (A) A   13 (A) A   16 (A) A     -0.0078
     7 (A) A   8 (A) A   11 (A) A   13 (A) A      0.0077
     5 (A) A   8 (A) B   21 (A) A   11 (A) B      0.0071
     4 (A) A   8 (A) B   19 (A) A   11 (A) B      0.0070
     5 (A) A   8 (A) B    9 (A) A    9 (A) B      0.0068
     4 (A) A   8 (A) A   11 (A) A   12 (A) A     -0.0062
     6 (A) A   8 (A) A   11 (A) A   18 (A) A     -0.0062
     6 (A) A   8 (A) B   18 (A) A   11 (A) B      0.0060
     7 (A) A   8 (A) B   16 (A) A   13 (A) B      0.0057
     3 (A) A   8 (A) A   11 (A) A   18 (A) A     -0.0056
     5 (A) A   8 (A) B   10 (A) A   10 (A) B      0.0056
     3 (A) A   6 (A) B   11 (A) A   28 (A) B      0.0056
     3 (A) A   8 (A) B   11 (A) A   30 (A) B     -0.0055
     3 (A) A   5 (A) B   11 (A) A   25 (A) B     -0.0054
     6 (A) A   8 (A) B   11 (A) A   10 (A) B     -0.0054
     7 (A) A   8 (A) B   12 (A) A   10 (A) B      0.0054
     8 (A) A   8 (A) B   20 (A) A   22 (A) B     -0.0053
     3 (A) A   8 (A) A   11 (A) A   24 (A) A     -0.0053
    -----------------------------------------------------

  Density matrix analysis:
  ------------------------
  NOs
    Occupation of frontier NOs:
       0.9403   1.0282
    Number of electrons: 16.000000
    Number of unpaired electrons: n_u =  2.31909, n_u,nl =  2.04932
    NO participation ratio (PR_NO):  2.916548
  
  
  Mulliken Population Analysis
  Atom      Charge (e)              h+              e-           Del q
  --------------------------------------------------------------------
   1 H       -0.147507        0.045830       -0.243870       -0.198040
   2 C        0.274928        0.496732       -0.121665        0.375067
   3 H       -0.127017        0.046961       -0.224388       -0.177427
   4 C        0.272752        0.496754       -0.122449        0.374305
   5 H       -0.136158        0.047111       -0.233427       -0.186317
   6 H       -0.136997        0.045817       -0.233405       -0.187588
  --------------------------------------------------------------------
  Sum:        0.000000        1.179205       -1.179205        0.000000
  
  Multipole moment analysis of the density matrix
    Molecular charge:                      0.000000
    Number of electrons:                   16.000000
      Center of electronic charge [Ang]: [ -1.559723,  -0.064737,  -0.000958]
    Total nuclear charge:                  16.000000
      Center of nuclear charge [Ang]:    [ -1.560576,  -0.065602,  -0.000522]
    Dipole moment [D]:                     0.099224
      Cartesian components [D]:          [ -0.065584,  -0.066501,   0.033491]
    RMS size of the density [Ang]:         1.277009
      Cartesian components [Ang]:        [  0.858288,   0.840227,   0.433720]
  
  Exciton analysis of the difference density matrix
    <r_h> [Ang]:                  [ -1.559822,  -0.065039,   0.003277]
    <r_e> [Ang]:                  [ -1.548311,  -0.052771,  -0.007302]
    |<r_e - r_h>| [Ang]:            0.019873
    Hole size [Ang]:                1.394983
      Cartesian components [Ang]: [  0.818055,   0.807311,   0.790577]
    Electron size [Ang]:            2.123791
      Cartesian components [Ang]: [  1.436707,   1.409622,   0.677736]

  Transition density matrix analysis:
  -----------------------------------
  
  CT numbers (Mulliken)
    omega =     0.9298
    <Phe> =    -0.0137
  
  Exciton analysis of the transition density matrix
    Trans. dipole moment [D]:             0.109266
      Cartesian components [D]:         [ -0.079768,   0.074551,  -0.004275]
    <r_h> [Ang]:                        [ -1.560461,  -0.065937,   0.005194]
    <r_e> [Ang]:                        [ -1.546158,  -0.050212,  -0.008759]
    |<r_e - r_h>| [Ang]:                  0.025427
    Hole size [Ang]:                      1.228191
      Cartesian components [Ang]:       [  0.657846,   0.650690,   0.807648]
    Electron size [Ang]:                  2.261455
      Cartesian components [Ang]:       [  1.530185,   1.501509,   0.719850]
    RMS electron-hole separation [Ang]:   2.562770
      Cartesian components [Ang]:       [  1.657000,   1.628649,   1.081501]
    Covariance(r_h, r_e) [Ang^2]:         0.027744
    Correlation coefficient:              0.009989
    Center-of-mass size [Ang]:            1.292103
      Cartesian components [Ang]:       [  0.837110,   0.822132,   0.541181]

  Decomposition into state-averaged NTOs
    H- 0 -> L+ 2:  0.6646 ( 88.3%)
    H- 1 -> L+ 0: -0.1488 (  4.4%)
                   omega =  93.0%
  ----------------------------------------------------------------------------


  Excited state 5 (singlet, A)                                     [converged]
  ----------------------------------------------------------------------------
  Term symbol:  6 (1) A                                     R^2 =  2.89354e-13

  Total energy:                                            -77.9442006638 a.u.
  Excitation energy:                                              10.213216 eV

  Osc. strength:                                                      0.000036
  Trans. dip. moment [a.u.]:           [  -0.006391,   -0.009964,   -0.001775]
  <i|r^2|0> [a.u.]:                    [  -0.107763,    0.091374,   -0.031131]
  Two-photon absorption cross-section (SoS) [a.u.]:                 179.706214
  Two-photon absorption matrix (SoS) [a.u.]:
[...]
    16   -2.228862501185e-04
    17   -1.780866395066e-03
    18   -2.160758409026e-04
    19   -3.346841286240e-03
    20    1.065726354734e-02
    21    9.365221481909e-01
    22   -2.191399692216e-04
    23    1.399392837281e-02
    24    9.008340946487e-04
    25    7.040257045345e-02
    26   -5.244214899779e-02
    27   -1.401558443224e+00
    28    9.844183934698e-02
    29   -9.219571665586e-02
    30   -3.882803084991e-03
    31    3.869605746462e-01
    32   -3.610549349735e-01
    33   -1.570135883454e-02
    34    1.564309871700e-02
    35   -1.348212106997e-03
    36   -2.178664033823e-03
    37   -2.710411290928e-05
    38   -3.166215124658e-03
    39    9.654277402494e-03
    40    9.310093800057e-01
    41    2.470585682821e-04
    42   -1.391998133379e-02
    43   -1.011352274685e-03
    44    1.032503150930e-02
    45    9.443488898307e-01
    46    1.417522824388e-02
    47    4.121284516641e-04
    48    6.253877704823e-04
Sym=X
Ene= 0.233072
Spin=Alpha
Occup=0
     1    2.579360367251e-02
     2    1.230195806623e+00
     3   -1.432860029891e-02
     4   -3.800816771754e-03
     5   -2.875757476413e-04
     6    2.593784168537e-03
     7   -2.969395520317e-03
     8   -4.271635067936e-02
     9   -1.547654973347e-01
    10   -1.590236990540e-01
    11   -8.702416683191e-03
    12   -5.568009222287e-01
    13   -5.588940666450e-01
    14   -2.756585027005e-02
    15    5.205219932338e-04
    16    7.323176211774e-04
    17    2.209970568976e-04
    18   -2.354716990946e-04
    19   -3.535198274218e-04
    20   -2.536511554407e-02
    21   -1.164366418462e+00
    22   -2.528413232721e-03
    23   -1.364963256882e-02
    24   -6.448735793421e-04
    25   -1.943843437690e-03
    26    2.474449629920e-03
    27    2.480059249628e-02
    28   -1.532979507090e-01
    29   -1.596734565728e-01
    30   -1.989851130982e-02
    31   -5.459137793315e-01
    32   -5.584789680132e-01
    33   -7.358301701000e-02
    34   -3.025291919910e-04
    35    1.011131588610e-04
    36   -4.776641574775e-04
    37    3.987967874828e-04
    38    2.439618051074e-04
    39    2.507617822772e-02
    40    1.170726174268e+00
    41   -2.510337430751e-03
    42   -1.380185496263e-02
    43   -1.231304473032e-03
    44   -2.602349893507e-02
    45   -1.213670670971e+00
    46   -1.408950021739e-02
    47   -3.685528026942e-03
    48   -9.552283273950e-04
Sym=X
Ene= 0.239430
Spin=Alpha
Occup=0
     1   -1.585656770179e-02
     2   -1.063832333710e+00
     3    1.675483529195e-02
     4    9.183367853327e-03
     5    5.698265017313e-04
     6   -8.655417544567e-02
     7    7.966990833890e-02
     8    1.596628351441e+00
     9    5.438500212503e-02
    10   -5.936128250063e-02
    11   -7.349583032421e-03
    12    2.173843315782e-01
    13   -2.310852610262e-01
    14   -2.844591669864e-02
    15   -2.271046463547e-02
    16    1.486622297899e-03
    17    2.867145435095e-03
    18   -3.873372161831e-04
    19    1.292615628756e-02
    20   -1.660947623290e-02
    21   -1.117121550861e+00
    22   -8.585648235747e-03
    23   -1.766848719153e-02
    24   -1.614668603867e-03
    25    8.633021964957e-02
    26   -7.920551394051e-02
    27   -1.593857978880e+00
    28    5.421293034416e-02
    29   -6.010972495211e-02
    30    9.896113728045e-04
    31    2.136453656803e-01
    32   -2.376799378675e-01
    33    6.233180960813e-03
    34    2.261156033223e-02
    35   -2.705463527617e-03
    36   -2.548354846874e-03
    37    7.229991403797e-04
    38   -1.277332824985e-02
    39    1.679918520999e-02
    40    1.121664707866e+00
    41   -8.612391453815e-03
    42   -1.779345346147e-02
    43   -1.268853886392e-03
    44    1.568529915399e-02
    45    1.055192905673e+00
    46    1.650542585645e-02
    47    9.285393104114e-03
    48    1.348261174147e-03
Sym=X
Ene= 0.303282
Spin=Alpha
Occup=0
     1   -2.090054160055e-02
     2    1.694910294828e+00
     3   -2.293627509623e-02
     4    2.882268375211e-04
     5   -4.081982046694e-04
     6   -2.602146386452e-04
     7    1.889546296078e-04
     8    1.327349389907e-03
     9   -1.342324178398e-01
    10   -1.399751067325e-01
    11   -9.450077651628e-03
    12   -1.146937592917e+00
    13   -1.194358015849e+00
    14   -9.679349514506e-02
    15    4.545807832870e-05
    16   -8.895127242074e-05
    17    2.664556123742e-03
    18   -3.269904913963e-02
    19   -1.711297090292e-03
    20    1.975797005052e-02
    21   -1.691344606805e+00
    22    1.472605352313e-03
    23   -2.294286853676e-02
    24   -1.166577504043e-03
    25    1.568402632988e-04
    26    2.274027524279e-04
    27   -1.128120540824e-02
    28    1.345681020581e-01
    29    1.399882471188e-01
    30    1.574115006465e-02
    31    1.139010306760e+00
    32    1.197782555658e+00
    33    1.177957630068e-01
    34    7.063363398344e-05
    35   -1.870531754593e-03
    36    1.412985545058e-03
    37   -3.253167323591e-02
    38   -1.676687176837e-03
    39    1.951372609274e-02
    40   -1.690005860220e+00
    41   -1.625417141301e-03
    42    2.280894992489e-02
    43    1.175423576444e-03
    44   -2.018943886721e-02
    45    1.697993414367e+00
    46    2.304789887516e-02
    47   -3.660688032938e-04
    48    1.295574709582e-03
Sym=X
Ene= 0.462154
Spin=Alpha
Occup=0
     1   -1.140590817098e-01
     2   -7.189295008741e-01
     3   -1.563901977068e-02
     4   -1.035379980731e-02
     5   -9.516572434317e-04
     6    6.085698878760e-02
     7    1.713982713736e-02
     8   -3.591782192971e+00
     9    1.032052330379e-01
    10   -9.896042778615e-02
    11   -7.794097769141e-03
    12    2.428495387529e+00
    13   -2.302714774484e+00
    14   -3.655716289884e-02
    15    5.367071167599e-02
    16   -1.610428809421e-03
    17   -3.313521605538e-03
    18   -7.212682444390e-04
    19    1.798649908034e-02
    20   -1.205715167600e-01
    21   -7.022705108464e-01
    22    8.644879644322e-03
    23    1.638933875598e-02
    24    7.027411021033e-04
    25   -6.099294089011e-02
    26   -1.613887763311e-02
    27    3.592800352400e+00
    28    1.051840730590e-01
    29   -1.001620896627e-01
    30   -2.602204344316e-03
    31    2.424021787262e+00
    32   -2.300502984549e+00
    33   -1.303045073854e-02
    34   -5.269854278775e-02
    35    2.889301277291e-03
    36    5.662920760626e-03
    37    6.381551690584e-04
    38   -1.899159217903e-02
    39    1.157955788875e-01
    40    7.090696630891e-01
    41    8.607129131008e-03
    42    1.626275642443e-02
    43    1.591220488662e-03
    44    1.109426652823e-01
    45    7.187805408135e-01
    46   -1.541949713634e-02
    47   -9.976978890995e-03
    48   -1.411294966005e-03
Sym=X
Ene= 0.577587
Spin=Alpha
Occup=0
     1    2.458847728473e-01
     2    4.556080096430e-02
     3   -1.848589616625e-02
     4    2.560510146374e-02
     5    1.096350533298e-03
     6   -4.590097778875e-03
     7   -1.575433245177e-01
     8   -4.621963765801e-01
     9    2.985752017561e-01
    10   -2.881407650924e-01
    11   -3.022667449352e-03
    12   -7.248548504061e-01
    13    6.995404450109e-01
    14    1.930007646768e-02
    15   -5.749238218289e-03
    16    3.497882602822e-03
    17    2.924318611183e-03
    18   -4.559799062022e-03
    19    6.021840180798e-02
    20    2.551523253795e-01
    21    3.033313552689e-02
    22   -2.644893789639e-02
    23    1.648716558106e-02
    24    3.979721947482e-04
    25   -5.554652900449e-03
    26   -1.582475811972e-01
    27   -4.148758372805e-01
    28   -2.977942050514e-01
    29    2.856223720568e-01
    30    3.564141395032e-03
    31    7.596038368726e-01
    32   -7.294175388158e-01
    33   -1.405172200302e-02
    34   -5.778795075514e-03
    35    3.698539884545e-03
    36    2.973978904397e-03
    37   -3.850811964472e-03
    38    6.017195351226e-02
    39    2.502361417545e-01
    40    4.870038785321e-02
    41    2.722868794281e-02
    42   -1.708840204118e-02
    43    1.976615898226e-04
    44    2.488755609684e-01
    45    5.514560030772e-02
    46    1.848486038607e-02
    47   -2.579189831177e-02
    48   -7.206251979521e-04
Sym=X
Ene= 0.615044
Spin=Alpha
Occup=0
     1   -5.217944982725e-01
     2    1.954328673236e-01
     3   -6.120976382989e-02
     4    3.738604571833e-02
     5    4.022269804716e-04
     6   -5.636426020464e-04
     7   -3.033599566478e-04
     8   -1.637386967730e-02
     9   -4.147177764523e-02
    10   -3.868353436771e-02
    11   -5.393054363765e-03
    12    3.118691357424e-01
    13    2.793686754692e-01
    14    1.316626054705e-02
    15    2.122528714966e-03
    16   -2.623385237626e-03
    17    1.051051601860e-02
    18   -1.479049935725e-01
    19   -6.479533338432e-03
    20    5.088280894260e-01
    21   -2.057562789547e-01
    22    4.172835758064e-02
    23   -5.840660561842e-02
    24   -3.033759382453e-03
    25    4.170318276963e-04
    26   -7.439707241813e-04
    27    2.770104410944e-02
    28   -3.977916713015e-02
    29   -4.055820832050e-02
    30   -2.182728145126e-03
    31    3.037276098524e-01
    32    2.866683922970e-01
    33    4.059182344551e-02
    34   -1.500160663766e-03
    35    7.119267182539e-03
    36   -7.027644029107e-03
    37    1.490363696110e-01
    38    6.226237293126e-03
    39   -5.142711077838e-01
    40    2.080134832541e-01
    41    4.091728338742e-02
    42   -5.852876865407e-02
    43   -9.942988196207e-04
    44    5.217617592827e-01
    45   -2.037290665222e-01
    46   -6.151052836420e-02
    47    3.759567843703e-02
    48   -1.654892358920e-04
Sym=X
Ene= 0.689182
Spin=Alpha
Occup=0
     1   -2.042853436847e-03
     2    1.819735891506e-02
     3   -2.482067704850e-03
     4    2.535189283960e-04
     5   -2.141766412630e-02
     6   -9.140103672946e-05
     7   -1.072896612197e-02
     8    1.292259089504e-02
     9    1.949624270684e-02
    10    3.045155738152e-02
    11   -6.710157174235e-01
    12   -3.101573012521e-02
    13   -1.061219979164e-02
    14    6.148394985947e-01
    15    1.230089648000e-03
    16    8.257805431377e-02
    17   -7.854779723382e-02
    18   -9.322547808762e-03
    19   -1.152098073398e-03
    20    2.281913140502e-04
    21    7.407415165284e-03
    22   -3.410975253688e-04
    23    3.231725118969e-03
    24   -2.084734637958e-02
    25   -6.126206609888e-04
    26   -5.555459226636e-03
    27   -3.579689307201e-03
    28    2.782362415271e-02
    29    4.464861189261e-02
    30   -6.700547937362e-01
    31   -4.330263086650e-02
    32   -2.878949322361e-02
    33    6.131673403927e-01
    34    3.880733299535e-03
    35   -8.321483635413e-02
    36    7.819082525131e-02
    37    5.428833060999e-03
    38   -9.504589848809e-04
    39   -8.547715330064e-03
    40   -8.663125696309e-03
    41    6.216965785949e-04
    42    2.803560246265e-04
    43   -2.115263871750e-02
    44   -1.109497252242e-02
    45    2.163254085273e-03
    46    2.794485141266e-03
    47    3.241309958958e-03
    48   -2.084349697270e-02
Sym=X
Ene= 0.709275
Spin=Alpha
Occup=0
     1   -4.735657484143e-01
     2    1.505783915095e-01
     3   -8.055053563626e-02
     4   -4.425697304152e-02
     5   -4.729711227261e-03
     6   -4.746107010076e-02
     7   -3.210583781624e-01
     8    5.048174037780e-01
     9    2.027438519468e-01
    10   -1.932295147671e-01
    11    6.188832114906e-03
    12   -8.825755201942e-02
    13    7.736008322670e-02
    14   -2.146461939509e-02
    15    1.943274165976e-01
    16   -1.429292409870e-02
    17   -1.945696426700e-02
    18    3.028319194205e-03
    19   -7.777934766016e-02
    20   -4.764664177959e-01
    21    1.473413321069e-01
    22    4.121668408536e-02
    23    8.139719209771e-02
    24    4.990721109883e-03
    25   -4.714847231497e-02
    26   -3.204232811117e-01
    27    4.726697044117e-01
    28   -2.040327248757e-01
    29    1.903100794890e-01
    30    1.182522967114e-02
    31    6.990904046518e-02
    32   -5.476510231104e-02
    33   -2.208087597596e-04
    34    1.946025816909e-01
    35   -1.906066963156e-02
    36   -2.326704277004e-02
    37    2.599047924590e-03
    38   -7.595190956068e-02
    39   -4.754810570031e-01
    40    1.383553204621e-01
    41   -4.077712672978e-02
    42   -8.151034114150e-02
    43   -5.800471948411e-03
    44   -4.759739237650e-01
    45    1.491654236514e-01
    46    8.079869962997e-02
    47    4.416465827344e-02
    48    7.168558510509e-03
Sym=X
Ene= 0.784817
Spin=Alpha
Occup=0
     1   -5.279112762866e-01
     2    4.619463741007e-01
     3   -1.104382187132e-01
     4   -2.622037958753e-02
     5   -3.813710407621e-03
     6   -9.121091204270e-02
     7    2.132759631617e-01
     8    6.440148441853e-01
     9   -1.122623667494e-01
    10    1.035329906909e-01
    11    1.626980999383e-02
    12   -3.078173442207e-01
    13    2.944491784160e-01
    14   -2.992241022624e-02
    15    2.082593460916e-01
    16   -6.169448421581e-03
    17   -1.977965483304e-02
    18    1.014020631362e-03
    19   -9.784602548077e-03
    20   -5.382773324657e-01
    21    4.694790604789e-01
    22    2.068034659696e-02
    23    1.129365196812e-01
    24    6.176138448144e-03
    25    9.113796688331e-02
    26   -2.147342601152e-01
    27   -6.487332810836e-01
    28   -1.117954439538e-01
    29    1.073033380269e-01
    30   -1.833303629648e-02
    31   -3.082553448353e-01
    32    2.831474633462e-01
    33    3.757041304032e-02
    34   -2.066878376692e-01
    35    1.868968021594e-02
    36    2.294828177607e-02
    37   -2.024965768054e-03
    38    8.163160171437e-03
    39    5.393260260628e-01
    40   -4.653706454506e-01
    41    2.035617494387e-02
    42    1.126577721237e-01
    43    7.638913124977e-03
    44    5.295307320369e-01
    45   -4.627156743419e-01
    46   -1.096097625551e-01
    47   -2.643421396682e-02
    48   -7.184044688371e-03
Sym=X
Ene= 0.807949
Spin=Alpha
Occup=0
     1    1.056925885598e-02
     2    5.833114003401e-04
     3    2.319399673912e-03
     4   -3.733814379662e-03
     5    3.411503882814e-02
     6    1.886800142610e-03
     7    1.310773529795e-04
     8   -6.254703355439e-03
     9   -1.202827601498e-02
    10   -3.745601401286e-02
    11    7.639999170870e-01
    12    2.970609753116e-02
    13    4.000694059966e-02
    14   -1.128624804129e+00
    15   -7.697669361649e-03
    16    6.534387790170e-02
    17   -6.107952507475e-02
    18   -9.687513248813e-03
    19   -2.036925077694e-03
    20    1.136076759140e-02
    21   -2.947857625015e-02
    22   -1.192948503501e-03
    23   -8.397502758784e-03
    24    3.414336352029e-02
    25   -2.278794054854e-03
    26    8.787687995002e-03
    27    1.486673650819e-03
    28    4.497742460220e-02
    29    4.488785842548e-02
    30   -7.624412032455e-01
    31   -5.593077781724e-02
    32   -7.952315564486e-02
    33    1.125369390459e+00
    34    4.883418569551e-03
    35    6.502716909229e-02
    36   -6.264726414378e-02
    37   -1.901088692487e-03
    38    1.025103945532e-03
    39   -1.145606024321e-02
    40    2.674724933180e-02
    41    6.475902514069e-04
    42   -2.438246102236e-03
    43   -3.457711647372e-02
    44   -1.053400005065e-02
    45   -2.813115744802e-03
    46    2.599002135033e-03
    47    6.068861545774e-04
    48   -3.376549708828e-02
Sym=X
Ene= 0.862343
Spin=Alpha
Occup=0
     1    1.376943930872e-02
     2   -1.096048579054e+00
     3    1.487894151369e-01
     4    5.611330425591e-02
     5    5.445366882647e-03
     6    4.939760679845e-04
     7    9.218224419869e-04
     8    1.629246318416e-03
     9   -4.059145392175e-01
    10   -4.299483591478e-01
    11   -2.208165336090e-02
    12    9.483140467398e-01
    13    1.001454985962e+00
    14    5.318427152980e-02
    15   -1.994026623750e-03
    16    7.554785340214e-03
    17   -1.404445440655e-02
    18    2.357215660678e-01
    19    9.215026077397e-03
    20   -1.190197172658e-02
    21    1.102772736754e+00
    22    5.022793350857e-02
    23    1.510157824279e-01
    24    1.082434115395e-02
    25   -2.850276858430e-04
    26    3.695027913647e-03
    27   -4.820981788134e-03
    28   -4.060016724092e-01
    29   -4.301318514605e-01
    30   -5.475035561376e-02
    31    9.451249852230e-01
    32    1.002316387033e+00
    33    1.258514655641e-01
    34    1.002767572555e-03
    35   -8.528585224911e-03
    36    1.347820065028e-02
    37   -2.369463108681e-01
    38   -1.010417880907e-02
    39    1.218162827698e-02
    40   -1.103001810513e+00
    41    4.885327953984e-02
    42    1.515974151186e-01
    43    1.169941485331e-02
    44   -1.342959718776e-02
    45    1.096902960235e+00
    46    1.493702185134e-01
    47    5.565950059972e-02
    48    9.281764851709e-03
Sym=X
Ene= 0.936065
Spin=Alpha
Occup=0
     1   -1.128600208794e-01
     2    1.277652288300e+00
     3   -1.811601375987e-01
     4    6.116077314062e-03
     5   -4.243558421461e-03
     6   -3.281179815398e-04
     7   -6.723308830773e-03
     8    1.205223174689e-03
     9    4.711245020470e-01
    10    5.028432101758e-01
    11    3.939104256091e-02
    12   -1.463382277862e+00
    13   -1.551998500973e+00
    14   -1.233173455345e-01
    15    2.052558731255e-04
    16   -3.647245445151e-04
    17    6.144755626295e-03
    18   -1.213120869475e-01
    19   -8.318511826477e-04
    20    1.163648255148e-01
    21   -1.294698803823e+00
    22    1.114981479490e-02
    23   -1.837672725268e-01
    24   -8.555604078744e-03
    25    2.292919039506e-04
    26   -3.646160620809e-03
    27    9.716788755941e-03
    28   -4.762710306542e-01
    29   -4.952688450358e-01
    30   -4.987869200527e-02
    31    1.476727997073e+00
    32    1.528016893642e+00
    33    1.528478998621e-01
    34   -1.451344387536e-03
    35   -9.886363339020e-03
    36    5.730457253190e-03
    37   -1.199055286463e-01
    38   -5.515098901685e-03
    39    1.160556466796e-01
    40   -1.279025000843e+00
    41   -1.359868769661e-02
    42    1.819214376498e-01
    43    9.247067746346e-03
    44   -1.138441786686e-01
    45    1.286914272064e+00
    46    1.814480834489e-01
    47   -5.339648477612e-03
    48    9.765631901667e-03
Sym=X
Ene= 0.972558
Spin=Alpha
Occup=0
     1   -6.430675290691e-02
     2    9.344566197506e-01
     3   -9.219216149613e-02
     4   -9.853899533855e-02
     5   -5.630162361911e-03
     6    2.518341535535e-02
     7    2.491917250762e-01
     8    5.242772025921e-01
     9    4.832849419394e-01
    10   -4.504859356014e-01
    11   -1.479851016846e-02
    12   -1.506388061820e+00
    13    1.393812289018e+00
    14    4.064797203623e-02
    15   -5.304485298473e-02
    16   -9.983340663131e-03
    17   -9.500194501062e-03
    18    1.217443020166e-02
    19   -3.010582991867e-01
    20   -6.312341178567e-02
    21    8.983368860032e-01
    22    9.522976073569e-02
    23    9.157286888471e-02
    24    1.077240773299e-02
    25   -2.510566711696e-02
    26   -2.425341893882e-01
    27   -5.351750492314e-01
    28    4.761179306197e-01
    29   -4.578644013205e-01
    30   -2.392458340510e-03
    31   -1.476182927689e+00
    32    1.428012226404e+00
    33    7.661130655582e-03
    34    5.226978931301e-02
    35    1.047221212747e-02
    36    8.564888229749e-03
    37   -1.425679650726e-02
    38    2.995949832911e-01
    39    6.204230043023e-02
    40   -9.192826996839e-01
    41    9.448373698457e-02
    42    9.430342492748e-02
    43    9.135595339290e-03
    44    6.705952941048e-02
    45   -9.078314688117e-01
    46   -8.893721855224e-02
    47   -9.816233033820e-02
    48   -8.959078155331e-03
[5D]

======= END OF MOLDEN-FORMATTED INPUT FILE =======


        *************************************************************
        *                                                           *
        *  Thank you very much for using Q-Chem.  Have a nice day.  *
        *                                                           *
        *************************************************************


