                  Welcome to Q-Chem
     A Quantum Leap Into The Future Of Chemistry


 Q-Chem 5.4 (devel), Q-Chem, Inc., Pleasanton, CA (2021)

 E. Epifanovsky,  A. T. B. Gilbert,  Xintian Feng,  Joonho Lee,  Yuezhi Mao,  
 N. Mardirossian,  P. Pokhilko,  A. White,  M. Wormit,  M. P. Coons,  
 A. L. Dempwolff,  Zhengting Gan,  D. Hait,  P. R. Horn,  L. D. Jacobson,  
 I. Kaliman,  J. Kussmann,  A. W. Lange,  Ka Un Lao,  D. S. Levine,  Jie Liu,  
 S. C. McKenzie,  A. F. Morrison,  K. Nanda,  F. Plasser,  D. R. Rehn,  
 M. L. Vidal,  Zhi-Qiang You,  Ying Zhu,  B. Alam,  B. Albrecht,  
 A. Aldossary,  E. Alguire,  J. H. Andersen,  D. Barton,  K. Begam,  A. Behn,  
 Y. A. Bernard,  E. J. Berquist,  H. Burton,  A. Carreras,  K. Carter-Fenk,  
 R. Chakraborty,  A. D. Chien,  K. D. Closser,  V. Cofer-Shabica,  
 S. Dasgupta,  Jia Deng,  M. de Wergifosse,  M. Diedenhofen,  Hainam Do,  
 S. Ehlert,  Po-Tung Fang,  S. Fatehi,  Qingguo Feng,  T. Friedhoff,  
 J. Gayvert,  Qinghui Ge,  G. Gidofalvi,  M. Goldey,  J. Gomes,  
 C. Gonzalez-Espinoza,  S. Gulania,  A. Gunina,  M. W. D. Hanson-Heine,  
 P. H. P. Harbach,  A. W. Hauser,  M. F. Herbst,  M. Hernandez Vera,  
 M. Hodecker,  Z. C. Holden,  S. Houck,  Xunkun Huang,  Kerwin Hui,  
 B. C. Huynh,  M. Ivanov,  Hyunjun Ji,  Hanjie Jiang,  B. Kaduk,  S. Kaehler,  
 K. Khistyaev,  Jaehoon Kim,  P. Klunzinger,  Z. Koczor-Benda,  
 Joong Hoon Koh,  D. Kosenkov,  L. Koulias,  T. Kowalczyk,  C. M. Krauter,  
 K. Kue,  A. Kunitsa,  T. Kus,  A. Landau,  K. V. Lawler,  D. Lefrancois,  
 S. Lehtola,  Rain Li,  Yi-Pei Li,  Jiashu Liang,  M. Liebenthal,  
 Hung-Hsuan Lin,  You-Sheng Lin,  Fenglai Liu,  Kuan-Yu Liu,  
 M. Loipersberger,  A. Luenser,  A. Manjanath,  P. Manohar,  E. Mansoor,  
 S. F. Manzer,  Shan-Ping Mao,  A. V. Marenich,  T. Markovich,  S. Mason,  
 S. A. Maurer,  P. F. McLaughlin,  M. F. S. J. Menger,  J.-M. Mewes,  
 S. A. Mewes,  P. Morgante,  J. W. Mullinax,  K. J. Oosterbaan,  G. Paran,  
 Alexander C. Paul,  Suranjan K. Paul,  F. Pavosevic,  Zheng Pei,  S. Prager,  
 E. I. Proynov,  E. Ramos,  B. Rana,  A. E. Rask,  A. Rettig,  R. M. Richard,  
 F. Rob,  E. Rossomme,  T. Scheele,  M. Scheurer,  M. Schneider,  
 N. Sergueev,  S. M. Sharada,  W. Skomorowski,  D. W. Small,  C. J. Stein,  
 Yu-Chuan Su,  E. J. Sundstrom,  Zhen Tao,  J. Thirman,  T. Tsuchimochi,  
 N. M. Tubman,  S. P. Veccham,  O. Vydrov,  J. Wenzel,  J. Witte,  A. Yamada,  
 Kun Yao,  S. Yeganeh,  S. R. Yost,  A. Zech,  Igor Ying Zhang,  Xing Zhang,  
 Yu Zhang,  D. Zuev,  A. Aspuru-Guzik,  A. T. Bell,  N. A. Besley,  
 K. B. Bravaya,  B. R. Brooks,  D. Casanova,  Jeng-Da Chai,  S. Coriani,  
 C. J. Cramer,  A. E. DePrince, III,  R. A. DiStasio Jr.,  A. Dreuw,  
 B. D. Dunietz,  T. R. Furlani,  W. A. Goddard III,  S. Grimme,  
 S. Hammes-Schiffer,  T. Head-Gordon,  W. J. Hehre,  Chao-Ping Hsu,  
 T.-C. Jagau,  Yousung Jung,  A. Klamt,  Jing Kong,  D. S. Lambrecht,  
 WanZhen Liang,  N. J. Mayhall,  C. W. McCurdy,  J. B. Neaton,  
 C. Ochsenfeld,  J. A. Parkhill,  R. Peverati,  V. A. Rassolov,  Yihan Shao,  
 L. V. Slipchenko,  T. Stauch,  R. P. Steele,  J. E. Subotnik,  
 A. J. W. Thom,  A. Tkatchenko,  D. G. Truhlar,  T. Van Voorhis,  
 T. A. Wesolowski,  K. B. Whaley,  H. L. Woodcock III,  P. M. Zimmerman,  
 S. Faraji,  P. M. W. Gill,  M. Head-Gordon,  J. M. Herbert,  A. I. Krylov

 Additional authors for Version 5.4.1: 
 S. Kotaru,  Shaozhi Li,  Xiangyuan Li,  F. Matz,  A. Molle,  Haisheng Ren,  
 Yingli Su,  Hung-Yi Tsai,  C. Utku,  Fang Wang

 Contributors to earlier versions of Q-Chem not listed above: 
 R. D. Adamson,  B. Austin,  R. Baer,  J. Baker,  G. J. O. Beran,  
 K. Brandhorst,  S. T. Brown,  E. F. C. Byrd,  A. K. Chakraborty,  
 G. K. L. Chan,  Chun-Min Chang,  Yunqing Chen,  C.-L. Cheng,  
 Siu Hung Chien,  D. M. Chipman,  D. L. Crittenden,  H. Dachsel,  
 R. J. Doerksen,  A. D. Dutoi,  R. G. Edgar,  J. Fosso-Tande,  
 L. Fusti-Molnar,  D. Ghosh,  A. Ghysels,  A. Golubeva-Zadorozhnaya,  
 J. Gonthier,  M. S. Gordon,  S. R. Gwaltney,  G. Hawkins,  J. E. Herr,  
 A. Heyden,  S. Hirata,  E. G. Hohenstein,  G. Kedziora,  F. J. Keil,  
 C. Kelley,  Jihan Kim,  R. A. King,  R. Z. Khaliullin,  P. P. Korambath,  
 W. Kurlancheek,  A. Laurent,  A. M. Lee,  M. S. Lee,  S. V. Levchenko,  
 Ching Yeh Lin,  D. Liotard,  E. Livshits,  R. C. Lochan,  I. Lotan,  
 L. A. Martinez-Martinez,  P. E. Maslen,  N. Nair,  D. P. O'Neill,  
 D. Neuhauser,  E. Neuscamman,  C. M. Oana,  R. Olivares-Amaya,  R. Olson,  
 T. M. Perrine,  B. Peters,  P. A. Pieniazek,  A. Prociuk,  Y. M. Rhee,  
 J. Ritchie,  M. A. Rohrdanz,  E. Rosta,  N. J. Russ,  H. F. Schaefer III,  
 M. W. Schmidt,  N. E. Schultz,  S. Sharma,  N. Shenvi,  C. D. Sherrill,  
 A. C. Simmonett,  A. Sodt,  T. Stein,  D. Stuck,  K. S. Thanthiriwatte,  
 V. Vanovschi,  L. Vogt,  Tao Wang,  A. Warshel,  M. A. Watson,  
 C. F. Williams,  Q. Wu,  X. Xu,  Jun Yang,  W. Zhang,  Yan Zhao

 Please cite Q-Chem as follows:
 Y. Shao et al., Mol. Phys. 113, 184-215 (2015)
 DOI: 10.1080/00268976.2014.952696

 Q-Chem 5.4.1 for Intel X86 EM64T Linux

 Parts of Q-Chem use Armadillo 9.800.1 (Horizon Scraper).
 http://arma.sourceforge.net/

 Q-Chem begins on Mon Mar 20 18:11:38 2023  

 Host: cpu186.baobab
0

     Scratch files written to /scratch/fum/qchem70021//
 Processing $rem in /home/share/wesolowski/qc5.aug2021.FDE/config/preferences:
 Processing $rem in /home/fum/.qchemrc:

 Checking the input file for inconsistencies... 	...done.

--------------------------------------------------------------
User input:
--------------------------------------------------------------
$comment
generated from CCJob.Templates
$end

$rem
sym_ignore = true
method = adc(2)
ee_states = 10
basis = cc-pVDZ
mem_static = 1024
mem_total = 40000
adc_davidson_maxiter = 900
adc_davidson_conv = 6
adc_print = 3
adc_prop_es = true
adc_prop_es2es = true
adc_prop_tpa = true
molden_format = True
state_analysis = true
print_orbitals = 15
gen_scfman = false
fde_export_density = true
fde_details = 3
$end

$molecule
0 1
H -0.011105011658308715 -0.2207831360122811 0.06299434449498587
C -1.0308417690318579 -0.47795247775955835 -0.0019563002464684006
H -1.2749408507866422 -1.582384588177013 -0.07514241753607885
C -2.0354232372755985 0.40058688094577377 0.006274919773526684
H -1.8314229716428008 1.4672405630978658 0.07939004304396077
H -3.095229872871074 0.10563895133334535 -0.05864806718713413                     
$end
--------------------------------------------------------------
 ----------------------------------------------------------------
             Standard Nuclear Orientation (Angstroms)
    I     Atom           X                Y                Z
 ----------------------------------------------------------------
    1      H      -0.0111050117    -0.2207831360     0.0629943445
    2      C      -1.0308417690    -0.4779524778    -0.0019563002
    3      H      -1.2749408508    -1.5823845882    -0.0751424175
    4      C      -2.0354232373     0.4005868809     0.0062749198
    5      H      -1.8314229716     1.4672405631     0.0793900430
    6      H      -3.0952298729     0.1056389513    -0.0586480672
 ----------------------------------------------------------------
 Nuclear Repulsion Energy =          33.20334708 hartrees
 There are        8 alpha and        8 beta electrons
 Requested basis set is cc-pVDZ
 There are 24 shells and 48 basis functions
 Total memory of 40000 MB is distributed as follows: 
   MEM_STATIC is set to 1024 MB
   QALLOC/CCMAN JOB total memory use is  38976 MB
 Warning: actual memory use might exceed 40000 MB

 Total QAlloc Memory Limit  40000 MB
 Mega-Array Size      1001 MB
 MEM_STATIC part      1024 MB

                       Distance Matrix (Angstroms)
             H (  1)   C (  2)   H (  3)   C (  4)   H (  5)
   C (  2)  1.053669
   H (  3)  1.862880  1.133451
   C (  4)  2.118297  1.334572  2.125356
   H (  5)  2.482589  2.105071  3.103831  1.088445
   H (  6)  3.103736  2.146041  2.482569  1.101998  1.862853

 A cutoff of  1.0D-11 yielded    300 shell pairs
 There are      1220 function pairs (      1329 Cartesian)
 Smallest overlap matrix eigenvalue = 4.82E-03

 Scale SEOQF with 1.000000e-01/1.000000e-01/1.000000e+00

 Standard Electronic Orientation quadrupole field applied
 Nucleus-field energy     =     0.0000000021 hartrees
 Guess from superposition of atomic densities
 Warning:  Energy on first SCF cycle will be non-variational
 SAD guess density has 16.000000 electrons
 A restricted Hartree-Fock SCF calculation will be
 performed using Pulay DIIS extrapolation
 SCF converges when DIIS error is below 1.0E-08
 using 10 threads for integral computing
 -------------------------------------------------------
 OpenMP Integral computing Module                
 Release: version 1.0, May 2013, Q-Chem Inc. Pittsburgh 
 -------------------------------------------------------
 ---------------------------------------
  Cycle       Energy         DIIS Error
 ---------------------------------------
    1     -78.3955367369      9.93E-02
    2     -78.0149458933      7.13E-03
    3     -78.0354451372      1.83E-03
    4     -78.0369250022      5.62E-04
    5     -78.0370421887      5.89E-05
    6     -78.0370440812      1.02E-05
    7     -78.0370441463      3.44E-06
    8     -78.0370441510      1.13E-06
    9     -78.0370441516      9.78E-08
   10     -78.0370441516      2.00E-08
   11     -78.0370441516      6.58E-09 Convergence criterion met
 ---------------------------------------
 SCF time:  CPU 2.10 s  wall 3.64 s
 SCF   energy in the final basis set = -78.03704415
 Total energy in the final basis set = -78.03704415
Exporting Density Matrix to file 'Densmat_SCF.txt'.
Export successful
================================================================================
|                                                                              |
|                                 A D C  M A N                                 |
|                                                                              |
 ------------------------------------------------------------------------------ 
|                                                                              |
| Components:                                                                  |
|                                                                              |
| - libvmm - 1.3-trunk                                                         |
|   Authors:                                                                   |
|   Evgeny Epifanovsky, Ilya Kaliman                                           |
|                                                                              |
| - libtensor - 2.5-trunk                                                      |
|   Authors:                                                                   |
|   Evgeny Epifanovsky, Michael Wormit, Dmitry Zuev, Sam Manzer,               |
|   Ilya Kaliman                                                               |
|                                                                              |
| - libwfa - 1.1-trunk                                                         |
|   Authors:                                                                   |
|   Felix Plasser, Stefanie Mewes (Baeppler), Benjamin Thomitzni,              |
|   Michael Wormit, Feng Chen, Anna I. Krylov, Pavel Pokhilko                  |
|                                                                              |
| - libadc - 1.1-trunk                                                         |
|   Authors:                                                                   |
|   Michael Wormit, Adrian L. Dempwolff, Philipp H. P. Harbach,                |
|   Caroline Krauter, Dirk Rehn, Matthias Schneider, Jan Wenzel                |
|                                                                              |
| - adcman - 2.6-trunk                                                         |
|   Authors:                                                                   |
|   Michael Wormit, Adrian L. Dempwolff, Philipp H. P. Harbach,                |
|   Caroline Krauter, Daniel Lefrancois, Jan-Michael Mewes, Dirk Rehn,         |
|   Matthias Schneider, Jan Wenzel, Andreas Dreuw                              |
|                                                                              |
| Authors of earlier versions of ADCMAN:                                       |
| Andreas Dreuw, Jan Hendrik Starcke, Dirk Rehn, Michael Wormit                |
|                                                                              |
================================================================================

 Created directory /scratch/fum/qchem70021/plots
  Import QC data ...  CPU 0.00 s  wall 0.00 s

 Alpha MOs, Restricted
 -- Occupied --                  
-11.239 -11.238  -1.030  -0.787  -0.635  -0.583  -0.498  -0.374
  1 A     2 A     3 A     4 A     5 A     6 A     7 A     8 A                  
 -- Virtual --                   
  0.168   0.202   0.231   0.236   0.302   0.462   0.580   0.609
  9 A    10 A    11 A    12 A    13 A    14 A    15 A    16 A                  
  0.689   0.705   0.774   0.807   0.859   0.926   0.972   1.007
 17 A    18 A    19 A    20 A    21 A    22 A    23 A    24 A                  
  1.130   1.232   1.244   1.261   1.293   1.591   1.726   1.745
 25 A    26 A    27 A    28 A    29 A    30 A    31 A    32 A                  
  1.810   1.850   1.851   1.904   1.951   1.983   2.223   2.246
 33 A    34 A    35 A    36 A    37 A    38 A    39 A    40 A                  
  2.358   2.422   2.495   2.615   2.664   2.822   3.098   3.380
 41 A    42 A    43 A    44 A    45 A    46 A    47 A    48 A                  

 Beta MOs, Restricted
 -- Occupied --                  
-11.239 -11.238  -1.030  -0.787  -0.635  -0.583  -0.498  -0.374
  1 A     2 A     3 A     4 A     5 A     6 A     7 A     8 A                  
 -- Virtual --                   
  0.168   0.202   0.231   0.236   0.302   0.462   0.580   0.609
  9 A    10 A    11 A    12 A    13 A    14 A    15 A    16 A                  
  0.689   0.705   0.774   0.807   0.859   0.926   0.972   1.007
 17 A    18 A    19 A    20 A    21 A    22 A    23 A    24 A                  
  1.130   1.232   1.244   1.261   1.293   1.591   1.726   1.745
 25 A    26 A    27 A    28 A    29 A    30 A    31 A    32 A                  
  1.810   1.850   1.851   1.904   1.951   1.983   2.223   2.246
 33 A    34 A    35 A    36 A    37 A    38 A    39 A    40 A                  
  2.358   2.422   2.495   2.615   2.664   2.822   3.098   3.380
 41 A    42 A    43 A    44 A    45 A    46 A    47 A    48 A                  
  Import AO data ...  CPU 0.00 s  wall 0.00 s
  Using point group: C1
  Irreducible representations in point group: A
  Molecular orbitals: 
  Occupied MOs:
  Block   0:   1 (  A) A   2 (  A) A   3 (  A) A   4 (  A) A   5 (  A) A
                  -11.24      -11.24       -1.03     -0.7872     -0.6354
               6 (  A) A   7 (  A) A   8 (  A) A
                 -0.5832     -0.4976     -0.3743
  Block   1:   1 (  A) B   2 (  A) B   3 (  A) B   4 (  A) B   5 (  A) B
                  -11.24      -11.24       -1.03     -0.7872     -0.6354
               6 (  A) B   7 (  A) B   8 (  A) B
                 -0.5832     -0.4976     -0.3743
  Virtual MOs:
  Block   0:   9 (  A) A  10 (  A) A  11 (  A) A  12 (  A) A  13 (  A) A
                  0.1675       0.202      0.2311      0.2364      0.3025
              14 (  A) A  15 (  A) A  16 (  A) A  17 (  A) A  18 (  A) A
                  0.4623      0.5802      0.6089      0.6886       0.705
              19 (  A) A  20 (  A) A  21 (  A) A  22 (  A) A
                  0.7744      0.8071      0.8588      0.9258
  Block   1:  23 (  A) A  24 (  A) A  25 (  A) A  26 (  A) A  27 (  A) A
                  0.9722       1.007        1.13       1.232       1.244
              28 (  A) A  29 (  A) A  30 (  A) A  31 (  A) A  32 (  A) A
                   1.261       1.293       1.591       1.726       1.745
              33 (  A) A  34 (  A) A  35 (  A) A  36 (  A) A
                    1.81        1.85       1.851       1.904
  Block   2:  37 (  A) A  38 (  A) A  39 (  A) A  40 (  A) A  41 (  A) A
                   1.951       1.983       2.223       2.246       2.358
              42 (  A) A  43 (  A) A  44 (  A) A  45 (  A) A  46 (  A) A
                   2.422       2.495       2.615       2.664       2.822
              47 (  A) A  48 (  A) A
                   3.098        3.38
  Block   3:   9 (  A) B  10 (  A) B  11 (  A) B  12 (  A) B  13 (  A) B
                  0.1675       0.202      0.2311      0.2364      0.3025
              14 (  A) B  15 (  A) B  16 (  A) B  17 (  A) B  18 (  A) B
                  0.4623      0.5802      0.6089      0.6886       0.705
              19 (  A) B  20 (  A) B  21 (  A) B  22 (  A) B
                  0.7744      0.8071      0.8588      0.9258
  Block   4:  23 (  A) B  24 (  A) B  25 (  A) B  26 (  A) B  27 (  A) B
                  0.9722       1.007        1.13       1.232       1.244
              28 (  A) B  29 (  A) B  30 (  A) B  31 (  A) B  32 (  A) B
                   1.261       1.293       1.591       1.726       1.745
              33 (  A) B  34 (  A) B  35 (  A) B  36 (  A) B
                    1.81        1.85       1.851       1.904
  Block   5:  37 (  A) B  38 (  A) B  39 (  A) B  40 (  A) B  41 (  A) B
                   1.951       1.983       2.223       2.246       2.358
              42 (  A) B  43 (  A) B  44 (  A) B  45 (  A) B  46 (  A) B
                   2.422       2.495       2.615       2.664       2.822
              47 (  A) B  48 (  A) B
                   3.098        3.38
  Import MO data ...  CPU 0.01 s  wall 0.01 s
  Import HF data ...  CPU 0.42 s  wall 0.14 s
  Import 2e integrals ...  CPU 1.02 s  wall 0.20 s

--------------------------------------------------------------------------------
                                   HF Summary                                   
--------------------------------------------------------------------------------
  Energy:                                                  -78.0370441516 a.u.
  Dip. moment [a.u.]:                  [   0.006710,    0.011970,    0.003223]
  Total dipole [Debye]:                                               0.035827
  <r^2> [a.u.]:                        [ 172.545576,   34.430388,   11.679766]
  Total <r^2> [a.u.]:                                               218.655730
--------------------------------------------------------------------------------
  HF properties ...  CPU 0.03 s  wall 0.01 s
  MP(1) calculation ...  CPU 0.01 s  wall 0.01 s
  N^6 prerequesite intermediates ...  CPU 0.58 s  wall 0.10 s
  Difference density matrix of state mp2_gs printed to ASCII file 'State_mp2_gs_Difference.txt'
Exporting MP density matrix to file 'Densmat_MP.txt'.
Export successful
  Total density matrix of state mp2_gs printed to ASCII file 'State_mp2_gs_Total.txt'
Exporting MP density matrix to file 'Densmat_MP.txt'.
Export successful

--------------------------------------------------------------------------------
                                 MP(2) Summary                                  
--------------------------------------------------------------------------------
  MP energy contribution:                                   -0.2805967535 a.u.
  Total energy:                                            -78.3176409051 a.u.
  Dip. moment [a.u.]:                  [   0.005015,    0.009345,    0.002962]
  Total dipole [Debye]:                                               0.027989
  <r^2> [a.u.]:                        [ 172.589077,   34.450185,   11.506095]
  Total <r^2> [a.u.]:                                               218.545357

  Density matrix analysis:
  ------------------------
  NOs
    Occupation of frontier NOs:
       0.0456   1.9379
    Number of electrons: 16.000000
    Number of unpaired electrons: n_u =  0.40781, n_u,nl =  0.04598
    NO participation ratio (PR_NO): 13.880152
  
  
  Mulliken Population Analysis
  Atom      Charge (e)              h+              e-           Del q
  --------------------------------------------------------------------
   1 H        0.047259        0.014255       -0.011300        0.002955
   2 C       -0.105771        0.094819       -0.100015       -0.005196
   3 H        0.058739        0.013878       -0.011321        0.002557
   4 C       -0.111112        0.094565       -0.100061       -0.005496
   5 H        0.052332        0.014148       -0.011258        0.002890
   6 H        0.058553        0.013664       -0.011373        0.002290
  --------------------------------------------------------------------
  Sum:        0.000000        0.245328       -0.245328       -0.000000
  
  Multipole moment analysis of the density matrix
    Molecular charge:                      0.000000
    Number of electrons:                   16.000000
      Center of electronic charge [Ang]: [ -1.538309,  -0.043714,   0.002059]
    Total nuclear charge:                  16.000000
      Center of nuclear charge [Ang]:    [ -1.538143,  -0.043405,   0.002157]
    Dipole moment [D]:                     0.027989
      Cartesian components [D]:          [  0.012746,   0.023753,   0.007528]
    RMS size of the density [Ang]:         1.206907
      Cartesian components [Ang]:        [  0.808840,   0.775260,   0.448746]
  
  Exciton analysis of the difference density matrix
    <r_h> [Ang]:                  [ -1.542889,  -0.050616,   0.001089]
    <r_e> [Ang]:                  [ -1.539233,  -0.044955,   0.001652]
    |<r_e - r_h>| [Ang]:            0.006762
    Hole size [Ang]:                1.403048
      Cartesian components [Ang]: [  0.854320,   0.840669,   0.729353]
    Electron size [Ang]:            1.361751
      Cartesian components [Ang]: [  0.889261,   0.854320,   0.577683]
--------------------------------------------------------------------------------
  MP(2) calculation ...  CPU 0.37 s  wall 0.28 s
  Start ADC(2)-s ...  CPU 0.02 s  wall 0.01 s
  ADC(2) intermediates ...  CPU 0.04 s  wall 0.01 s
  Starting Davidson for singlet states of irrep A ... 
--------------------------------------------------------------------------------
   It NVec Conv  Avg. Norm  Max. Norm  Conv. states           Remark
--------------------------------------------------------------------------------
        10    0  1.329e-01  4.692e-01  0.4103 n n n n n n n n Guess.
    1   20    0  2.519e-02  1.380e-01  0.3258 n n n n n n n n 
    2   30    0  6.748e-03  4.106e-02  0.3210 n n n n n n n n 
    3   40    0  2.422e-03  1.849e-02  0.3206 n n n n n n n n 
    4   50    0  8.276e-04  6.949e-03  0.3205 n n n n n n n n 
    5   20    0  5.730e-04  5.273e-03  0.3205 n n n n n n n n Subspace collapsed.
    6   30    0  9.855e-04  9.756e-03  0.3205 n n n n n n n n 
    7   40    0  8.158e-04  8.088e-03  0.3205 n n n n n n n n 
    8   50    0  6.358e-04  6.331e-03  0.3205 n n n n n n n n 
    9   20    0  3.921e-04  3.907e-03  0.3205 n n n n n n n n Subspace collapsed.
   10   30    2  2.217e-04  2.206e-03  0.3205 n n y y n n n n 
   11   40    4  1.172e-04  1.167e-03  0.3205 n y y y y n n n 
   12   50    6  1.027e-04  1.025e-03  0.3205 y y y y y y n n 
   13   20    6  7.184e-05  7.173e-04  0.3205 y y y y y y n n Subspace collapsed.
   14   30    6  1.320e-04  1.319e-03  0.3205 y y y y y y n n 
   15   40    6  1.111e-04  1.110e-03  0.3205 y y y y y y n n 
   16   50    6  9.376e-05  9.372e-04  0.3205 y y y y y y n n 
   17   20    6  4.549e-05  4.547e-04  0.3205 y y y y y y n n Subspace collapsed.
   18   30    6  3.602e-05  3.601e-04  0.3205 y y y y y y n n 
   19   40    6  1.394e-05  1.394e-04  0.3205 y y y y y y n n 
   20   50    7  1.536e-05  1.535e-04  0.3205 y y y y y y y n 
   21   20    8  1.050e-05  1.050e-04  0.3205 y y y y y y y y Subspace collapsed.
   22   30    8  1.759e-05  1.758e-04  0.3205 y y y y y y y y 
   23   40    8  1.755e-05  1.755e-04  0.3205 y y y y y y y y 
   24   49    8  1.248e-05  1.248e-04  0.3205 y y y y y y y y 
   25   49    8  1.248e-05  1.248e-04  0.3205 y y y y y y y y 
   26   50    8  1.162e-05  1.162e-04  0.3205 y y y y y y y y 
   27   18    9  6.366e-06  6.366e-05  0.3205 y y y y y y y y Subspace collapsed.
   28   24    9  4.213e-06  4.212e-05  0.3205 y y y y y y y y 
   29   29    9  2.753e-06  2.753e-05  0.3205 y y y y y y y y 
   30   34    9  2.486e-06  2.486e-05  0.3205 y y y y y y y y 
   31   34    9  2.486e-06  2.486e-05  0.3205 y y y y y y y y 
   32   44    9  1.981e-06  1.981e-05  0.3205 y y y y y y y y 
   33   48    9  2.119e-06  2.118e-05  0.3205 y y y y y y y y 
   34   50    9  1.709e-06  1.709e-05  0.3205 y y y y y y y y 
   35   14    9  1.084e-06  1.084e-05  0.3205 y y y y y y y y Subspace collapsed.
   36   18    9  8.540e-07  8.539e-06  0.3205 y y y y y y y y 
   37   22    9  5.279e-07  5.279e-06  0.3205 y y y y y y y y 
   38   26    9  4.948e-07  4.947e-06  0.3205 y y y y y y y y 
   39   30    9  4.587e-07  4.587e-06  0.3205 y y y y y y y y 
   40   34    9  4.416e-07  4.416e-06  0.3205 y y y y y y y y 
   41   38    9  3.759e-07  3.759e-06  0.3205 y y y y y y y y 
   42   42    9  2.422e-07  2.422e-06  0.3205 y y y y y y y y 
   43   46    9  1.799e-07  1.799e-06  0.3205 y y y y y y y y 
   44   50    9  1.109e-07  1.109e-06  0.3205 y y y y y y y y 
   45   14   10  4.458e-08  4.458e-07  0.3205 y y y y y y y y Converged.
--------------------------------------------------------------------------------
  Davidson Summary: 
 ------------------------------------------------------------
  State  0: excitation energy =   0.3205 a.u.   (converged)
  State  1: excitation energy =   0.3267 a.u.   (converged)
  State  2: excitation energy =   0.3347 a.u.   (converged)
  State  3: excitation energy =   0.3586 a.u.   (converged)
  State  4: excitation energy =   0.3736 a.u.   (converged)
  State  5: excitation energy =   0.3873 a.u.   (converged)
  State  6: excitation energy =   0.4181 a.u.   (converged)
  State  7: excitation energy =   0.4430 a.u.   (converged)
  State  8: excitation energy =   0.4531 a.u.   (converged)
  State  9: excitation energy =   0.4574 a.u.   (converged)
 ------------------------------------------------------------

  Singlet states of irrep A ...  CPU 256.61 s  wall 81.36 s
  TDMs ...  CPU 1.96 s  wall 0.78 s
  SDMs ...  CPU 5.67 s  wall 1.69 s
  Starting TPA DIIS iterations ... 
------------------------------------ 
   It     Res. Norm  Remark
------------------------------------
                       Guess.
    1     4.606e+00  
    2     6.100e+00  
    3     1.100e+00  
    4     2.513e-01  
    5     6.537e-02  
    6     2.625e-02  
    7     8.369e-03  
    8     1.410e-03  
    9     5.488e-04  
   10     9.348e-05  
   11     2.890e-05  
   12     5.007e-06  
   13     1.807e-06  
   14     5.947e-07  Converged.
   ... Converged in 14 steps (norm: 5.9465e-07)
------------------------------------
  Starting TPA DIIS iterations ... 
------------------------------------ 
   It     Res. Norm  Remark
------------------------------------
                       Guess.
    1     3.986e+00  
    2     5.299e+00  
    3     1.027e+00  
    4     2.746e-01  
    5     6.571e-02  
    6     2.926e-02  
    7     8.442e-03  
    8     1.721e-03  
    9     6.411e-04  
   10     1.049e-04  
   11     3.587e-05  
   12     5.503e-06  
   13     2.094e-06  
   14     5.746e-07  Converged.
   ... Converged in 14 steps (norm: 5.74584e-07)
------------------------------------
  Starting TPA DIIS iterations ... 
------------------------------------ 
   It     Res. Norm  Remark
------------------------------------
                       Guess.
    1     6.881e-01  
    2     4.846e-01  
    3     1.698e-01  
    4     6.877e-02  
    5     1.882e-02  
    6     7.107e-03  
    7     1.558e-03  
    8     4.647e-04  
    9     3.041e-04  
   10     8.901e-05  
   11     4.530e-05  
   12     1.191e-05  
   13     7.043e-06  
   14     3.191e-06  
   15     8.811e-07  Converged.
   ... Converged in 15 steps (norm: 8.81073e-07)
------------------------------------
  Starting TPA DIIS iterations ... 
------------------------------------ 
   It     Res. Norm  Remark
------------------------------------
                       Guess.
    1     4.760e+00  
    2     6.374e+00  
    3     1.143e+00  
    4     2.655e-01  
    5     6.958e-02  
    6     2.806e-02  
    7     8.941e-03  
    8     1.505e-03  
    9     5.888e-04  
   10     1.006e-04  
   11     3.130e-05  
   12     5.457e-06  
   13     1.990e-06  
   14     6.530e-07  Converged.
   ... Converged in 14 steps (norm: 6.52971e-07)
------------------------------------
  Starting TPA DIIS iterations ... 
------------------------------------ 
   It     Res. Norm  Remark
------------------------------------
                       Guess.
    1     4.118e+00  
    2     5.537e+00  
    3     1.067e+00  
    4     2.899e-01  
    5     6.995e-02  
    6     3.134e-02  
    7     9.030e-03  
    8     1.843e-03  
    9     6.883e-04  
   10     1.129e-04  
   11     3.881e-05  
   12     5.981e-06  
   13     2.301e-06  
   14     6.285e-07  Converged.
   ... Converged in 14 steps (norm: 6.28496e-07)
------------------------------------
  Starting TPA DIIS iterations ... 
------------------------------------ 
   It     Res. Norm  Remark
------------------------------------
                       Guess.
    1     6.945e-01  
    2     4.936e-01  
    3     1.749e-01  
    4     7.334e-02  
    5     1.960e-02  
    6     7.443e-03  
    7     1.663e-03  
    8     4.947e-04  
    9     3.273e-04  
   10     9.837e-05  
   11     4.964e-05  
   12     1.321e-05  
   13     7.968e-06  
   14     3.681e-06  
   15     1.005e-06  
   16     2.593e-07  Converged.
   ... Converged in 16 steps (norm: 2.59259e-07)
------------------------------------
  Starting TPA DIIS iterations ... 
------------------------------------ 
   It     Res. Norm  Remark
------------------------------------
                       Guess.
    1     4.975e+00  
    2     6.762e+00  
    3     1.202e+00  
    4     2.859e-01  
    5     7.561e-02  
    6     3.065e-02  
    7     9.759e-03  
    8     1.640e-03  
    9     6.464e-04  
   10     1.109e-04  
   11     3.480e-05  
   12     6.117e-06  
   13     2.265e-06  
   14     7.394e-07  Converged.
   ... Converged in 14 steps (norm: 7.39429e-07)
------------------------------------
  Starting TPA DIIS iterations ... 
------------------------------------ 
   It     Res. Norm  Remark
------------------------------------
                       Guess.
    1     4.302e+00  
    2     5.873e+00  
    3     1.121e+00  
    4     3.119e-01  
    5     7.602e-02  
    6     3.434e-02  
    7     9.875e-03  
    8     2.017e-03  
    9     7.563e-04  
   10     1.245e-04  
   11     4.309e-05  
   12     6.678e-06  
   13     2.610e-06  
   14     7.085e-07  Converged.
   ... Converged in 14 steps (norm: 7.08483e-07)
------------------------------------
  Starting TPA DIIS iterations ... 
------------------------------------ 
   It     Res. Norm  Remark
------------------------------------
                       Guess.
    1     7.029e-01  
    2     5.060e-01  
    3     1.818e-01  
    4     7.996e-02  
    5     2.068e-02  
    6     7.919e-03  
    7     1.815e-03  
    8     5.378e-04  
    9     3.608e-04  
   10     1.123e-04  
   11     5.607e-05  
   12     1.519e-05  
   13     9.410e-06  
   14     4.447e-06  
   15     1.191e-06  
   16     2.996e-07  Converged.
   ... Converged in 16 steps (norm: 2.99641e-07)
------------------------------------
  Starting TPA DIIS iterations ... 
------------------------------------ 
   It     Res. Norm  Remark
------------------------------------
                       Guess.
    1     5.723e+00  
    2     8.151e+00  
    3     1.408e+00  
    4     3.614e-01  
    5     9.795e-02  
    6     4.037e-02  
    7     1.280e-02  
    8     2.144e-03  
    9     8.636e-04  
   10     1.496e-04  
   11     4.842e-05  
   12     8.699e-06  
   13     3.397e-06  
   14     1.092e-06  
   15     5.777e-07  Converged.
   ... Converged in 15 steps (norm: 5.77709e-07)
------------------------------------
  Starting TPA DIIS iterations ... 
------------------------------------ 
   It     Res. Norm  Remark
------------------------------------
                       Guess.
    1     4.944e+00  
    2     7.077e+00  
    3     1.309e+00  
    4     3.936e-01  
    5     9.856e-02  
    6     4.566e-02  
    7     1.302e-02  
    8     2.665e-03  
    9     1.012e-03  
   10     1.683e-04  
   11     5.949e-05  
   12     9.369e-06  
   13     3.876e-06  
   14     1.038e-06  
   15     5.703e-07  Converged.
   ... Converged in 15 steps (norm: 5.70336e-07)
------------------------------------
  Starting TPA DIIS iterations ... 
------------------------------------ 
   It     Res. Norm  Remark
------------------------------------
                       Guess.
    1     7.296e-01  
    2     5.468e-01  
    3     2.055e-01  
    4     1.051e-01  
    5     2.449e-02  
    6     9.653e-03  
    7     2.384e-03  
    8     7.033e-04  
    9     4.873e-04  
   10     1.685e-04  
   11     8.223e-05  
   12     2.384e-05  
   13     1.610e-05  
   14     7.886e-06  
   15     1.957e-06  
   16     4.896e-07  Converged.
   ... Converged in 16 steps (norm: 4.89587e-07)
------------------------------------
  Starting TPA DIIS iterations ... 
------------------------------------ 
   It     Res. Norm  Remark
------------------------------------
                       Guess.
    1     6.288e+00  
    2     9.237e+00  
    3     1.562e+00  
    4     4.228e-01  
    5     1.161e-01  
    6     4.838e-02  
    7     1.528e-02  
    8     2.554e-03  
    9     1.044e-03  
   10     1.818e-04  
   11     6.013e-05  
   12     1.092e-05  
   13     4.446e-06  
   14     1.418e-06  
   15     8.079e-07  Converged.
   ... Converged in 15 steps (norm: 8.07891e-07)
------------------------------------
  Starting TPA DIIS iterations ... 
------------------------------------ 
   It     Res. Norm  Remark
------------------------------------
                       Guess.
    1     5.430e+00  
    2     8.018e+00  
    3     1.451e+00  
    4     4.600e-01  
    5     1.169e-01  
    6     5.503e-02  
    7     1.560e-02  
    8     3.194e-03  
    9     1.224e-03  
   10     2.045e-04  
   11     7.327e-05  
   12     1.165e-05  
   13     5.033e-06  
   14     1.351e-06  
   15     7.991e-07  Converged.
   ... Converged in 15 steps (norm: 7.99089e-07)
------------------------------------
  Starting TPA DIIS iterations ... 
------------------------------------ 
   It     Res. Norm  Remark
------------------------------------
                       Guess.
    1     7.473e-01  
    2     5.755e-01  
    3     2.227e-01  
    4     1.260e-01  
    5     2.744e-02  
    6     1.103e-02  
    7     2.850e-03  
    8     8.459e-04  
    9     5.922e-04  
   10     2.191e-04  
   11     1.060e-04  
   12     3.246e-05  
   13     2.325e-05  
   14     1.124e-05  
   15     2.669e-06  
   16     6.886e-07  Converged.
   ... Converged in 16 steps (norm: 6.88556e-07)
------------------------------------
  Starting TPA DIIS iterations ... 
------------------------------------ 
   It     Res. Norm  Remark
------------------------------------
                       Guess.
    1     6.889e+00  
    2     1.042e+01  
    3     1.725e+00  
    4     4.918e-01  
    5     1.365e-01  
    6     5.746e-02  
    7     1.806e-02  
    8     3.013e-03  
    9     1.249e-03  
   10     2.185e-04  
   11     7.383e-05  
   12     1.352e-05  
   13     5.751e-06  
   14     1.834e-06  
   15     1.110e-06  
   16     4.479e-07  Converged.
   ... Converged in 16 steps (norm: 4.47885e-07)
------------------------------------
  Starting TPA DIIS iterations ... 
------------------------------------ 
   It     Res. Norm  Remark
------------------------------------
                       Guess.
    1     5.947e+00  
    2     9.048e+00  
    3     1.600e+00  
    4     5.347e-01  
    5     1.376e-01  
    6     6.571e-02  
    7     1.851e-02  
    8     3.791e-03  
    9     1.464e-03  
   10     2.457e-04  
   11     8.901e-05  
   12     1.427e-05  
   13     6.452e-06  
   14     1.761e-06  
   15     1.098e-06  
   16     4.263e-07  Converged.
   ... Converged in 16 steps (norm: 4.26301e-07)
------------------------------------
  Starting TPA DIIS iterations ... 
------------------------------------ 
   It     Res. Norm  Remark
------------------------------------
                       Guess.
    1     7.643e-01  
    2     6.045e-01  
    3     2.406e-01  
    4     1.496e-01  
    5     3.067e-02  
    6     1.254e-02  
    7     3.375e-03  
    8     1.015e-03  
    9     7.120e-04  
   10     2.804e-04  
   11     1.352e-04  
   12     4.393e-05  
   13     3.313e-05  
   14     1.545e-05  
   15     3.577e-06  
   16     9.663e-07  Converged.
   ... Converged in 16 steps (norm: 9.6631e-07)
------------------------------------
  Starting TPA DIIS iterations ... 
------------------------------------ 
   It     Res. Norm  Remark
------------------------------------
                       Guess.
    1     8.634e+00  
    2     1.405e+01  
    3     2.193e+00  
    4     7.117e-01  
    5     2.015e-01  
    6     8.686e-02  
    7     2.695e-02  
    8     4.477e-03  
    9     1.920e-03  
   10     3.380e-04  
   11     1.199e-04  
   12     2.219e-05  
   13     1.070e-05  
   14     3.584e-06  
   15     2.347e-06  
   16     1.087e-06  
   17     6.282e-07  Converged.
   ... Converged in 17 steps (norm: 6.2823e-07)
------------------------------------
  Starting TPA DIIS iterations ... 
------------------------------------ 
   It     Res. Norm  Remark
------------------------------------
                       Guess.
    1     7.450e+00  
    2     1.219e+01  
    3     2.026e+00  
    4     7.721e-01  
    5     2.036e-01  
    6     1.005e-01  
    7     2.781e-02  
    8     5.702e-03  
    9     2.245e-03  
   10     3.790e-04  
   11     1.394e-04  
   12     2.296e-05  
   13     1.169e-05  
   14     3.556e-06  
   15     2.333e-06  
   16     1.033e-06  
   17     6.007e-07  Converged.
   ... Converged in 17 steps (norm: 6.00742e-07)
------------------------------------
  Starting TPA DIIS iterations ... 
------------------------------------ 
   It     Res. Norm  Remark
------------------------------------
                       Guess.
    1     8.059e-01  
    2     6.813e-01  
    3     2.899e-01  
    4     2.232e-01  
    5     4.061e-02  
    6     1.708e-02  
    7     5.031e-03  
    8     1.612e-03  
    9     1.104e-03  
   10     5.004e-04  
   11     2.426e-04  
   12     9.155e-05  
   13     7.438e-05  
   14     3.121e-05  
   15     7.273e-06  
   16     2.261e-06  
   17     6.817e-07  Converged.
   ... Converged in 17 steps (norm: 6.81738e-07)
------------------------------------
  Starting TPA DIIS iterations ... 
------------------------------------ 
   It     Res. Norm  Remark
------------------------------------
                       Guess.
    1     1.063e+01  
    2     1.847e+01  
    3     2.714e+00  
    4     9.907e-01  
    5     2.845e-01  
    6     1.252e-01  
    7     3.832e-02  
    8     6.349e-03  
    9     2.807e-03  
   10     4.939e-04  
   11     1.815e-04  
   12     3.367e-05  
   13     1.850e-05  
   14     6.931e-06  
   15     4.492e-06  
   16     2.268e-06  
   17     1.186e-06  
   18     5.708e-07  Converged.
   ... Converged in 18 steps (norm: 5.7083e-07)
------------------------------------
  Starting TPA DIIS iterations ... 
------------------------------------ 
   It     Res. Norm  Remark
------------------------------------
                       Guess.
    1     9.170e+00  
    2     1.603e+01  
    3     2.502e+00  
    4     1.072e+00  
    5     2.881e-01  
    6     1.463e-01  
    7     3.975e-02  
    8     8.156e-03  
    9     3.266e-03  
   10     5.516e-04  
   11     2.029e-04  
   12     3.507e-05  
   13     1.964e-05  
   14     6.924e-06  
   15     4.613e-06  
   16     2.136e-06  
   17     1.094e-06  
   18     4.955e-07  Converged.
   ... Converged in 18 steps (norm: 4.95469e-07)
------------------------------------
  Starting TPA DIIS iterations ... 
------------------------------------ 
   It     Res. Norm  Remark
------------------------------------
                       Guess.
    1     8.435e-01  
    2     7.597e-01  
    3     3.425e-01  
    4     3.078e-01  
    5     5.277e-02  
    6     2.220e-02  
    7     7.078e-03  
    8     2.458e-03  
    9     1.623e-03  
   10     8.177e-04  
   11     4.029e-04  
   12     1.674e-04  
   13     1.359e-04  
   14     5.495e-05  
   15     1.370e-05  
   16     4.588e-06  
   17     1.224e-06  
   18     4.236e-07  Converged.
   ... Converged in 18 steps (norm: 4.2362e-07)
------------------------------------
  Starting TPA DIIS iterations ... 
------------------------------------ 
   It     Res. Norm  Remark
------------------------------------
                       Guess.
    1     1.165e+01  
    2     2.085e+01  
    3     2.978e+00  
    4     1.143e+00  
    5     3.303e-01  
    6     1.467e-01  
    7     4.460e-02  
    8     7.383e-03  
    9     3.307e-03  
   10     5.808e-04  
   11     2.160e-04  
   12     4.008e-05  
   13     2.337e-05  
   14     9.303e-06  
   15     5.950e-06  
   16     3.089e-06  
   17     1.532e-06  
   18     7.376e-07  Converged.
   ... Converged in 18 steps (norm: 7.37632e-07)
------------------------------------
  Starting TPA DIIS iterations ... 
------------------------------------ 
   It     Res. Norm  Remark
------------------------------------
                       Guess.
    1     1.006e+01  
    2     1.810e+01  
    3     2.741e+00  
    4     1.234e+00  
    5     3.348e-01  
    6     1.721e-01  
    7     4.636e-02  
    8     9.516e-03  
    9     3.838e-03  
   10     6.474e-04  
   11     2.380e-04  
   12     4.237e-05  
   13     2.448e-05  
   14     9.212e-06  
   15     6.233e-06  
   16     2.914e-06  
   17     1.406e-06  
   18     6.556e-07  Converged.
   ... Converged in 18 steps (norm: 6.55556e-07)
------------------------------------
  Starting TPA DIIS iterations ... 
------------------------------------ 
   It     Res. Norm  Remark
------------------------------------
                       Guess.
    1     8.601e-01  
    2     7.972e-01  
    3     3.682e-01  
    4     3.486e-01  
    5     5.926e-02  
    6     2.469e-02  
    7     8.168e-03  
    8     2.947e-03  
    9     1.916e-03  
   10     1.003e-03  
   11     4.996e-04  
   12     2.129e-04  
   13     1.694e-04  
   14     6.931e-05  
   15     1.798e-05  
   16     6.043e-06  
   17     1.585e-06  
   18     5.568e-07  Converged.
   ... Converged in 18 steps (norm: 5.56786e-07)
------------------------------------
  Starting TPA DIIS iterations ... 
------------------------------------ 
   It     Res. Norm  Remark
------------------------------------
                       Guess.
    1     1.213e+01  
    2     2.199e+01  
    3     3.100e+00  
    4     1.216e+00  
    5     3.523e-01  
    6     1.571e-01  
    7     4.762e-02  
    8     7.882e-03  
    9     3.550e-03  
   10     6.228e-04  
   11     2.328e-04  
   12     4.319e-05  
   13     2.585e-05  
   14     1.056e-05  
   15     6.727e-06  
   16     3.532e-06  
   17     1.709e-06  
   18     8.184e-07  Converged.
   ... Converged in 18 steps (norm: 8.18364e-07)
------------------------------------
  Starting TPA DIIS iterations ... 
------------------------------------ 
   It     Res. Norm  Remark
------------------------------------
                       Guess.
    1     1.047e+01  
    2     1.909e+01  
    3     2.852e+00  
    4     1.312e+00  
    5     3.573e-01  
    6     1.845e-01  
    7     4.955e-02  
    8     1.017e-02  
    9     4.115e-03  
   10     6.935e-04  
   11     2.551e-04  
   12     4.605e-05  
   13     2.691e-05  
   14     1.041e-05  
   15     7.096e-06  
   16     3.333e-06  
   17     1.568e-06  
   18     7.368e-07  Converged.
   ... Converged in 18 steps (norm: 7.3681e-07)
------------------------------------
  Starting TPA DIIS iterations ... 
------------------------------------ 
   It     Res. Norm  Remark
------------------------------------
                       Guess.
    1     8.673e-01  
    2     8.142e-01  
    3     3.800e-01  
    4     3.666e-01  
    5     6.235e-02  
    6     2.580e-02  
    7     8.684e-03  
    8     3.187e-03  
    9     2.059e-03  
   10     1.094e-03  
   11     5.479e-04  
   12     2.353e-04  
   13     1.848e-04  
   14     7.652e-05  
   15     2.021e-05  
   16     6.770e-06  
   17     1.776e-06  
   18     6.278e-07  Converged.
   ... Converged in 18 steps (norm: 6.27836e-07)
------------------------------------
  Two-photon absorbption ...  CPU 172.38 s  wall 47.72 s
  Transition density matrix of state singlet_A_1 printed to ASCII file 'State_singlet_A_1_Transition.txt'
  Transition density matrix of state singlet_A_2 printed to ASCII file 'State_singlet_A_2_Transition.txt'
  Transition density matrix of state singlet_A_3 printed to ASCII file 'State_singlet_A_3_Transition.txt'
  Transition density matrix of state singlet_A_4 printed to ASCII file 'State_singlet_A_4_Transition.txt'
  Transition density matrix of state singlet_A_5 printed to ASCII file 'State_singlet_A_5_Transition.txt'
  Transition density matrix of state singlet_A_6 printed to ASCII file 'State_singlet_A_6_Transition.txt'
  Transition density matrix of state singlet_A_7 printed to ASCII file 'State_singlet_A_7_Transition.txt'
  Transition density matrix of state singlet_A_8 printed to ASCII file 'State_singlet_A_8_Transition.txt'
  Transition density matrix of state singlet_A_9 printed to ASCII file 'State_singlet_A_9_Transition.txt'
  Transition density matrix of state singlet_A_10 printed to ASCII file 'State_singlet_A_10_Transition.txt'
  Transition properties ...  CPU 0.42 s  wall 0.68 s
  Difference density matrix of state singlet_A_1 printed to ASCII file 'State_singlet_A_1_Difference.txt'
  Total density matrix of state singlet_A_1 printed to ASCII file 'State_singlet_A_1_Total.txt'
  Difference density matrix of state singlet_A_2 printed to ASCII file 'State_singlet_A_2_Difference.txt'
  Total density matrix of state singlet_A_2 printed to ASCII file 'State_singlet_A_2_Total.txt'
  Difference density matrix of state singlet_A_3 printed to ASCII file 'State_singlet_A_3_Difference.txt'
  Total density matrix of state singlet_A_3 printed to ASCII file 'State_singlet_A_3_Total.txt'
  Difference density matrix of state singlet_A_4 printed to ASCII file 'State_singlet_A_4_Difference.txt'
  Total density matrix of state singlet_A_4 printed to ASCII file 'State_singlet_A_4_Total.txt'
  Difference density matrix of state singlet_A_5 printed to ASCII file 'State_singlet_A_5_Difference.txt'
  Total density matrix of state singlet_A_5 printed to ASCII file 'State_singlet_A_5_Total.txt'
  Difference density matrix of state singlet_A_6 printed to ASCII file 'State_singlet_A_6_Difference.txt'
  Total density matrix of state singlet_A_6 printed to ASCII file 'State_singlet_A_6_Total.txt'
  Difference density matrix of state singlet_A_7 printed to ASCII file 'State_singlet_A_7_Difference.txt'
  Total density matrix of state singlet_A_7 printed to ASCII file 'State_singlet_A_7_Total.txt'
  Difference density matrix of state singlet_A_8 printed to ASCII file 'State_singlet_A_8_Difference.txt'
  Total density matrix of state singlet_A_8 printed to ASCII file 'State_singlet_A_8_Total.txt'
  Difference density matrix of state singlet_A_9 printed to ASCII file 'State_singlet_A_9_Difference.txt'
  Total density matrix of state singlet_A_9 printed to ASCII file 'State_singlet_A_9_Total.txt'
  Difference density matrix of state singlet_A_10 printed to ASCII file 'State_singlet_A_10_Difference.txt'
  Total density matrix of state singlet_A_10 printed to ASCII file 'State_singlet_A_10_Total.txt'
  Properties ...  CPU 1.82 s  wall 1.98 s
  ISR TDMS ...  CPU 33.86 s  wall 10.83 s
  ISR transition properties ...  CPU 0.55 s  wall 0.26 s
  Sum-over-states TPA ...  CPU 0.00 s  wall 0.00 s

--------------------------------------------------------------------------------
                   State-averaged natural transition orbitals
--------------------------------------------------------------------------------
--------------------------------------------------------------------------------
  SA-NTO decomposition ...  CPU 0.01 s  wall 0.04 s

--------------------------------------------------------------------------------
                             Excited State Summary
--------------------------------------------------------------------------------
--------------------------------------------------------------------------------

  Excited state 1 (singlet, A)                                     [converged]
  ----------------------------------------------------------------------------
  Term symbol:  2 (1) A                                     R^2 =  8.96770e-14

  Total energy:                                            -77.9971055309 a.u.
  Excitation energy:                                               8.722211 eV

  Osc. strength:                                                      0.446400
  Trans. dip. moment [a.u.]:           [   1.068701,   -0.973015,   -0.011298]
  <i|r^2|0> [a.u.]:                    [   6.252455,   -0.208509,    0.000774]
  Two-photon absorption cross-section (SoS) [a.u.]:                   0.052365
  Two-photon absorption matrix (SoS) [a.u.]:
                                       |    0.053737   -0.004821    0.001914 |
                                       |   -0.004821   -0.094610   -0.002024 |
                                       |    0.001914   -0.002024   -0.006928 |
  Two-photon absorption cross-section [a.u.]:                         0.057947
  Two-photon absorption matrix [a.u.]:
                                       |    0.072290   -0.001224    0.000314 |
                                       |   -0.001224   -0.093818   -0.000620 |
                                       |    0.000314   -0.000620   -0.006976 |

  Dip. moment [a.u.]:                  [   0.003648,    0.007287,    0.003277]
  Total dipole [Debye]:                                               0.022325
  <r^2> [a.u.]:                        [ 173.386465,   35.077682,   11.914906]
  Total <r^2> [a.u.]:                                               220.379053

  V1^2 = 0.9713, V2^2 = 0.0287

  Important amplitudes:
      occ i     occ j     vir a      vir b          v   
    -----------------------------------------------------
     8 (A) A              9 (A) A                 0.6808
     6 (A) A             14 (A) A                -0.0612
     4 (A) A             10 (A) A                 0.0607
     7 (A) A             16 (A) A                -0.0566
     5 (A) A             13 (A) A                -0.0521
     6 (A) A             23 (A) A                -0.0455
     8 (A) A             20 (A) A                 0.0349
     6 (A) A             19 (A) A                -0.0291
     3 (A) A             12 (A) A                -0.0284
     5 (A) A             22 (A) A                 0.0197
     7 (A) A             11 (A) A                 0.0191
     4 (A) A             24 (A) A                 0.0186
     8 (A) A   8 (A) B   17 (A) A   20 (A) B     -0.0184
     8 (A) A   8 (A) B    9 (A) A   28 (A) B     -0.0166
     7 (A) A             21 (A) A                 0.0159
     3 (A) A             26 (A) A                -0.0153
     3 (A) A             14 (A) A                -0.0143
     6 (A) A             26 (A) A                -0.0142
     6 (A) A             22 (A) A                 0.0140
     6 (A) A             12 (A) A                 0.0135
     3 (A) A   4 (A) B    9 (A) A    9 (A) B     -0.0129
     3 (A) A             19 (A) A                -0.0119
     8 (A) A   8 (A) B   18 (A) A   19 (A) B      0.0109
     3 (A) A             27 (A) A                 0.0106
     5 (A) A             23 (A) A                 0.0101
     6 (A) A             13 (A) A                -0.0095
     7 (A) A             32 (A) A                 0.0095
     7 (A) A             10 (A) A                -0.0086
     7 (A) A             36 (A) A                -0.0083
     6 (A) A             16 (A) A                -0.0082
     5 (A) A             10 (A) A                 0.0080
     5 (A) A             14 (A) A                 0.0079
     3 (A) A             23 (A) A                -0.0078
     6 (A) A             27 (A) A                 0.0078
     8 (A) A   8 (A) B   25 (A) A   29 (A) B      0.0074
     7 (A) A             23 (A) A                 0.0070
     6 (A) A             40 (A) A                 0.0065
     3 (A) A   6 (A) B    9 (A) A   28 (A) B     -0.0063
     5 (A) A             27 (A) A                -0.0062
     5 (A) A             19 (A) A                 0.0061
    -----------------------------------------------------

  Density matrix analysis:
  ------------------------
  NOs
    Occupation of frontier NOs:
       0.9488   1.0222
    Number of electrons: 16.000000
    Number of unpaired electrons: n_u =  2.31703, n_u,nl =  2.03347
    NO participation ratio (PR_NO):  2.876390
  
  
  Mulliken Population Analysis
  Atom      Charge (e)              h+              e-           Del q
  --------------------------------------------------------------------
   1 H        0.055245        0.020365       -0.012379        0.007987
   2 C       -0.121191        0.490627       -0.506047       -0.015420
   3 H        0.066477        0.020449       -0.012712        0.007737
   4 C       -0.127318        0.490311       -0.506517       -0.016206
   5 H        0.059593        0.019958       -0.012698        0.007261
   6 H        0.067194        0.020811       -0.012170        0.008641
  --------------------------------------------------------------------
  Sum:        0.000000        1.062522       -1.062522        0.000000
  
  Multipole moment analysis of the density matrix
    Molecular charge:                      0.000000
    Number of electrons:                   16.000000
      Center of electronic charge [Ang]: [ -1.538264,  -0.043646,   0.002048]
    Total nuclear charge:                  16.000000
      Center of nuclear charge [Ang]:    [ -1.538143,  -0.043405,   0.002157]
    Dipole moment [D]:                     0.022325
      Cartesian components [D]:          [  0.009273,   0.018522,   0.008329]
    RMS size of the density [Ang]:         1.220189
      Cartesian components [Ang]:        [  0.817507,   0.782315,   0.456649]
  
  Exciton analysis of the difference density matrix
    <r_h> [Ang]:                  [ -1.534959,  -0.040790,   0.001301]
    <r_e> [Ang]:                  [ -1.534278,  -0.039764,   0.001144]
    |<r_e - r_h>| [Ang]:            0.001240
    Hole size [Ang]:                1.287441
      Cartesian components [Ang]: [  0.740239,   0.704581,   0.783018]
    Electron size [Ang]:            1.463882
      Cartesian components [Ang]: [  0.871891,   0.813569,   0.849035]

  Transition density matrix analysis:
  -----------------------------------
  
  CT numbers (Mulliken)
    omega =     0.9531
    <Phe> =    -0.1604
  
  Exciton analysis of the transition density matrix
    Trans. dipole moment [D]:             1.836843
      Cartesian components [D]:         [  1.358183,  -1.236578,  -0.014358]
    <r_h> [Ang]:                        [ -1.533580,  -0.039991,   0.001620]
    <r_e> [Ang]:                        [ -1.534597,  -0.040178,   0.000922]
    |<r_e - r_h>| [Ang]:                  0.001248
    Hole size [Ang]:                      1.214838
      Cartesian components [Ang]:       [  0.659541,   0.627900,   0.804101]
    Electron size [Ang]:                  1.486578
      Cartesian components [Ang]:       [  0.883159,   0.821374,   0.869074]
    RMS electron-hole separation [Ang]:   1.937132
      Cartesian components [Ang]:       [  1.131300,   1.050650,   1.169945]
    Covariance(r_h, r_e) [Ang^2]:        -0.033365
    Correlation coefficient:             -0.018475
    Center-of-mass size [Ang]:            0.951186
      Cartesian components [Ang]:       [  0.536211,   0.508419,   0.598950]

  Decomposition into state-averaged NTOs
    H- 0 -> L+ 0:  0.6695 ( 89.7%)
    H- 2 -> L+ 5:  0.0826 (  1.4%)
                   omega =  95.3%
  ----------------------------------------------------------------------------


  Excited state 2 (singlet, A)                                     [converged]
  ----------------------------------------------------------------------------
  Term symbol:  3 (1) A                                     R^2 =  4.97232e-13

  Total energy:                                            -77.9909840037 a.u.
  Excitation energy:                                               8.888786 eV

  Osc. strength:                                                      0.001519
  Trans. dip. moment [a.u.]:           [  -0.005477,   -0.005513,    0.083150]
  <i|r^2|0> [a.u.]:                    [  -0.072170,   -0.105591,    0.144245]
  Two-photon absorption cross-section (SoS) [a.u.]:                   5.165263
  Two-photon absorption matrix (SoS) [a.u.]:
                                       |   -0.042443   -0.054952    0.478083 |
                                       |   -0.054952   -0.092301    0.634095 |
                                       |    0.478083    0.634095    0.116204 |
  Two-photon absorption cross-section [a.u.]:                         0.523026
  Two-photon absorption matrix [a.u.]:
                                       |    0.012111    0.010651    0.059955 |
                                       |    0.010651    0.002190   -0.247493 |
                                       |    0.059955   -0.247493   -0.025019 |

  Dip. moment [a.u.]:                  [   0.067341,    0.078045,    0.012207]
  Total dipole [Debye]:                                               0.263839
  <r^2> [a.u.]:                        [ 172.922942,   33.286680,   13.076970]
  Total <r^2> [a.u.]:                                               219.286592

  V1^2 = 0.9545, V2^2 = 0.0455

  Important amplitudes:
      occ i     occ j     vir a      vir b          v   
    -----------------------------------------------------
     7 (A) A              9 (A) A                 0.6504
     8 (A) A             10 (A) A                -0.1576
     8 (A) A             11 (A) A                 0.1474
     7 (A) A             20 (A) A                 0.0739
     5 (A) A   8 (A) B    9 (A) A    9 (A) B     -0.0299
     8 (A) A             16 (A) A                 0.0292
     8 (A) A             21 (A) A                 0.0192
     6 (A) A              9 (A) A                -0.0178
     5 (A) A             28 (A) A                -0.0139
     4 (A) A   7 (A) B    9 (A) A   19 (A) B      0.0130
     5 (A) A   7 (A) B    9 (A) A   16 (A) B     -0.0126
     7 (A) A   8 (A) B   20 (A) A   17 (A) B     -0.0102
     7 (A) A   8 (A) A    9 (A) A   28 (A) A      0.0092
     5 (A) A   8 (A) B    9 (A) A   20 (A) B     -0.0090
     8 (A) A             24 (A) A                -0.0089
     5 (A) A   6 (A) A    9 (A) A   14 (A) A     -0.0085
     5 (A) A   6 (A) A    9 (A) A   23 (A) A     -0.0084
     8 (A) A             18 (A) A                 0.0084
     4 (A) A   6 (A) B    9 (A) A   16 (A) B      0.0084
     8 (A) A   7 (A) B    9 (A) A   28 (A) B     -0.0083
     3 (A) A              9 (A) A                -0.0081
     4 (A) A   5 (A) A    9 (A) A   10 (A) A     -0.0080
     3 (A) A   7 (A) B    9 (A) A   18 (A) B      0.0077
     5 (A) A   6 (A) B    9 (A) A   19 (A) B     -0.0077
     6 (A) A   7 (A) B    9 (A) A   18 (A) B     -0.0076
     5 (A) A   7 (A) A    9 (A) A   16 (A) A     -0.0074
     4 (A) A   8 (A) B    9 (A) A   25 (A) B     -0.0073
     7 (A) A   8 (A) B   17 (A) A   20 (A) B     -0.0072
     5 (A) A   6 (A) B    9 (A) A   23 (A) B     -0.0071
     4 (A) A   7 (A) B   19 (A) A    9 (A) B      0.0071
     7 (A) A   8 (A) B   19 (A) A   18 (A) B      0.0069
     5 (A) A   5 (A) B    9 (A) A   13 (A) B     -0.0068
     5 (A) A   8 (A) A    9 (A) A   20 (A) A     -0.0065
     4 (A) A   5 (A) B    9 (A) A   18 (A) B      0.0065
     7 (A) A   8 (A) B   17 (A) A    9 (A) B     -0.0063
     7 (A) A   7 (A) B   20 (A) A   22 (A) B     -0.0062
     5 (A) A   6 (A) B    9 (A) A   14 (A) B     -0.0060
     8 (A) A             19 (A) A                -0.0060
     4 (A) A   7 (A) A    9 (A) A   19 (A) A      0.0059
     5 (A) A   7 (A) B   11 (A) A   20 (A) B     -0.0059
    -----------------------------------------------------

  Density matrix analysis:
  ------------------------
  NOs
    Occupation of frontier NOs:
       0.9064   1.1027
    Number of electrons: 16.000000
    Number of unpaired electrons: n_u =  2.35726, n_u,nl =  2.10373
    NO participation ratio (PR_NO):  3.333799
  
  
  Mulliken Population Analysis
  Atom      Charge (e)              h+              e-           Del q
  --------------------------------------------------------------------
   1 H        0.122363        0.082961       -0.007856        0.075104
   2 C       -0.268808        0.282220       -0.445257       -0.163036
   3 H        0.147649        0.156732       -0.067822        0.088910
   4 C       -0.281177        0.272770       -0.442835       -0.170065
   5 H        0.173856        0.131133       -0.009609        0.121523
   6 H        0.106117        0.101407       -0.053843        0.047564
  --------------------------------------------------------------------
  Sum:        0.000000        1.027222       -1.027222       -0.000000
  
  Multipole moment analysis of the density matrix
    Molecular charge:                      0.000000
    Number of electrons:                   16.000000
      Center of electronic charge [Ang]: [ -1.540370,  -0.045986,   0.001753]
    Total nuclear charge:                  16.000000
      Center of nuclear charge [Ang]:    [ -1.538143,  -0.043405,   0.002157]
    Dipole moment [D]:                     0.263839
      Cartesian components [D]:          [  0.171164,   0.198371,   0.031026]
    RMS size of the density [Ang]:         1.209565
      Cartesian components [Ang]:        [  0.808529,   0.761880,   0.478401]
  
  Exciton analysis of the difference density matrix
    <r_h> [Ang]:                  [ -1.562894,  -0.096724,  -0.001958]
    <r_e> [Ang]:                  [ -1.595002,  -0.132115,  -0.006720]
    |<r_e - r_h>| [Ang]:            0.048022
    Hole size [Ang]:                1.492477
      Cartesian components [Ang]: [  0.925202,   1.065212,   0.486633]
    Electron size [Ang]:            1.523162
      Cartesian components [Ang]: [  0.919576,   0.899665,   0.815477]

  Transition density matrix analysis:
  -----------------------------------
  
  CT numbers (Mulliken)
    omega =     0.9215
    <Phe> =    -0.0108
  
  Exciton analysis of the transition density matrix
    Trans. dipole moment [D]:             0.106133
      Cartesian components [D]:         [ -0.006961,  -0.007006,   0.105673]
    <r_h> [Ang]:                        [ -1.563334,  -0.098634,  -0.001813]
    <r_e> [Ang]:                        [ -1.595958,  -0.132828,  -0.007086]
    |<r_e - r_h>| [Ang]:                  0.047554
    Hole size [Ang]:                      1.507953
      Cartesian components [Ang]:       [  0.930410,   1.087195,   0.475675]
    Electron size [Ang]:                  1.522190
      Cartesian components [Ang]:       [  0.916360,   0.890904,   0.826824]
    RMS electron-hole separation [Ang]:   2.127730
      Cartesian components [Ang]:       [  1.292420,   1.395918,   0.953047]
    Covariance(r_h, r_e) [Ang^2]:         0.033005
    Correlation coefficient:              0.014379
    Center-of-mass size [Ang]:            1.079004
      Cartesian components [Ang]:       [  0.659824,   0.707811,   0.477372]

  Decomposition into state-averaged NTOs
    H- 1 -> L+ 0: -0.6427 ( 82.6%)
    H- 0 -> L+ 2: -0.1649 (  5.4%)
    H- 0 -> L+ 1: -0.1362 (  3.7%)
                   omega =  92.1%
  ----------------------------------------------------------------------------


  Excited state 3 (singlet, A)                                     [converged]
  ----------------------------------------------------------------------------
  Term symbol:  4 (1) A                                     R^2 =  1.59230e-13

  Total energy:                                            -77.9829779783 a.u.
  Excitation energy:                                               9.106641 eV

  Osc. strength:                                                      0.019884
  Trans. dip. moment [a.u.]:           [   0.017698,    0.013466,   -0.297705]
  <i|r^2|0> [a.u.]:                    [   0.094734,   -0.021369,    0.031763]
  Two-photon absorption cross-section (SoS) [a.u.]:                   1.565691
  Two-photon absorption matrix (SoS) [a.u.]:
                                       |    0.026069    0.031172   -0.329726 |
                                       |    0.031172    0.045134   -0.288866 |
                                       |   -0.329726   -0.288866   -0.046058 |
  Two-photon absorption cross-section [a.u.]:                         1.315907
  Two-photon absorption matrix [a.u.]:
                                       |    0.025840    0.024411   -0.226060 |
                                       |    0.024411    0.054780   -0.330926 |
                                       |   -0.226060   -0.330926   -0.048764 |

  Dip. moment [a.u.]:                  [   0.427742,    0.498185,    0.046579]
  Total dipole [Debye]:                                               1.673160
  <r^2> [a.u.]:                        [ 179.985566,   39.871456,   11.164899]
  Total <r^2> [a.u.]:                                               231.021922

  V1^2 = 0.9580, V2^2 = 0.0420

  Important amplitudes:
      occ i     occ j     vir a      vir b          v   
    -----------------------------------------------------
     8 (A) A             10 (A) A                 0.6652
     7 (A) A              9 (A) A                 0.1707
     8 (A) A             24 (A) A                 0.0469
     8 (A) A             11 (A) A                -0.0459
     8 (A) A             18 (A) A                -0.0316
     4 (A) A              9 (A) A                 0.0249
     8 (A) A   8 (A) B    9 (A) A   12 (A) B     -0.0211
     7 (A) A             20 (A) A                 0.0185
     8 (A) A   8 (A) B   10 (A) A   17 (A) B      0.0164
     8 (A) A             21 (A) A                -0.0161
     5 (A) A   8 (A) B   11 (A) A   10 (A) B      0.0157
     8 (A) A             13 (A) A                -0.0143
     8 (A) A             15 (A) A                -0.0140
     7 (A) A   8 (A) B   13 (A) A   10 (A) B     -0.0136
     8 (A) A             16 (A) A                -0.0134
     4 (A) A   8 (A) B   12 (A) A   10 (A) B     -0.0107
     6 (A) A   8 (A) A   10 (A) A   15 (A) A      0.0103
     4 (A) A   8 (A) A   10 (A) A   12 (A) A      0.0102
     7 (A) A   8 (A) B   22 (A) A   10 (A) B      0.0101
     6 (A) A   8 (A) B   15 (A) A   10 (A) B     -0.0101
     7 (A) A   8 (A) A   10 (A) A   22 (A) A     -0.0094
     7 (A) A   8 (A) A   10 (A) A   13 (A) A      0.0093
     5 (A) A   8 (A) A   10 (A) A   11 (A) A     -0.0092
     6 (A) A   8 (A) B   10 (A) A   10 (A) B     -0.0091
     5 (A) A   8 (A) B   21 (A) A   10 (A) B      0.0087
     6 (A) A   8 (A) A   10 (A) A   18 (A) A     -0.0082
     5 (A) A   8 (A) B    9 (A) A    9 (A) B     -0.0081
     6 (A) A              9 (A) A                -0.0080
     8 (A) A             22 (A) A                 0.0079
     7 (A) A   8 (A) A   12 (A) A   16 (A) A      0.0079
     3 (A) A   4 (A) B   10 (A) A    9 (A) B     -0.0078
     5 (A) A   8 (A) A   10 (A) A   21 (A) A     -0.0075
     4 (A) A   8 (A) B   19 (A) A   10 (A) B     -0.0071
     8 (A) A   8 (A) B   10 (A) A   28 (A) B     -0.0069
     8 (A) A   8 (A) B    9 (A) A   19 (A) B     -0.0068
     3 (A) A   8 (A) B   10 (A) A   10 (A) B      0.0068
     8 (A) A   8 (A) B    9 (A) A   23 (A) B      0.0068
     7 (A) A   8 (A) B   16 (A) A   12 (A) B     -0.0067
     3 (A) A   8 (A) A   10 (A) A   24 (A) A     -0.0067
     5 (A) A   8 (A) B   10 (A) A   11 (A) B      0.0065
    -----------------------------------------------------

  Density matrix analysis:
  ------------------------
  NOs
    Occupation of frontier NOs:
       0.9244   1.0412
    Number of electrons: 16.000000
    Number of unpaired electrons: n_u =  2.32969, n_u,nl =  2.06311
    NO participation ratio (PR_NO):  3.024018
  
  
  Mulliken Population Analysis
  Atom      Charge (e)              h+              e-           Del q
  --------------------------------------------------------------------
   1 H       -0.064582        0.056028       -0.167868       -0.111840
   2 C        0.263074        0.497879       -0.129033        0.368846
   3 H       -0.204774        0.059704       -0.323218       -0.263514
   4 C        0.264751        0.496305       -0.120442        0.375863
   5 H       -0.060623        0.062043       -0.174998       -0.112955
   6 H       -0.197847        0.054670       -0.311070       -0.256400
  --------------------------------------------------------------------
  Sum:        0.000000        1.226629       -1.226629        0.000000
  
  Multipole moment analysis of the density matrix
    Molecular charge:                      0.000000
    Number of electrons:                   16.000000
      Center of electronic charge [Ang]: [ -1.552290,  -0.059882,   0.000616]
    Total nuclear charge:                  16.000000
      Center of nuclear charge [Ang]:    [ -1.538143,  -0.043405,   0.002157]
    Dipole moment [D]:                     1.673159
      Cartesian components [D]:          [  1.087212,   1.266261,   0.118391]
    RMS size of the density [Ang]:         1.276756
      Cartesian components [Ang]:        [  0.860502,   0.833208,   0.442047]
  
  Exciton analysis of the difference density matrix
    <r_h> [Ang]:                  [ -1.544571,  -0.049171,   0.000893]
    <r_e> [Ang]:                  [ -1.726939,  -0.260060,  -0.017924]
    |<r_e - r_h>| [Ang]:            0.279439
    Hole size [Ang]:                1.429643
      Cartesian components [Ang]: [  0.852978,   0.838048,   0.783572]
    Electron size [Ang]:            2.056700
      Cartesian components [Ang]: [  1.348890,   1.369211,   0.731964]

  Transition density matrix analysis:
  -----------------------------------
  
  CT numbers (Mulliken)
    omega =     0.9248
    <Phe> =    -0.0128
  
  Exciton analysis of the transition density matrix
    Trans. dipole moment [D]:             0.379399
      Cartesian components [D]:         [  0.022492,   0.017114,  -0.378345]
    <r_h> [Ang]:                        [ -1.529760,  -0.031120,   0.002125]
    <r_e> [Ang]:                        [ -1.777650,  -0.319616,  -0.023356]
    |<r_e - r_h>| [Ang]:                  0.381220
    Hole size [Ang]:                      1.235332
      Cartesian components [Ang]:       [  0.669027,   0.657720,   0.803649]
    Electron size [Ang]:                  2.218036
      Cartesian components [Ang]:       [  1.450353,   1.478519,   0.793814]
    RMS electron-hole separation [Ang]:   2.555358
      Cartesian components [Ang]:       [  1.607245,   1.635042,   1.128386]
    Covariance(r_h, r_e) [Ang^2]:         0.030601
    Correlation coefficient:              0.011168
    Center-of-mass size [Ang]:            1.275434
      Cartesian components [Ang]:       [  0.803190,   0.813495,   0.565548]

  Decomposition into state-averaged NTOs
    H- 0 -> L+ 1:  0.6455 ( 83.3%)
    H- 1 -> L+ 0: -0.1688 (  5.7%)
    H- 0 -> L+ 2:  0.1273 (  3.2%)
                   omega =  92.5%
  ----------------------------------------------------------------------------


  Excited state 4 (singlet, A)                                     [converged]
  ----------------------------------------------------------------------------
  Term symbol:  5 (1) A                                     R^2 =  4.64195e-14

  Total energy:                                            -77.9590030977 a.u.
  Excitation energy:                                               9.759031 eV

  Osc. strength:                                                      0.002554
  Trans. dip. moment [a.u.]:           [   0.004677,    0.006417,   -0.103054]
  <i|r^2|0> [a.u.]:                    [   0.010873,   -0.018225,    0.035767]
  Two-photon absorption cross-section (SoS) [a.u.]:                 129.203222
  Two-photon absorption matrix (SoS) [a.u.]:
                                       |   -0.215230   -0.285766    2.580390 |
                                       |   -0.285766   -0.391285    3.021440 |
                                       |    2.580390    3.021440    0.602513 |
  Two-photon absorption cross-section [a.u.]:                        79.313140
  Two-photon absorption matrix [a.u.]:
                                       |   -0.140988   -0.223023    1.911654 |
                                       |   -0.223023   -0.331393    2.456365 |
                                       |    1.911654    2.456365    0.472025 |

  Dip. moment [a.u.]:                  [  -0.529954,   -0.715508,   -0.069561]
  Total dipole [Debye]:                                               2.270054
  <r^2> [a.u.]:                        [ 174.226859,   41.098317,   10.793941]
  Total <r^2> [a.u.]:                                               226.119117

  V1^2 = 0.9631, V2^2 = 0.0369

  Important amplitudes:
      occ i     occ j     vir a      vir b          v   
    -----------------------------------------------------
     8 (A) A             11 (A) A                 0.6679
     7 (A) A              9 (A) A                -0.1335
     8 (A) A             10 (A) A                 0.0819
     8 (A) A             21 (A) A                 0.0749
     8 (A) A             16 (A) A                 0.0646
     8 (A) A   8 (A) B    9 (A) A   13 (A) B     -0.0163
     5 (A) A   8 (A) B   11 (A) A   11 (A) B      0.0160
     8 (A) A             24 (A) A                 0.0149
     6 (A) A              9 (A) A                 0.0147
     8 (A) A   8 (A) B   11 (A) A   17 (A) B      0.0139
     7 (A) A   8 (A) B   13 (A) A   11 (A) B     -0.0127
     8 (A) A             12 (A) A                 0.0122
     7 (A) A             20 (A) A                -0.0120
     8 (A) A             14 (A) A                 0.0110
     4 (A) A   8 (A) B   12 (A) A   11 (A) B     -0.0110
     8 (A) A             19 (A) A                -0.0108
     5 (A) A   8 (A) A   11 (A) A   21 (A) A     -0.0107
     8 (A) A   8 (A) B    9 (A) A   22 (A) B      0.0103
     7 (A) A   8 (A) A   11 (A) A   22 (A) A     -0.0093
     6 (A) A   8 (A) B   15 (A) A   11 (A) B     -0.0089
     7 (A) A   8 (A) B   22 (A) A   11 (A) B      0.0087
     6 (A) A   8 (A) B   10 (A) A   11 (A) B     -0.0085
     3 (A) A   4 (A) B   11 (A) A    9 (A) B     -0.0082
     6 (A) A   8 (A) A   11 (A) A   15 (A) A      0.0080
     3 (A) A   8 (A) B   11 (A) A   18 (A) B     -0.0079
     7 (A) A   8 (A) A   13 (A) A   16 (A) A      0.0075
     7 (A) A   8 (A) A   11 (A) A   13 (A) A      0.0075
     5 (A) A   8 (A) B   21 (A) A   11 (A) B      0.0069
     4 (A) A   8 (A) B   19 (A) A   11 (A) B     -0.0069
     4 (A) A   8 (A) A   11 (A) A   12 (A) A      0.0063
     3 (A) A   6 (A) B   11 (A) A   28 (A) B     -0.0059
     6 (A) A   8 (A) A   11 (A) A   18 (A) A     -0.0057
     5 (A) A   8 (A) B    9 (A) A    9 (A) B      0.0057
     3 (A) A   8 (A) B   11 (A) A   30 (A) B     -0.0055
     6 (A) A   8 (A) B   18 (A) A   11 (A) B      0.0055
     3 (A) A   8 (A) A   11 (A) A   18 (A) A     -0.0054
     7 (A) A   8 (A) B   16 (A) A   13 (A) B     -0.0054
     3 (A) A   5 (A) B   11 (A) A   25 (A) B     -0.0054
     3 (A) A   8 (A) A   11 (A) A   24 (A) A     -0.0053
     7 (A) A   8 (A) B   11 (A) A   13 (A) B     -0.0052
    -----------------------------------------------------

  Density matrix analysis:
  ------------------------
  NOs
    Occupation of frontier NOs:
       0.9504   1.0182
    Number of electrons: 16.000000
    Number of unpaired electrons: n_u =  2.32164, n_u,nl =  2.04369
    NO participation ratio (PR_NO):  2.866630
  
  
  Mulliken Population Analysis
  Atom      Charge (e)              h+              e-           Del q
  --------------------------------------------------------------------
   1 H       -0.216607        0.045057       -0.308922       -0.263865
   2 C        0.267888        0.499049       -0.125389        0.373659
   3 H       -0.034263        0.047067       -0.140070       -0.093002
   4 C        0.270730        0.508934       -0.127092        0.381842
   5 H       -0.299794        0.047618       -0.399744       -0.352126
   6 H        0.012046        0.042864       -0.089372       -0.046507
  --------------------------------------------------------------------
  Sum:        0.000000        1.190589       -1.190589        0.000000
  
  Multipole moment analysis of the density matrix
    Molecular charge:                      0.000000
    Number of electrons:                   16.000000
      Center of electronic charge [Ang]: [ -1.520616,  -0.019741,   0.004457]
    Total nuclear charge:                  16.000000
      Center of nuclear charge [Ang]:    [ -1.538143,  -0.043405,   0.002157]
    Dipole moment [D]:                     2.270054
      Cartesian components [D]:          [ -1.347008,  -1.818641,  -0.176806]
    RMS size of the density [Ang]:         1.282500
      Cartesian components [Ang]:        [  0.858492,   0.847882,   0.434619]
  
  Exciton analysis of the difference density matrix
    <r_h> [Ang]:                  [ -1.523661,  -0.020719,   0.003394]
    <r_e> [Ang]:                  [ -1.285886,   0.301454,   0.035628]
    |<r_e - r_h>| [Ang]:            0.401711
    Hole size [Ang]:                1.395553
      Cartesian components [Ang]: [  0.818789,   0.807242,   0.790892]
    Electron size [Ang]:            2.074914
      Cartesian components [Ang]: [  1.312885,   1.457685,   0.675835]

  Transition density matrix analysis:
  -----------------------------------
  
  CT numbers (Mulliken)
    omega =     0.9291
    <Phe> =    -0.0134
  
  Exciton analysis of the transition density matrix
    Trans. dipole moment [D]:             0.131356
      Cartesian components [D]:         [  0.005943,   0.008156,  -0.130968]
    <r_h> [Ang]:                        [ -1.533952,  -0.041987,   0.001231]
    <r_e> [Ang]:                        [ -1.235102,   0.371405,   0.042435]
    |<r_e - r_h>| [Ang]:                  0.511763
    Hole size [Ang]:                      1.224837
      Cartesian components [Ang]:       [  0.657526,   0.641051,   0.810518]
    Electron size [Ang]:                  2.205455
      Cartesian components [Ang]:       [  1.389922,   1.553614,   0.720023]
    RMS electron-hole separation [Ang]:   2.562533
      Cartesian components [Ang]:       [  1.557812,   1.721637,   1.084327]
    Covariance(r_h, r_e) [Ang^2]:         0.029792
    Correlation coefficient:              0.011029
    Center-of-mass size [Ang]:            1.267265
      Cartesian components [Ang]:       [  0.773140,   0.845013,   0.542373]

  Decomposition into state-averaged NTOs
    H- 0 -> L+ 2: -0.6389 ( 81.6%)
    H- 0 -> L+ 1:  0.1615 (  5.2%)
    H- 1 -> L+ 0:  0.1316 (  3.5%)
    H- 0 -> L+ 4: -0.0934 (  1.7%)
                   omega =  92.9%
  ----------------------------------------------------------------------------


  Excited state 5 (singlet, A)                                     [converged]
[...]
    16   -1.661173507347e-03
    17   -1.307340750154e-03
    18   -4.198026477727e-03
    19   -2.911308358444e-03
    20    2.078693920032e-02
    21    9.935617315040e-01
    22    3.622544537857e-04
    23    1.306099000425e-02
    24    7.356840999116e-04
    25    7.014200157019e-02
    26   -5.265754963960e-02
    27   -1.367392065394e+00
    28    1.162513064379e-01
    29   -7.434060067742e-02
    30    1.402401089604e-03
    31    4.467666154470e-01
    32   -2.938518199928e-01
    33    4.913390425455e-03
    34    1.477469551092e-02
    35   -1.325501307960e-03
    36   -1.677638801458e-03
    37    1.030727980952e-03
    38   -2.666237426281e-03
    39    2.197106190059e-03
    40    7.963831300739e-01
    41    1.158297242714e-03
    42   -1.205649937187e-02
    43   -6.453854899814e-04
    44    2.134381547213e-02
    45    1.040911072560e+00
    46    1.492531076105e-02
    47    9.133077750383e-04
    48    7.540989000520e-04
Sym=X
Ene= 0.231136
Spin=Alpha
Occup=0
     1    2.091244818362e-02
     2    1.213842461582e+00
     3   -1.382998572587e-02
     4   -4.248018590325e-03
     5   -8.946816568175e-04
     6   -1.310060945789e-04
     7   -1.143842120941e-03
     8   -5.813746635857e-02
     9   -1.501070283412e-01
    10   -1.633472423915e-01
    11   -1.642905825927e-02
    12   -5.814535214724e-01
    13   -5.062366113073e-01
    14   -5.645816078699e-02
    15    4.402505395959e-04
    16   -1.104781101258e-04
    17   -2.367050218546e-04
    18    1.271319094464e-03
    19   -4.943243036400e-04
    20   -3.784925789524e-02
    21   -1.113564196264e+00
    22   -1.960608594584e-03
    23   -1.192506765752e-02
    24   -7.722346909423e-04
    25    1.575568594301e-02
    26   -8.859086161565e-03
    27   -3.834869771514e-01
    28   -1.289901781685e-01
    29   -1.823870965810e-01
    30   -1.676027367480e-02
    31   -4.588304030888e-01
    32   -6.088096420376e-01
    33   -5.702449163805e-02
    34    6.015707528348e-03
    35   -6.338381464737e-04
    36   -6.525279441707e-04
    37   -1.026768554848e-03
    38   -2.844161595051e-03
    39    3.031686568926e-02
    40    1.378915072578e+00
    41   -3.083886894964e-03
    42   -1.751962620411e-02
    43   -1.174519251221e-03
    44   -2.811645836951e-02
    45   -9.254409948311e-01
    46   -8.230846516598e-03
    47   -2.789940601146e-03
    48   -5.614191342725e-04
Sym=X
Ene= 0.236379
Spin=Alpha
Occup=0
     1    2.257198518493e-02
     2    1.254210969547e+00
     3   -1.902224387373e-02
     4   -9.235565656018e-03
     5   -1.521355967523e-03
     6    8.734867425640e-02
     7   -8.328326383765e-02
     8   -1.557287509475e+00
     9   -6.679259857727e-02
    10    4.737618001647e-02
    11   -1.547648465990e-03
    12   -3.106618620323e-01
    13    1.764609007342e-01
    14   -8.679365941134e-03
    15    2.129320203552e-02
    16   -2.615893436918e-03
    17   -2.618912905781e-03
    18   -1.552597242752e-03
    19   -1.253615317485e-02
    20    1.494824003201e-02
    21    9.149878548080e-01
    22    8.664441853538e-03
    23    1.329220527610e-02
    24    1.110301925868e-03
    25   -8.591076751646e-02
    26    8.199284407027e-02
    27    1.507877250105e+00
    28   -7.496854629287e-02
    29    3.553198817451e-02
    30   -6.992682688039e-04
    31   -2.850484205743e-01
    32    1.807867127442e-01
    33    5.882746500682e-04
    34   -2.060693335310e-02
    35    2.233752960999e-03
    36    2.813543338005e-03
    37   -7.759264441008e-04
    38    1.216634237460e-02
    39   -1.993487462916e-02
    40   -9.565912014452e-01
    41    7.775214190644e-03
    42    1.520593148501e-02
    43    1.287396280748e-03
    44   -1.895708594200e-02
    45   -1.152995738877e+00
    46   -1.589954724964e-02
    47   -9.987946271662e-03
    48   -1.280578641668e-03
Sym=X
Ene= 0.302468
Spin=Alpha
Occup=0
     1   -3.043252094765e-02
     2    1.732290381487e+00
     3   -2.356824745441e-02
     4   -9.070133179347e-04
     5   -1.152354754683e-03
     6   -8.263550233688e-04
     7    1.682639387505e-03
     8   -1.168763780898e-01
     9   -1.345139633520e-01
    10   -1.432584813096e-01
    11   -1.459181023291e-02
    12   -1.134926324294e+00
    13   -1.165761369499e+00
    14   -1.208586533695e-01
    15    1.868261852800e-03
    16   -2.214756391528e-03
    17    1.336683354524e-03
    18   -3.349812200354e-02
    19   -5.637970173009e-03
    20    1.045762925993e-02
    21   -1.574820742038e+00
    22    2.988029707212e-03
    23   -2.266118462204e-02
    24   -1.166895639790e-03
    25    9.364434134480e-04
    26    5.902370137605e-04
    27   -4.782778893519e-02
    28    1.370500350842e-01
    29    1.426588246444e-01
    30    1.462935581846e-02
    31    1.083500903122e+00
    32    1.215504997027e+00
    33    1.212775754693e-01
    34    2.010619782288e-04
    35   -1.681157915205e-03
    36    1.895334219764e-03
    37   -3.359321297568e-02
    38   -4.021580827274e-03
    39    1.904884286488e-02
    40   -1.644477937009e+00
    41   -2.577483134939e-03
    42    2.304003331579e-02
    43    1.299836282086e-03
    44   -2.182711367872e-02
    45    1.666764549645e+00
    46    2.371953660398e-02
    47    5.884626455419e-04
    48    1.050404384752e-03
Sym=X
Ene= 0.462266
Spin=Alpha
Occup=0
     1   -7.849817901245e-02
     2   -8.489182838818e-01
     3   -1.357502897080e-02
     4   -1.461392161230e-02
     5   -1.453801684221e-03
     6    6.286484283328e-02
     7    1.691106945296e-02
     8   -3.626729797944e+00
     9    1.031313026271e-01
    10   -1.016311971434e-01
    11   -1.257804990220e-04
    12    2.556249848069e+00
    13   -2.163662838313e+00
    14   -1.358297600575e-02
    15    5.297797983201e-02
    16   -2.833356733752e-03
    17   -4.711081313553e-03
    18    2.191196994201e-03
    19    1.993922551090e-02
    20   -1.492674035916e-01
    21   -5.448387942615e-01
    22    5.398316397884e-03
    23    1.721780694310e-02
    24    1.299921378678e-03
    25   -6.285735802665e-02
    26   -1.564462835376e-02
    27    3.628551407583e+00
    28    1.076417118724e-01
    29   -9.716639615760e-02
    30   -7.343651180667e-04
    31    2.496112790961e+00
    32   -2.231675253171e+00
    33   -2.509905758859e-02
    34   -5.245941283014e-02
    35    2.960311961154e-03
    36    4.481300316002e-03
    37   -6.846743175835e-04
    38   -2.033816670614e-02
    39    1.322251159249e-01
    40    6.879407542849e-01
    41    6.702257605510e-03
    42    1.686241313371e-02
    43    1.295084552457e-03
    44    9.288154914046e-02
    45    7.089367859215e-01
    46   -1.273764335149e-02
    47   -1.306216744870e-02
    48   -1.365335975605e-03
Sym=X
Ene= 0.580168
Spin=Alpha
Occup=0
     1   -2.283043638326e-01
     2   -1.352192412473e-01
     3    2.024769897991e-02
     4   -2.254880024757e-02
     5   -3.408728214601e-04
     6    6.048431989986e-03
     7    1.690449675830e-01
     8    4.241095538316e-01
     9   -3.010455494916e-01
    10    2.954501492850e-01
    11    4.397980894553e-03
    12    7.691193006172e-01
    13   -6.854383864508e-01
    14   -4.651307192484e-03
    15    1.932018685913e-03
    16   -3.000109327756e-03
    17   -3.788007099682e-03
    18    1.499885525209e-02
    19   -5.938191027915e-02
    20   -2.508306643390e-01
    21    4.047904574798e-02
    22    3.204045839744e-02
    23   -2.201986466637e-02
    24    2.219335937942e-04
    25    6.378235151256e-03
    26    1.685373863954e-01
    27    4.147228666554e-01
    28    3.024012217793e-01
    29   -2.919948130904e-01
    30   -3.958172260019e-03
    31   -7.343028264730e-01
    32    7.274430885895e-01
    33    9.787578778980e-03
    34    1.671888199089e-03
    35   -2.679583280326e-03
    36   -4.023951904688e-03
    37    2.002719619483e-02
    38   -5.788572146055e-02
    39   -2.655171097668e-01
    40   -1.515294056082e-02
    41   -2.841950774507e-02
    42    1.653559208380e-02
    43   -2.823756179204e-04
    44   -2.060570100825e-01
    45   -8.643068937521e-02
    46   -2.674056144382e-02
    47    2.653448139174e-02
    48    3.949121786679e-04
Sym=X
Ene= 0.608912
Spin=Alpha
Occup=0
     1    5.175366422135e-01
     2   -1.118992108846e-01
     3    6.135283441586e-02
     4   -3.211063055966e-02
     5    1.030323055153e-03
     6    3.119812360396e-03
     7    2.489192230905e-02
     8    1.151574467980e-01
     9    4.788686171924e-02
    10    2.892809491320e-02
    11    3.785672395090e-03
    12   -4.766749804667e-01
    13   -9.460594295208e-02
    14   -2.760526611160e-02
    15   -2.090445356372e-03
    16    7.389947314023e-03
    17   -8.034891175251e-03
    18    1.483017767476e-01
    19   -8.300784138866e-04
    20   -5.133818261670e-01
    21    3.438858993864e-01
    22   -4.386118725503e-02
    23    5.472526124835e-02
    24    1.061457209904e-03
    25   -2.476076800478e-03
    26    1.143534369050e-02
    27   -2.523699425909e-01
    28    4.626353337493e-02
    29    2.646343034540e-02
    30    3.581004044062e-03
    31   -4.422779532389e-01
    32   -1.063277113330e-01
    33   -2.567041526711e-02
    34    1.546516494709e-02
    35   -8.543200216738e-03
    36    6.902104518470e-03
    37   -1.489489713543e-01
    38   -1.312997749505e-02
    39    4.638363681565e-01
    40   -2.704559336654e-01
    41   -4.460203454116e-02
    42    5.228456814878e-02
    43    1.174984413724e-03
    44   -5.734835244825e-01
    45    2.290815571320e-01
    46    6.428908401637e-02
    47   -3.137164997667e-02
    48    9.788002937683e-04
Sym=X
Ene= 0.688640
Spin=Alpha
Occup=0
     1    7.881640771632e-04
     2   -2.894226722455e-03
     3    1.887353757748e-03
     4    1.618712948595e-03
     5   -2.639719801747e-02
     6    7.852724250952e-05
     7    2.533126980844e-03
     8   -3.448331502221e-03
     9    3.009145532613e-02
    10    4.036488631996e-02
    11   -6.708503110657e-01
    12   -2.435778488065e-02
    13   -3.978496409347e-02
    14    6.136960328863e-01
    15   -1.816819037190e-03
    16    8.670353741066e-02
    17   -7.437609274992e-02
    18   -8.261712053448e-03
    19   -1.837824103794e-03
    20    8.563573646026e-04
    21   -2.747082657324e-03
    22    5.465911850055e-04
    23    1.417206328639e-04
    24   -1.204368263012e-02
    25    1.663023363799e-04
    26    1.457674996110e-03
    27    5.421393150561e-04
    28    3.099493670508e-02
    29    3.929570676282e-02
    30   -6.706557160592e-01
    31   -2.490070118662e-02
    32   -3.904894768839e-02
    33    6.119471637357e-01
    34    4.514322712035e-04
    35   -8.553073079658e-02
    36    7.479324953301e-02
    37    8.294159999333e-03
    38    2.318748796800e-03
    39    2.613499106189e-03
    40    5.590319917313e-04
    41    1.139933977486e-03
    42    1.573756549996e-03
    43   -1.982134219400e-02
    44    2.575641886222e-03
    45    1.914636430199e-04
    46    4.106972824124e-04
    47    7.373819828024e-04
    48   -1.758849950056e-02
Sym=X
Ene= 0.704953
Spin=Alpha
Occup=0
     1   -4.789521577181e-01
     2    6.942721786058e-02
     3   -8.157376326025e-02
     4   -4.107003126423e-02
     5   -6.157654956901e-03
     6   -4.640655191460e-02
     7   -3.026771317749e-01
     8    4.774332808923e-01
     9    1.765340972833e-01
    10   -2.060564599500e-01
    11   -6.912347871493e-03
    12   -1.178567218460e-03
    13    1.125399899414e-01
    14    1.188440656169e-02
    15    1.906533304449e-01
    16   -1.942219220116e-02
    17   -2.342989566762e-02
    18    1.798993535302e-03
    19   -7.653174371999e-02
    20   -4.969740725791e-01
    21    2.481839852540e-01
    22    4.418247786188e-02
    23    7.648330520313e-02
    24    6.631006979138e-03
    25   -4.551149698554e-02
    26   -2.999765545205e-01
    27    4.582263281075e-01
    28   -2.175962828415e-01
    29    1.651246282006e-01
    30   -2.703600132026e-03
    31    1.210824150992e-01
    32    1.355259993140e-02
    33    7.063960823334e-03
    34    1.909615563730e-01
    35   -1.925518557815e-02
    36   -2.364880158064e-02
    37    6.499681844810e-03
    38   -7.586643738960e-02
    39   -5.114238961845e-01
    40    1.201390408742e-01
    41   -3.607882883248e-02
    42   -7.905553571702e-02
    43   -6.557936267281e-03
    44   -4.596652699362e-01
    45    2.066909931996e-01
    46    7.887062433178e-02
    47    4.822029414588e-02
    48    6.214950245183e-03
Sym=X
Ene= 0.774446
Spin=Alpha
Occup=0
     1    4.734513894828e-01
     2   -2.995909813270e-01
     3    9.136292540881e-02
     4    2.526369531312e-02
     5    5.607927346026e-03
     6    8.785955086826e-02
     7   -2.313721454565e-01
     8   -5.634492794407e-01
     9    1.638007154126e-01
    10   -2.668322748758e-02
    11    7.415879245810e-03
    12    1.771087962142e-01
    13   -4.198491749941e-01
    14   -2.200174208984e-02
    15   -1.994670386420e-01
    16    1.577409171543e-02
    17    2.150782100749e-02
    18   -2.009657627127e-02
    19    7.336819147566e-03
    20    5.944739850855e-01
    21   -6.635957680862e-01
    22   -2.128597669389e-02
    23   -1.234070900033e-01
    24   -8.236976079520e-03
    25   -8.850443083376e-02
    26    2.219851790795e-01
    27    5.735418018209e-01
    28    1.037767865608e-01
    29   -9.512113522060e-02
    30   -3.695622390941e-03
    31    3.432129081809e-01
    32   -2.302881934223e-01
    33    6.593705980993e-03
    34    2.021279012637e-01
    35   -1.552850763382e-02
    36   -2.224433480173e-02
    37    1.395081014424e-02
    38   -7.169340826906e-03
    39   -5.471666969633e-01
    40    4.693917012353e-01
    41   -1.986652496901e-02
    42   -1.129644215465e-01
    43   -7.653468524342e-03
    44   -5.300918038840e-01
    45    4.935121723797e-01
    46    1.018475634005e-01
    47    2.748727934525e-02
    48    6.206204663246e-03
Sym=X
Ene= 0.807058
Spin=Alpha
Occup=0
     1    1.089911061537e-03
     2   -1.108379297296e-03
     3    2.291523261214e-03
     4    1.876140726126e-03
     5   -3.593238146217e-02
     6    2.054115257475e-04
     7    2.989183361787e-04
     8   -4.967112973396e-06
     9    3.601942674461e-02
    10    4.502485724528e-02
    11   -7.635642473787e-01
    12   -5.128452885975e-02
    13   -6.849961178607e-02
    14    1.123689729467e+00
    15    3.101371482353e-05
    16   -6.754729160276e-02
    17    5.910421722157e-02
    18    6.414679027429e-03
    19    1.190590560870e-03
    20    1.417287841468e-03
    21   -3.225384576744e-03
    22    1.451450207347e-03
    23    7.050671628845e-04
    24   -2.723913477791e-02
    25   -2.997952678302e-04
    26    1.361857391781e-03
    27   -8.331069514767e-04
    28   -3.317287439359e-02
    29   -4.662420925542e-02
    30    7.646606971552e-01
    31    5.055606224424e-02
    32    6.719314538931e-02
    33   -1.124222758256e+00
    34    1.741594825476e-03
    35   -6.763997972713e-02
    36    5.849594584381e-02
    37    6.595353401242e-03
    38    1.820392640890e-03
    39   -1.362959773289e-03
    40    1.835573851009e-03
    41   -1.457003070550e-03
    42   -2.437605217252e-03
    43    3.419547771131e-02
    44   -1.334078351772e-03
    45    1.539798073857e-03
    46   -9.213135935920e-04
    47   -1.774999650156e-03
    48    2.811560082141e-02
Sym=X
Ene= 0.858755
Spin=Alpha
Occup=0
     1    4.335416522107e-02
     2   -1.047672303360e+00
     3    1.509297126818e-01
     4    5.180852220724e-02
     5    1.025359480283e-02
     6    1.167947682910e-02
     7    5.128865593036e-02
     8   -2.260703104232e-03
     9   -3.585782650496e-01
    10   -4.721916432106e-01
    11   -4.443942129855e-02
    12    8.534265113134e-01
    13    1.036778798447e+00
    14    1.003679574674e-01
    15   -4.047909377337e-02
    16    1.390181522494e-02
    17   -9.001089627382e-03
    18    2.276708951250e-01
    19    2.183935789397e-03
    20    2.691841188067e-02
    21    1.064628207391e+00
    22    5.253572098935e-02
    23    1.399122556909e-01
    24    1.029794536600e-02
    25   -5.302997457798e-03
    26    8.040951033141e-02
    27   -9.620258364280e-02
    28   -3.726481913298e-01
    29   -4.708000837533e-01
    30   -4.454090404598e-02
    31    8.670583428022e-01
    32    1.053762578275e+00
    33    1.016130450548e-01
    34    8.643940242873e-03
    35   -1.151328650895e-02
    36    1.259026730067e-02
    37   -2.321835017650e-01
    38   -3.644014969828e-03
    39   -4.338780206885e-03
    40   -1.075681016538e+00
    41    4.780076912267e-02
    42    1.449160841300e-01
    43    1.072183326630e-02
    44   -3.207106865556e-02
    45    1.073720437633e+00
    46    1.507662930110e-01
    47    5.728683531856e-02
    48    1.032206044578e-02
Sym=X
Ene= 0.925828
Spin=Alpha
Occup=0
     1   -1.471525366991e-01
     2    9.944593214574e-01
     3   -1.578402103632e-01
     4    2.954871921807e-02
     5   -5.417531670907e-03
     6   -1.438101876798e-02
     7   -1.448575953761e-01
     8    3.527724098777e-02
     9    3.330372248950e-01
    10    5.972067991875e-01
    11    5.038522199436e-02
    12   -1.019171485917e+00
    13   -1.662446411191e+00
    14   -1.443402729425e-01
    15    3.776986447063e-02
    16   -5.086978088385e-03
    17    5.558648339783e-03
    18   -1.207651788079e-01
    19    6.264773711275e-02
    20    1.276773965313e-01
    21   -1.332703264152e+00
    22   -7.565280146316e-03
    23   -1.904730645876e-01
    24   -1.130716629532e-02
    25    9.305953313924e-03
    26   -7.868892650634e-02
    27    2.725620476480e-01
    28   -5.360321974224e-01
    29   -4.285462516540e-01
    30   -4.968591047598e-02
    31    1.542285921890e+00
    32    1.238174576963e+00
    33    1.428791071028e-01
    34   -2.625777576098e-02
    35   -5.701564960012e-03
    36    8.387436587723e-03
    37   -1.203543900943e-01
    38   -4.609512284428e-02
    39    1.690918468516e-01
    40   -1.141526313643e+00
    41   -2.768218186021e-02
    42    1.846170184723e-01
    43    1.005109055888e-02
    44   -1.255258378425e-01
    45    1.274058003304e+00
    46    1.735255472360e-01
    47    5.075380957254e-03
    48    7.793650592159e-03
Sym=X
Ene= 0.972242
Spin=Alpha
Occup=0
     1   -6.965544428120e-02
     2    1.204863552263e+00
     3   -1.247361341872e-01
     4   -8.989193701467e-02
     5   -1.142945101049e-02
     6    2.359280918192e-02
     7    1.649740395605e-01
     8    6.398051525642e-01
     9    5.665450708917e-01
    10   -3.207490687397e-01
    11    7.997542592755e-03
    12   -1.834346356261e+00
    13    9.148607924083e-01
    14   -3.209374039005e-02
    15   -4.972343366741e-02
    16   -1.423385446168e-02
    17   -6.078755834675e-03
    18   -1.769208285247e-02
    19   -2.815164741981e-01
    20   -4.969391389027e-02
    21    4.784077539678e-01
    22    8.801144740644e-02
    23    3.599575774766e-02
    24    5.583494707058e-03
    25   -2.609042280987e-02
    26   -3.324911130918e-01
    27   -3.595900013592e-01
    28    4.280413661172e-01
    29   -5.211024968464e-01
    30   -1.278793022497e-02
    31   -1.248158081071e+00
    32    1.663759736620e+00
    33    4.607079320110e-02
    34    5.489892261381e-02
    35    1.234516217410e-02
    36    1.007417975992e-02
    37   -3.910847063289e-02
    38    2.983136329008e-01
    39    5.154863301922e-02
    40   -1.139566291814e+00
    41    9.348057469318e-02
    42    1.280223958621e-01
    43    1.194045573362e-02
    44    8.354512105438e-02
    45   -7.404479953745e-01
    46   -7.106673924951e-02
    47   -9.905795382401e-02
    48   -9.209179948999e-03
[5D]

======= END OF MOLDEN-FORMATTED INPUT FILE =======


        *************************************************************
        *                                                           *
        *  Thank you very much for using Q-Chem.  Have a nice day.  *
        *                                                           *
        *************************************************************


