                  Welcome to Q-Chem
     A Quantum Leap Into The Future Of Chemistry


 Q-Chem 5.4 (devel), Q-Chem, Inc., Pleasanton, CA (2021)

 E. Epifanovsky,  A. T. B. Gilbert,  Xintian Feng,  Joonho Lee,  Yuezhi Mao,  
 N. Mardirossian,  P. Pokhilko,  A. White,  M. Wormit,  M. P. Coons,  
 A. L. Dempwolff,  Zhengting Gan,  D. Hait,  P. R. Horn,  L. D. Jacobson,  
 I. Kaliman,  J. Kussmann,  A. W. Lange,  Ka Un Lao,  D. S. Levine,  Jie Liu,  
 S. C. McKenzie,  A. F. Morrison,  K. Nanda,  F. Plasser,  D. R. Rehn,  
 M. L. Vidal,  Zhi-Qiang You,  Ying Zhu,  B. Alam,  B. Albrecht,  
 A. Aldossary,  E. Alguire,  J. H. Andersen,  D. Barton,  K. Begam,  A. Behn,  
 Y. A. Bernard,  E. J. Berquist,  H. Burton,  A. Carreras,  K. Carter-Fenk,  
 R. Chakraborty,  A. D. Chien,  K. D. Closser,  V. Cofer-Shabica,  
 S. Dasgupta,  Jia Deng,  M. de Wergifosse,  M. Diedenhofen,  Hainam Do,  
 S. Ehlert,  Po-Tung Fang,  S. Fatehi,  Qingguo Feng,  T. Friedhoff,  
 J. Gayvert,  Qinghui Ge,  G. Gidofalvi,  M. Goldey,  J. Gomes,  
 C. Gonzalez-Espinoza,  S. Gulania,  A. Gunina,  M. W. D. Hanson-Heine,  
 P. H. P. Harbach,  A. W. Hauser,  M. F. Herbst,  M. Hernandez Vera,  
 M. Hodecker,  Z. C. Holden,  S. Houck,  Xunkun Huang,  Kerwin Hui,  
 B. C. Huynh,  M. Ivanov,  Hyunjun Ji,  Hanjie Jiang,  B. Kaduk,  S. Kaehler,  
 K. Khistyaev,  Jaehoon Kim,  P. Klunzinger,  Z. Koczor-Benda,  
 Joong Hoon Koh,  D. Kosenkov,  L. Koulias,  T. Kowalczyk,  C. M. Krauter,  
 K. Kue,  A. Kunitsa,  T. Kus,  A. Landau,  K. V. Lawler,  D. Lefrancois,  
 S. Lehtola,  Rain Li,  Yi-Pei Li,  Jiashu Liang,  M. Liebenthal,  
 Hung-Hsuan Lin,  You-Sheng Lin,  Fenglai Liu,  Kuan-Yu Liu,  
 M. Loipersberger,  A. Luenser,  A. Manjanath,  P. Manohar,  E. Mansoor,  
 S. F. Manzer,  Shan-Ping Mao,  A. V. Marenich,  T. Markovich,  S. Mason,  
 S. A. Maurer,  P. F. McLaughlin,  M. F. S. J. Menger,  J.-M. Mewes,  
 S. A. Mewes,  P. Morgante,  J. W. Mullinax,  K. J. Oosterbaan,  G. Paran,  
 Alexander C. Paul,  Suranjan K. Paul,  F. Pavosevic,  Zheng Pei,  S. Prager,  
 E. I. Proynov,  E. Ramos,  B. Rana,  A. E. Rask,  A. Rettig,  R. M. Richard,  
 F. Rob,  E. Rossomme,  T. Scheele,  M. Scheurer,  M. Schneider,  
 N. Sergueev,  S. M. Sharada,  W. Skomorowski,  D. W. Small,  C. J. Stein,  
 Yu-Chuan Su,  E. J. Sundstrom,  Zhen Tao,  J. Thirman,  T. Tsuchimochi,  
 N. M. Tubman,  S. P. Veccham,  O. Vydrov,  J. Wenzel,  J. Witte,  A. Yamada,  
 Kun Yao,  S. Yeganeh,  S. R. Yost,  A. Zech,  Igor Ying Zhang,  Xing Zhang,  
 Yu Zhang,  D. Zuev,  A. Aspuru-Guzik,  A. T. Bell,  N. A. Besley,  
 K. B. Bravaya,  B. R. Brooks,  D. Casanova,  Jeng-Da Chai,  S. Coriani,  
 C. J. Cramer,  A. E. DePrince, III,  R. A. DiStasio Jr.,  A. Dreuw,  
 B. D. Dunietz,  T. R. Furlani,  W. A. Goddard III,  S. Grimme,  
 S. Hammes-Schiffer,  T. Head-Gordon,  W. J. Hehre,  Chao-Ping Hsu,  
 T.-C. Jagau,  Yousung Jung,  A. Klamt,  Jing Kong,  D. S. Lambrecht,  
 WanZhen Liang,  N. J. Mayhall,  C. W. McCurdy,  J. B. Neaton,  
 C. Ochsenfeld,  J. A. Parkhill,  R. Peverati,  V. A. Rassolov,  Yihan Shao,  
 L. V. Slipchenko,  T. Stauch,  R. P. Steele,  J. E. Subotnik,  
 A. J. W. Thom,  A. Tkatchenko,  D. G. Truhlar,  T. Van Voorhis,  
 T. A. Wesolowski,  K. B. Whaley,  H. L. Woodcock III,  P. M. Zimmerman,  
 S. Faraji,  P. M. W. Gill,  M. Head-Gordon,  J. M. Herbert,  A. I. Krylov

 Additional authors for Version 5.4.1: 
 S. Kotaru,  Shaozhi Li,  Xiangyuan Li,  F. Matz,  A. Molle,  Haisheng Ren,  
 Yingli Su,  Hung-Yi Tsai,  C. Utku,  Fang Wang

 Contributors to earlier versions of Q-Chem not listed above: 
 R. D. Adamson,  B. Austin,  R. Baer,  J. Baker,  G. J. O. Beran,  
 K. Brandhorst,  S. T. Brown,  E. F. C. Byrd,  A. K. Chakraborty,  
 G. K. L. Chan,  Chun-Min Chang,  Yunqing Chen,  C.-L. Cheng,  
 Siu Hung Chien,  D. M. Chipman,  D. L. Crittenden,  H. Dachsel,  
 R. J. Doerksen,  A. D. Dutoi,  R. G. Edgar,  J. Fosso-Tande,  
 L. Fusti-Molnar,  D. Ghosh,  A. Ghysels,  A. Golubeva-Zadorozhnaya,  
 J. Gonthier,  M. S. Gordon,  S. R. Gwaltney,  G. Hawkins,  J. E. Herr,  
 A. Heyden,  S. Hirata,  E. G. Hohenstein,  G. Kedziora,  F. J. Keil,  
 C. Kelley,  Jihan Kim,  R. A. King,  R. Z. Khaliullin,  P. P. Korambath,  
 W. Kurlancheek,  A. Laurent,  A. M. Lee,  M. S. Lee,  S. V. Levchenko,  
 Ching Yeh Lin,  D. Liotard,  E. Livshits,  R. C. Lochan,  I. Lotan,  
 L. A. Martinez-Martinez,  P. E. Maslen,  N. Nair,  D. P. O'Neill,  
 D. Neuhauser,  E. Neuscamman,  C. M. Oana,  R. Olivares-Amaya,  R. Olson,  
 T. M. Perrine,  B. Peters,  P. A. Pieniazek,  A. Prociuk,  Y. M. Rhee,  
 J. Ritchie,  M. A. Rohrdanz,  E. Rosta,  N. J. Russ,  H. F. Schaefer III,  
 M. W. Schmidt,  N. E. Schultz,  S. Sharma,  N. Shenvi,  C. D. Sherrill,  
 A. C. Simmonett,  A. Sodt,  T. Stein,  D. Stuck,  K. S. Thanthiriwatte,  
 V. Vanovschi,  L. Vogt,  Tao Wang,  A. Warshel,  M. A. Watson,  
 C. F. Williams,  Q. Wu,  X. Xu,  Jun Yang,  W. Zhang,  Yan Zhao

 Please cite Q-Chem as follows:
 Y. Shao et al., Mol. Phys. 113, 184-215 (2015)
 DOI: 10.1080/00268976.2014.952696

 Q-Chem 5.4.1 for Intel X86 EM64T Linux

 Parts of Q-Chem use Armadillo 9.800.1 (Horizon Scraper).
 http://arma.sourceforge.net/

 Q-Chem begins on Tue Mar 21 11:35:38 2023  

 Host: cpu186.baobab
0

     Scratch files written to /scratch/fum/qchem59528//
 Processing $rem in /home/share/wesolowski/qc5.aug2021.FDE/config/preferences:
 Processing $rem in /home/fum/.qchemrc:

 Checking the input file for inconsistencies... 	...done.

--------------------------------------------------------------
User input:
--------------------------------------------------------------
$comment
generated from CCJob.Templates
$end

$rem
sym_ignore = true
method = adc(2)
ee_states = 10
basis = cc-pVDZ
mem_static = 1024
mem_total = 40000
adc_davidson_maxiter = 900
adc_davidson_conv = 6
adc_print = 3
adc_prop_es = true
adc_prop_es2es = true
adc_prop_tpa = true
molden_format = True
state_analysis = true
print_orbitals = 15
gen_scfman = false
fde_export_density = true
fde_details = 3
$end

$molecule
0 1
H -0.021553435597910304 -0.24687440193287705 0.06306274196361189
C -1.078326390666554 -0.524160087383179 -0.002952600210454838
H -1.301473644612765 -1.5930276122045843 -0.07655774286592074
C -2.045026300714297 0.3942351062739019 0.00836000733737384
H -1.8214341639237144 1.4626522132439408 0.08112084825778373
H -3.1013254430386183 0.1164983713722051 -0.058400952771733454                     
$end
--------------------------------------------------------------
 ----------------------------------------------------------------
             Standard Nuclear Orientation (Angstroms)
    I     Atom           X                Y                Z
 ----------------------------------------------------------------
    1      H      -0.0215534356    -0.2468744019     0.0630627420
    2      C      -1.0783263907    -0.5241600874    -0.0029526002
    3      H      -1.3014736446    -1.5930276122    -0.0765577429
    4      C      -2.0450263007     0.3942351063     0.0083600073
    5      H      -1.8214341639     1.4626522132     0.0811208483
    6      H      -3.1013254430     0.1164983714    -0.0584009528
 ----------------------------------------------------------------
 Nuclear Repulsion Energy =          33.20991109 hartrees
 There are        8 alpha and        8 beta electrons
 Requested basis set is cc-pVDZ
 There are 24 shells and 48 basis functions
 Total memory of 40000 MB is distributed as follows: 
   MEM_STATIC is set to 1024 MB
   QALLOC/CCMAN JOB total memory use is  38976 MB
 Warning: actual memory use might exceed 40000 MB

 Total QAlloc Memory Limit  40000 MB
 Mega-Array Size      1001 MB
 MEM_STATIC part      1024 MB

                       Distance Matrix (Angstroms)
             H (  1)   C (  2)   H (  3)   C (  4)   H (  5)
   C (  2)  1.094538
   H (  3)  1.862745  1.094390
   C (  4)  2.123313  1.333449  2.123510
   H (  5)  2.482414  2.122899  3.103611  1.093985
   H (  6)  3.103512  2.122744  2.482393  1.094241  1.862718

 A cutoff of  1.0D-11 yielded    300 shell pairs
 There are      1220 function pairs (      1329 Cartesian)
 Smallest overlap matrix eigenvalue = 4.81E-03

 Scale SEOQF with 1.000000e-01/1.000000e-01/1.000000e+00

 Standard Electronic Orientation quadrupole field applied
 Nucleus-field energy     =     0.0000000022 hartrees
 Guess from superposition of atomic densities
 Warning:  Energy on first SCF cycle will be non-variational
 SAD guess density has 16.000000 electrons
 A restricted Hartree-Fock SCF calculation will be
 performed using Pulay DIIS extrapolation
 SCF converges when DIIS error is below 1.0E-08
 using 10 threads for integral computing
 -------------------------------------------------------
 OpenMP Integral computing Module                
 Release: version 1.0, May 2013, Q-Chem Inc. Pittsburgh 
 -------------------------------------------------------
 ---------------------------------------
  Cycle       Energy         DIIS Error
 ---------------------------------------
    1     -78.3977745934      9.93E-02
    2     -78.0175895991      7.13E-03
    3     -78.0380556347      1.83E-03
    4     -78.0395317596      5.64E-04
    5     -78.0396493746      5.81E-05
    6     -78.0396512380      9.30E-06
    7     -78.0396512994      1.96E-06
    8     -78.0396513021      2.65E-07
    9     -78.0396513021      1.16E-07
   10     -78.0396513021      9.51E-09 Convergence criterion met
 ---------------------------------------
 SCF time:  CPU 1.96 s  wall 3.27 s
 SCF   energy in the final basis set = -78.03965130
 Total energy in the final basis set = -78.03965130
Exporting Density Matrix to file 'Densmat_SCF.txt'.
Export successful
================================================================================
|                                                                              |
|                                 A D C  M A N                                 |
|                                                                              |
 ------------------------------------------------------------------------------ 
|                                                                              |
| Components:                                                                  |
|                                                                              |
| - libvmm - 1.3-trunk                                                         |
|   Authors:                                                                   |
|   Evgeny Epifanovsky, Ilya Kaliman                                           |
|                                                                              |
| - libtensor - 2.5-trunk                                                      |
|   Authors:                                                                   |
|   Evgeny Epifanovsky, Michael Wormit, Dmitry Zuev, Sam Manzer,               |
|   Ilya Kaliman                                                               |
|                                                                              |
| - libwfa - 1.1-trunk                                                         |
|   Authors:                                                                   |
|   Felix Plasser, Stefanie Mewes (Baeppler), Benjamin Thomitzni,              |
|   Michael Wormit, Feng Chen, Anna I. Krylov, Pavel Pokhilko                  |
|                                                                              |
| - libadc - 1.1-trunk                                                         |
|   Authors:                                                                   |
|   Michael Wormit, Adrian L. Dempwolff, Philipp H. P. Harbach,                |
|   Caroline Krauter, Dirk Rehn, Matthias Schneider, Jan Wenzel                |
|                                                                              |
| - adcman - 2.6-trunk                                                         |
|   Authors:                                                                   |
|   Michael Wormit, Adrian L. Dempwolff, Philipp H. P. Harbach,                |
|   Caroline Krauter, Daniel Lefrancois, Jan-Michael Mewes, Dirk Rehn,         |
|   Matthias Schneider, Jan Wenzel, Andreas Dreuw                              |
|                                                                              |
| Authors of earlier versions of ADCMAN:                                       |
| Andreas Dreuw, Jan Hendrik Starcke, Dirk Rehn, Michael Wormit                |
|                                                                              |
================================================================================

 Created directory /scratch/fum/qchem59528/plots
  Import QC data ...  CPU 0.00 s  wall 0.00 s

 Alpha MOs, Restricted
 -- Occupied --                  
-11.239 -11.237  -1.030  -0.786  -0.635  -0.582  -0.500  -0.374
  1 A     2 A     3 A     4 A     5 A     6 A     7 A     8 A                  
 -- Virtual --                   
  0.168   0.203   0.231   0.236   0.303   0.463   0.580   0.609
  9 A    10 A    11 A    12 A    13 A    14 A    15 A    16 A                  
  0.689   0.705   0.776   0.807   0.858   0.928   0.971   1.006
 17 A    18 A    19 A    20 A    21 A    22 A    23 A    24 A                  
  1.130   1.237   1.241   1.263   1.291   1.593   1.728   1.744
 25 A    26 A    27 A    28 A    29 A    30 A    31 A    32 A                  
  1.811   1.852   1.854   1.901   1.963   1.972   2.224   2.248
 33 A    34 A    35 A    36 A    37 A    38 A    39 A    40 A                  
  2.356   2.423   2.493   2.623   2.679   2.795   3.099   3.369
 41 A    42 A    43 A    44 A    45 A    46 A    47 A    48 A                  

 Beta MOs, Restricted
 -- Occupied --                  
-11.239 -11.237  -1.030  -0.786  -0.635  -0.582  -0.500  -0.374
  1 A     2 A     3 A     4 A     5 A     6 A     7 A     8 A                  
 -- Virtual --                   
  0.168   0.203   0.231   0.236   0.303   0.463   0.580   0.609
  9 A    10 A    11 A    12 A    13 A    14 A    15 A    16 A                  
  0.689   0.705   0.776   0.807   0.858   0.928   0.971   1.006
 17 A    18 A    19 A    20 A    21 A    22 A    23 A    24 A                  
  1.130   1.237   1.241   1.263   1.291   1.593   1.728   1.744
 25 A    26 A    27 A    28 A    29 A    30 A    31 A    32 A                  
  1.811   1.852   1.854   1.901   1.963   1.972   2.224   2.248
 33 A    34 A    35 A    36 A    37 A    38 A    39 A    40 A                  
  2.356   2.423   2.493   2.623   2.679   2.795   3.099   3.369
 41 A    42 A    43 A    44 A    45 A    46 A    47 A    48 A                  
  Import AO data ...  CPU 0.00 s  wall 0.01 s
  Using point group: C1
  Irreducible representations in point group: A
  Molecular orbitals: 
  Occupied MOs:
  Block   0:   1 (  A) A   2 (  A) A   3 (  A) A   4 (  A) A   5 (  A) A
                  -11.24      -11.24       -1.03     -0.7859      -0.635
               6 (  A) A   7 (  A) A   8 (  A) A
                 -0.5823     -0.4995     -0.3744
  Block   1:   1 (  A) B   2 (  A) B   3 (  A) B   4 (  A) B   5 (  A) B
                  -11.24      -11.24       -1.03     -0.7859      -0.635
               6 (  A) B   7 (  A) B   8 (  A) B
                 -0.5823     -0.4995     -0.3744
  Virtual MOs:
  Block   0:   9 (  A) A  10 (  A) A  11 (  A) A  12 (  A) A  13 (  A) A
                  0.1679      0.2026       0.231      0.2364       0.303
              14 (  A) A  15 (  A) A  16 (  A) A  17 (  A) A  18 (  A) A
                  0.4628      0.5798      0.6089      0.6887      0.7048
              19 (  A) A  20 (  A) A  21 (  A) A  22 (  A) A
                  0.7757      0.8074      0.8584       0.928
  Block   1:  23 (  A) A  24 (  A) A  25 (  A) A  26 (  A) A  27 (  A) A
                  0.9706       1.006        1.13       1.237       1.241
              28 (  A) A  29 (  A) A  30 (  A) A  31 (  A) A  32 (  A) A
                   1.263       1.291       1.593       1.728       1.744
              33 (  A) A  34 (  A) A  35 (  A) A  36 (  A) A
                   1.811       1.852       1.854       1.901
  Block   2:  37 (  A) A  38 (  A) A  39 (  A) A  40 (  A) A  41 (  A) A
                   1.963       1.972       2.224       2.248       2.356
              42 (  A) A  43 (  A) A  44 (  A) A  45 (  A) A  46 (  A) A
                   2.423       2.493       2.623       2.679       2.795
              47 (  A) A  48 (  A) A
                   3.099       3.369
  Block   3:   9 (  A) B  10 (  A) B  11 (  A) B  12 (  A) B  13 (  A) B
                  0.1679      0.2026       0.231      0.2364       0.303
              14 (  A) B  15 (  A) B  16 (  A) B  17 (  A) B  18 (  A) B
                  0.4628      0.5798      0.6089      0.6887      0.7048
              19 (  A) B  20 (  A) B  21 (  A) B  22 (  A) B
                  0.7757      0.8074      0.8584       0.928
  Block   4:  23 (  A) B  24 (  A) B  25 (  A) B  26 (  A) B  27 (  A) B
                  0.9706       1.006        1.13       1.237       1.241
              28 (  A) B  29 (  A) B  30 (  A) B  31 (  A) B  32 (  A) B
                   1.263       1.291       1.593       1.728       1.744
              33 (  A) B  34 (  A) B  35 (  A) B  36 (  A) B
                   1.811       1.852       1.854       1.901
  Block   5:  37 (  A) B  38 (  A) B  39 (  A) B  40 (  A) B  41 (  A) B
                   1.963       1.972       2.224       2.248       2.356
              42 (  A) B  43 (  A) B  44 (  A) B  45 (  A) B  46 (  A) B
                   2.423       2.493       2.623       2.679       2.795
              47 (  A) B  48 (  A) B
                   3.099       3.369
  Import MO data ...  CPU 0.01 s  wall 0.01 s
  Import HF data ...  CPU 0.45 s  wall 0.16 s
  Import 2e integrals ...  CPU 1.63 s  wall 0.28 s

--------------------------------------------------------------------------------
                                   HF Summary                                   
--------------------------------------------------------------------------------
  Energy:                                                  -78.0396513021 a.u.
  Dip. moment [a.u.]:                  [   0.000037,    0.000030,   -0.000429]
  Total dipole [Debye]:                                               0.001096
  <r^2> [a.u.]:                        [ 175.872578,   35.298533,   11.678611]
  Total <r^2> [a.u.]:                                               222.849723
--------------------------------------------------------------------------------
  HF properties ...  CPU 0.02 s  wall 0.01 s
  MP(1) calculation ...  CPU 0.01 s  wall 0.01 s
  N^6 prerequesite intermediates ...  CPU 0.87 s  wall 0.15 s
  Difference density matrix of state mp2_gs printed to ASCII file 'State_mp2_gs_Difference.txt'
Exporting MP density matrix to file 'Densmat_MP.txt'.
Export successful
  Total density matrix of state mp2_gs printed to ASCII file 'State_mp2_gs_Total.txt'
Exporting MP density matrix to file 'Densmat_MP.txt'.
Export successful

--------------------------------------------------------------------------------
                                 MP(2) Summary                                  
--------------------------------------------------------------------------------
  MP energy contribution:                                   -0.2804887464 a.u.
  Total energy:                                            -78.3201400485 a.u.
  Dip. moment [a.u.]:                  [   0.000030,    0.000032,   -0.000423]
  Total dipole [Debye]:                                               0.001082
  <r^2> [a.u.]:                        [ 175.912716,   35.334435,   11.506150]
  Total <r^2> [a.u.]:                                               222.753301

  Density matrix analysis:
  ------------------------
  NOs
    Occupation of frontier NOs:
       0.0455   1.9380
    Number of electrons: 16.000000
    Number of unpaired electrons: n_u =  0.40725, n_u,nl =  0.04580
    NO participation ratio (PR_NO): 13.896569
  
  
  Mulliken Population Analysis
  Atom      Charge (e)              h+              e-           Del q
  --------------------------------------------------------------------
   1 H        0.054998        0.013907       -0.011310        0.002597
   2 C       -0.110216        0.094612       -0.099806       -0.005194
   3 H        0.055000        0.013905       -0.011310        0.002595
   4 C       -0.109677        0.094577       -0.099774       -0.005197
   5 H        0.054938        0.013907       -0.011308        0.002599
   6 H        0.054956        0.013908       -0.011308        0.002600
  --------------------------------------------------------------------
  Sum:       -0.000000        0.244816       -0.244816        0.000000
  
  Multipole moment analysis of the density matrix
    Molecular charge:                      0.000000
    Number of electrons:                   16.000000
      Center of electronic charge [Ang]: [ -1.561620,  -0.065020,   0.002618]
    Total nuclear charge:                  16.000000
      Center of nuclear charge [Ang]:    [ -1.561619,  -0.065019,   0.002604]
    Dipole moment [D]:                     0.001082
      Cartesian components [D]:          [  0.000075,   0.000080,  -0.001076]
    RMS size of the density [Ang]:         1.206519
      Cartesian components [Ang]:        [  0.800081,   0.783701,   0.448744]
  
  Exciton analysis of the difference density matrix
    <r_h> [Ang]:                  [ -1.561570,  -0.065088,   0.002685]
    <r_e> [Ang]:                  [ -1.561554,  -0.065091,   0.002674]
    |<r_e - r_h>| [Ang]:            0.000020
    Hole size [Ang]:                1.401654
      Cartesian components [Ang]: [  0.853019,   0.840219,   0.728716]
    Electron size [Ang]:            1.361761
      Cartesian components [Ang]: [  0.879546,   0.864311,   0.577719]
--------------------------------------------------------------------------------
  MP(2) calculation ...  CPU 0.29 s  wall 0.22 s
  Start ADC(2)-s ...  CPU 0.02 s  wall 0.01 s
  ADC(2) intermediates ...  CPU 0.05 s  wall 0.02 s
  Starting Davidson for singlet states of irrep A ... 
--------------------------------------------------------------------------------
   It NVec Conv  Avg. Norm  Max. Norm  Conv. states           Remark
--------------------------------------------------------------------------------
        10    0  1.329e-01  4.687e-01  0.4117 n n n n n n n n Guess.
    1   20    0  2.314e-02  1.125e-01  0.3261 n n n n n n n n 
    2   30    0  5.907e-03  2.462e-02  0.3213 n n n n n n n n 
    3   40    0  1.947e-03  1.049e-02  0.3209 n n n n n n n n 
    4   50    0  5.168e-04  3.451e-03  0.3209 n n n n n n n n 
    5   20    0  2.631e-04  1.666e-03  0.3209 n n n n n n n n Subspace collapsed.
    6   30    0  1.212e-04  7.776e-04  0.3209 n n n n n n n n 
    7   40    0  9.979e-05  7.761e-04  0.3209 n n n n n n n n 
    8   50    0  4.847e-05  3.375e-04  0.3209 n n n n n n n n 
    9   20    2  2.693e-05  2.053e-04  0.3209 n y n y n n n n Subspace collapsed.
   10   30    3  2.162e-05  1.882e-04  0.3209 n y y y n n n n 
   11   40    4  9.771e-06  7.932e-05  0.3209 n y y y y n n n 
   12   50    6  4.425e-06  2.800e-05  0.3209 y y y y y y n n 
   13   20    6  2.644e-06  1.658e-05  0.3209 y y y y y y n n Subspace collapsed.
   14   30    6  2.579e-06  1.635e-05  0.3209 y y y y y y n n 
   15   40    6  1.725e-06  1.224e-05  0.3209 y y y y y y n n 
   16   50    6  1.265e-06  9.160e-06  0.3209 y y y y y y n n 
   17   20    6  5.030e-07  3.486e-06  0.3209 y y y y y y n n Subspace collapsed.
   18   30    6  3.532e-07  2.334e-06  0.3209 y y y y y y n n 
   19   40    7  2.595e-07  1.774e-06  0.3209 y y y y y y y n 
   20   50    8  1.792e-07  1.289e-06  0.3209 y y y y y y y y 
   21   20   10  1.264e-07  9.218e-07  0.3209 y y y y y y y y Converged.
--------------------------------------------------------------------------------
  Davidson Summary: 
 ------------------------------------------------------------
  State  0: excitation energy =   0.3209 a.u.   (converged)
  State  1: excitation energy =   0.3290 a.u.   (converged)
  State  2: excitation energy =   0.3359 a.u.   (converged)
  State  3: excitation energy =   0.3579 a.u.   (converged)
  State  4: excitation energy =   0.3733 a.u.   (converged)
  State  5: excitation energy =   0.3866 a.u.   (converged)
  State  6: excitation energy =   0.4202 a.u.   (converged)
  State  7: excitation energy =   0.4435 a.u.   (converged)
  State  8: excitation energy =   0.4537 a.u.   (converged)
  State  9: excitation energy =   0.4585 a.u.   (converged)
 ------------------------------------------------------------

  Singlet states of irrep A ...  CPU 147.60 s  wall 47.55 s
  TDMs ...  CPU 2.21 s  wall 0.84 s
  SDMs ...  CPU 4.42 s  wall 1.43 s
  Starting TPA DIIS iterations ... 
------------------------------------ 
   It     Res. Norm  Remark
------------------------------------
                       Guess.
    1     4.397e+00  
    2     5.834e+00  
    3     1.086e+00  
    4     2.634e-01  
    5     6.572e-02  
    6     2.779e-02  
    7     8.479e-03  
    8     1.552e-03  
    9     5.831e-04  
   10     9.781e-05  
   11     3.156e-05  
   12     4.883e-06  
   13     1.647e-06  
   14     4.797e-07  Converged.
   ... Converged in 14 steps (norm: 4.79673e-07)
------------------------------------
  Starting TPA DIIS iterations ... 
------------------------------------ 
   It     Res. Norm  Remark
------------------------------------
                       Guess.
    1     4.188e+00  
    2     5.546e+00  
    3     1.037e+00  
    4     2.614e-01  
    5     6.545e-02  
    6     2.777e-02  
    7     8.334e-03  
    8     1.570e-03  
    9     5.916e-04  
   10     9.726e-05  
   11     3.183e-05  
   12     4.847e-06  
   13     1.672e-06  
   14     4.751e-07  Converged.
   ... Converged in 14 steps (norm: 4.75061e-07)
------------------------------------
  Starting TPA DIIS iterations ... 
------------------------------------ 
   It     Res. Norm  Remark
------------------------------------
                       Guess.
    1     6.867e-01  
    2     4.825e-01  
    3     1.698e-01  
    4     8.088e-02  
    5     1.820e-02  
    6     6.471e-03  
    7     1.071e-03  
    8     4.584e-04  
    9     1.262e-04  
   10     3.108e-05  
   11     5.068e-06  
   12     1.856e-06  
   13     1.004e-06  
   14     3.292e-07  Converged.
   ... Converged in 14 steps (norm: 3.29214e-07)
------------------------------------
  Starting TPA DIIS iterations ... 
------------------------------------ 
   It     Res. Norm  Remark
------------------------------------
                       Guess.
    1     4.593e+00  
    2     6.185e+00  
    3     1.142e+00  
    4     2.834e-01  
    5     7.139e-02  
    6     3.039e-02  
    7     9.260e-03  
    8     1.694e-03  
    9     6.396e-04  
   10     1.077e-04  
   11     3.500e-05  
   12     5.447e-06  
   13     1.846e-06  
   14     5.363e-07  Converged.
   ... Converged in 14 steps (norm: 5.36348e-07)
------------------------------------
  Starting TPA DIIS iterations ... 
------------------------------------ 
   It     Res. Norm  Remark
------------------------------------
                       Guess.
    1     4.374e+00  
    2     5.879e+00  
    3     1.090e+00  
    4     2.810e-01  
    5     7.111e-02  
    6     3.038e-02  
    7     9.104e-03  
    8     1.715e-03  
    9     6.493e-04  
   10     1.071e-04  
   11     3.528e-05  
   12     5.405e-06  
   13     1.875e-06  
   14     5.311e-07  Converged.
   ... Converged in 14 steps (norm: 5.31075e-07)
------------------------------------
  Starting TPA DIIS iterations ... 
------------------------------------ 
   It     Res. Norm  Remark
------------------------------------
                       Guess.
    1     6.952e-01  
    2     4.946e-01  
    3     1.766e-01  
    4     8.819e-02  
    5     1.914e-02  
    6     6.900e-03  
    7     1.163e-03  
    8     5.138e-04  
    9     1.439e-04  
   10     3.448e-05  
   11     5.523e-06  
   12     2.071e-06  
   13     1.153e-06  
   14     3.764e-07  Converged.
   ... Converged in 14 steps (norm: 3.76379e-07)
------------------------------------
  Starting TPA DIIS iterations ... 
------------------------------------ 
   It     Res. Norm  Remark
------------------------------------
                       Guess.
    1     4.772e+00  
    2     6.511e+00  
    3     1.193e+00  
    4     3.023e-01  
    5     7.675e-02  
    6     3.286e-02  
    7     1.000e-02  
    8     1.828e-03  
    9     6.932e-04  
   10     1.171e-04  
   11     3.829e-05  
   12     5.989e-06  
   13     2.040e-06  
   14     5.908e-07  Converged.
   ... Converged in 14 steps (norm: 5.90828e-07)
------------------------------------
  Starting TPA DIIS iterations ... 
------------------------------------ 
   It     Res. Norm  Remark
------------------------------------
                       Guess.
    1     4.544e+00  
    2     6.189e+00  
    3     1.138e+00  
    4     2.996e-01  
    5     7.645e-02  
    6     3.286e-02  
    7     9.831e-03  
    8     1.851e-03  
    9     7.040e-04  
   10     1.165e-04  
   11     3.859e-05  
   12     5.940e-06  
   13     2.073e-06  
   14     5.850e-07  Converged.
   ... Converged in 14 steps (norm: 5.84951e-07)
------------------------------------
  Starting TPA DIIS iterations ... 
------------------------------------ 
   It     Res. Norm  Remark
------------------------------------
                       Guess.
    1     7.026e-01  
    2     5.055e-01  
    3     1.827e-01  
    4     9.512e-02  
    5     2.001e-02  
    6     7.304e-03  
    7     1.251e-03  
    8     5.681e-04  
    9     1.612e-04  
   10     3.726e-05  
   11     5.947e-06  
   12     2.279e-06  
   13     1.300e-06  
   14     4.226e-07  Converged.
   ... Converged in 14 steps (norm: 4.22568e-07)
------------------------------------
  Starting TPA DIIS iterations ... 
------------------------------------ 
   It     Res. Norm  Remark
------------------------------------
                       Guess.
    1     5.423e+00  
    2     7.721e+00  
    3     1.377e+00  
    4     3.745e-01  
    5     9.727e-02  
    6     4.242e-02  
    7     1.283e-02  
    8     2.341e-03  
    9     9.007e-04  
   10     1.537e-04  
   11     5.128e-05  
   12     8.129e-06  
   13     2.819e-06  
   14     8.074e-07  Converged.
   ... Converged in 14 steps (norm: 8.07382e-07)
------------------------------------
  Starting TPA DIIS iterations ... 
------------------------------------ 
   It     Res. Norm  Remark
------------------------------------
                       Guess.
    1     5.161e+00  
    2     7.338e+00  
    3     1.313e+00  
    4     3.704e-01  
    5     9.691e-02  
    6     4.247e-02  
    7     1.262e-02  
    8     2.375e-03  
    9     9.154e-04  
   10     1.529e-04  
   11     5.161e-05  
   12     8.054e-06  
   13     2.868e-06  
   14     7.995e-07  Converged.
   ... Converged in 14 steps (norm: 7.99546e-07)
------------------------------------
  Starting TPA DIIS iterations ... 
------------------------------------ 
   It     Res. Norm  Remark
------------------------------------
                       Guess.
    1     7.270e-01  
    2     5.429e-01  
    3     2.045e-01  
    4     1.217e-01  
    5     2.320e-02  
    6     8.848e-03  
    7     1.602e-03  
    8     7.859e-04  
    9     2.296e-04  
   10     4.415e-05  
   11     7.535e-06  
   12     3.096e-06  
   13     1.908e-06  
   14     6.113e-07  Converged.
   ... Converged in 14 steps (norm: 6.11343e-07)
------------------------------------
  Starting TPA DIIS iterations ... 
------------------------------------ 
   It     Res. Norm  Remark
------------------------------------
                       Guess.
    1     5.972e+00  
    2     8.779e+00  
    3     1.532e+00  
    4     4.402e-01  
    5     1.159e-01  
    6     5.123e-02  
    7     1.542e-02  
    8     2.805e-03  
    9     1.091e-03  
   10     1.874e-04  
   11     6.347e-05  
   12     1.014e-05  
   13     3.570e-06  
   14     1.015e-06  
   15     3.358e-07  Converged.
   ... Converged in 15 steps (norm: 3.35771e-07)
------------------------------------
  Starting TPA DIIS iterations ... 
------------------------------------ 
   It     Res. Norm  Remark
------------------------------------
                       Guess.
    1     5.683e+00  
    2     8.343e+00  
    3     1.460e+00  
    4     4.348e-01  
    5     1.155e-01  
    6     5.134e-02  
    7     1.517e-02  
    8     2.851e-03  
    9     1.110e-03  
   10     1.865e-04  
   11     6.382e-05  
   12     1.004e-05  
   13     3.632e-06  
   14     1.006e-06  
   15     3.305e-07  Converged.
   ... Converged in 15 steps (norm: 3.3054e-07)
------------------------------------
  Starting TPA DIIS iterations ... 
------------------------------------ 
   It     Res. Norm  Remark
------------------------------------
                       Guess.
    1     7.453e-01  
    2     5.726e-01  
    3     2.223e-01  
    4     1.456e-01  
    5     2.600e-02  
    6     1.025e-02  
    7     1.938e-03  
    8     9.851e-04  
    9     2.904e-04  
   10     4.680e-05  
   11     8.974e-06  
   12     3.844e-06  
   13     2.492e-06  
   14     7.959e-07  Converged.
   ... Converged in 14 steps (norm: 7.95881e-07)
------------------------------------
  Starting TPA DIIS iterations ... 
------------------------------------ 
   It     Res. Norm  Remark
------------------------------------
                       Guess.
    1     6.524e+00  
    2     9.868e+00  
    3     1.685e+00  
    4     5.098e-01  
    5     1.357e-01  
    6     6.068e-02  
    7     1.816e-02  
    8     3.297e-03  
    9     1.296e-03  
   10     2.235e-04  
   11     7.663e-05  
   12     1.231e-05  
   13     4.392e-06  
   14     1.246e-06  
   15     4.175e-07  Converged.
   ... Converged in 15 steps (norm: 4.17537e-07)
------------------------------------
  Starting TPA DIIS iterations ... 
------------------------------------ 
   It     Res. Norm  Remark
------------------------------------
                       Guess.
    1     6.206e+00  
    2     9.378e+00  
    3     1.606e+00  
    4     5.030e-01  
    5     1.352e-01  
    6     6.084e-02  
    7     1.786e-02  
    8     3.354e-03  
    9     1.318e-03  
   10     2.224e-04  
   11     7.697e-05  
   12     1.218e-05  
   13     4.468e-06  
   14     1.237e-06  
   15     4.094e-07  Converged.
   ... Converged in 15 steps (norm: 4.09371e-07)
------------------------------------
  Starting TPA DIIS iterations ... 
------------------------------------ 
   It     Res. Norm  Remark
------------------------------------
                       Guess.
    1     7.619e-01  
    2     6.010e-01  
    3     2.398e-01  
    4     1.704e-01  
    5     2.889e-02  
    6     1.174e-02  
    7     2.310e-03  
    8     1.184e-03  
    9     3.509e-04  
   10     4.807e-05  
   11     1.053e-05  
   12     4.622e-06  
   13     3.113e-06  
   14     1.002e-06  
   15     3.677e-07  Converged.
   ... Converged in 15 steps (norm: 3.67696e-07)
------------------------------------
  Starting TPA DIIS iterations ... 
------------------------------------ 
   It     Res. Norm  Remark
------------------------------------
                       Guess.
    1     8.344e+00  
    2     1.366e+01  
    3     2.186e+00  
    4     7.634e-01  
    5     2.077e-01  
    6     9.577e-02  
    7     2.815e-02  
    8     5.083e-03  
    9     2.051e-03  
   10     3.568e-04  
   11     1.249e-04  
   12     2.040e-05  
   13     7.436e-06  
   14     2.188e-06  
   15     7.370e-07  Converged.
   ... Converged in 15 steps (norm: 7.37013e-07)
------------------------------------
  Starting TPA DIIS iterations ... 
------------------------------------ 
   It     Res. Norm  Remark
------------------------------------
                       Guess.
    1     7.935e+00  
    2     1.298e+01  
    3     2.081e+00  
    4     7.502e-01  
    5     2.071e-01  
    6     9.621e-02  
    7     2.771e-02  
    8     5.186e-03  
    9     2.089e-03  
   10     3.551e-04  
   11     1.251e-04  
   12     2.015e-05  
   13     7.555e-06  
   14     2.181e-06  
   15     7.112e-07  Converged.
   ... Converged in 15 steps (norm: 7.11229e-07)
------------------------------------
  Starting TPA DIIS iterations ... 
------------------------------------ 
   It     Res. Norm  Remark
------------------------------------
                       Guess.
    1     8.078e-01  
    2     6.871e-01  
    3     2.946e-01  
    4     2.523e-01  
    5     3.903e-02  
    6     1.714e-02  
    7     3.767e-03  
    8     1.727e-03  
    9     5.361e-04  
   10     5.514e-05  
   11     1.651e-05  
   12     7.264e-06  
   13     5.103e-06  
   14     1.820e-06  
   15     5.984e-07  Converged.
   ... Converged in 15 steps (norm: 5.98425e-07)
------------------------------------
  Starting TPA DIIS iterations ... 
------------------------------------ 
   It     Res. Norm  Remark
------------------------------------
                       Guess.
    1     1.014e+01  
    2     1.767e+01  
    3     2.668e+00  
    4     1.042e+00  
    5     2.873e-01  
    6     1.355e-01  
    7     3.921e-02  
    8     7.050e-03  
    9     2.903e-03  
   10     5.060e-04  
   11     1.765e-04  
   12     2.963e-05  
   13     1.071e-05  
   14     3.387e-06  
   15     1.174e-06  
   16     2.430e-07  Converged.
   ... Converged in 16 steps (norm: 2.42997e-07)
------------------------------------
  Starting TPA DIIS iterations ... 
------------------------------------ 
   It     Res. Norm  Remark
------------------------------------
                       Guess.
    1     9.642e+00  
    2     1.678e+01  
    3     2.539e+00  
    4     1.020e+00  
    5     2.865e-01  
    6     1.363e-01  
    7     3.861e-02  
    8     7.208e-03  
    9     2.956e-03  
   10     5.034e-04  
   11     1.768e-04  
   12     2.926e-05  
   13     1.087e-05  
   14     3.381e-06  
   15     1.119e-06  
   16     2.688e-07  Converged.
   ... Converged in 16 steps (norm: 2.68804e-07)
------------------------------------
  Starting TPA DIIS iterations ... 
------------------------------------ 
   It     Res. Norm  Remark
------------------------------------
                       Guess.
    1     8.440e-01  
    2     7.641e-01  
    3     3.455e-01  
    4     3.254e-01  
    5     4.969e-02  
    6     2.287e-02  
    7     5.467e-03  
    8     2.024e-03  
    9     6.991e-04  
   10     7.197e-05  
   11     2.350e-05  
   12     9.921e-06  
   13     6.746e-06  
   14     2.776e-06  
   15     8.001e-07  Converged.
   ... Converged in 15 steps (norm: 8.00092e-07)
------------------------------------
  Starting TPA DIIS iterations ... 
------------------------------------ 
   It     Res. Norm  Remark
------------------------------------
                       Guess.
    1     1.113e+01  
    2     1.997e+01  
    3     2.929e+00  
    4     1.204e+00  
    5     3.343e-01  
    6     1.593e-01  
    7     4.574e-02  
    8     8.207e-03  
    9     3.410e-03  
   10     5.943e-04  
   11     2.059e-04  
   12     3.530e-05  
   13     1.266e-05  
   14     4.150e-06  
   15     1.518e-06  
   16     3.133e-07  Converged.
   ... Converged in 16 steps (norm: 3.13254e-07)
------------------------------------
  Starting TPA DIIS iterations ... 
------------------------------------ 
   It     Res. Norm  Remark
------------------------------------
                       Guess.
    1     1.058e+01  
    2     1.898e+01  
    3     2.787e+00  
    4     1.178e+00  
    5     3.334e-01  
    6     1.603e-01  
    7     4.504e-02  
    8     8.398e-03  
    9     3.473e-03  
   10     5.912e-04  
   11     2.062e-04  
   12     3.485e-05  
   13     1.284e-05  
   14     4.140e-06  
   15     1.442e-06  
   16     3.440e-07  Converged.
   ... Converged in 16 steps (norm: 3.44021e-07)
------------------------------------
  Starting TPA DIIS iterations ... 
------------------------------------ 
   It     Res. Norm  Remark
------------------------------------
                       Guess.
    1     8.614e-01  
    2     8.043e-01  
    3     3.723e-01  
    4     3.605e-01  
    5     5.577e-02  
    6     2.605e-02  
    7     6.477e-03  
    8     2.111e-03  
    9     7.834e-04  
   10     8.368e-05  
   11     2.770e-05  
   12     1.146e-05  
   13     7.717e-06  
   14     3.315e-06  
   15     9.001e-07  Converged.
   ... Converged in 15 steps (norm: 9.0008e-07)
------------------------------------
  Starting TPA DIIS iterations ... 
------------------------------------ 
   It     Res. Norm  Remark
------------------------------------
                       Guess.
    1     1.165e+01  
    2     2.120e+01  
    3     3.063e+00  
    4     1.290e+00  
    5     3.595e-01  
    6     1.722e-01  
    7     4.924e-02  
    8     8.827e-03  
    9     3.684e-03  
   10     6.418e-04  
   11     2.214e-04  
   12     3.843e-05  
   13     1.375e-05  
   14     4.574e-06  
   15     1.734e-06  
   16     3.572e-07  Converged.
   ... Converged in 16 steps (norm: 3.5723e-07)
------------------------------------
  Starting TPA DIIS iterations ... 
------------------------------------ 
   It     Res. Norm  Remark
------------------------------------
                       Guess.
    1     1.107e+01  
    2     2.014e+01  
    3     2.915e+00  
    4     1.261e+00  
    5     3.586e-01  
    6     1.733e-01  
    7     4.850e-02  
    8     9.037e-03  
    9     3.752e-03  
   10     6.384e-04  
   11     2.218e-04  
   12     3.793e-05  
   13     1.393e-05  
   14     4.561e-06  
   15     1.645e-06  
   16     3.867e-07  Converged.
   ... Converged in 16 steps (norm: 3.86713e-07)
------------------------------------
  Starting TPA DIIS iterations ... 
------------------------------------ 
   It     Res. Norm  Remark
------------------------------------
                       Guess.
    1     8.699e-01  
    2     8.247e-01  
    3     3.859e-01  
    4     3.771e-01  
    5     5.898e-02  
    6     2.768e-02  
    7     7.017e-03  
    8     2.144e-03  
    9     8.262e-04  
   10     9.010e-05  
   11     2.996e-05  
   12     1.230e-05  
   13     8.325e-06  
   14     3.584e-06  
   15     9.506e-07  Converged.
   ... Converged in 15 steps (norm: 9.5063e-07)
------------------------------------
  Two-photon absorbption ...  CPU 158.25 s  wall 43.23 s
  Transition density matrix of state singlet_A_1 printed to ASCII file 'State_singlet_A_1_Transition.txt'
  Transition density matrix of state singlet_A_2 printed to ASCII file 'State_singlet_A_2_Transition.txt'
  Transition density matrix of state singlet_A_3 printed to ASCII file 'State_singlet_A_3_Transition.txt'
  Transition density matrix of state singlet_A_4 printed to ASCII file 'State_singlet_A_4_Transition.txt'
  Transition density matrix of state singlet_A_5 printed to ASCII file 'State_singlet_A_5_Transition.txt'
  Transition density matrix of state singlet_A_6 printed to ASCII file 'State_singlet_A_6_Transition.txt'
  Transition density matrix of state singlet_A_7 printed to ASCII file 'State_singlet_A_7_Transition.txt'
  Transition density matrix of state singlet_A_8 printed to ASCII file 'State_singlet_A_8_Transition.txt'
  Transition density matrix of state singlet_A_9 printed to ASCII file 'State_singlet_A_9_Transition.txt'
  Transition density matrix of state singlet_A_10 printed to ASCII file 'State_singlet_A_10_Transition.txt'
  Transition properties ...  CPU 0.77 s  wall 0.72 s
  Difference density matrix of state singlet_A_1 printed to ASCII file 'State_singlet_A_1_Difference.txt'
  Total density matrix of state singlet_A_1 printed to ASCII file 'State_singlet_A_1_Total.txt'
  Difference density matrix of state singlet_A_2 printed to ASCII file 'State_singlet_A_2_Difference.txt'
  Total density matrix of state singlet_A_2 printed to ASCII file 'State_singlet_A_2_Total.txt'
  Difference density matrix of state singlet_A_3 printed to ASCII file 'State_singlet_A_3_Difference.txt'
  Total density matrix of state singlet_A_3 printed to ASCII file 'State_singlet_A_3_Total.txt'
  Difference density matrix of state singlet_A_4 printed to ASCII file 'State_singlet_A_4_Difference.txt'
  Total density matrix of state singlet_A_4 printed to ASCII file 'State_singlet_A_4_Total.txt'
  Difference density matrix of state singlet_A_5 printed to ASCII file 'State_singlet_A_5_Difference.txt'
  Total density matrix of state singlet_A_5 printed to ASCII file 'State_singlet_A_5_Total.txt'
  Difference density matrix of state singlet_A_6 printed to ASCII file 'State_singlet_A_6_Difference.txt'
  Total density matrix of state singlet_A_6 printed to ASCII file 'State_singlet_A_6_Total.txt'
  Difference density matrix of state singlet_A_7 printed to ASCII file 'State_singlet_A_7_Difference.txt'
  Total density matrix of state singlet_A_7 printed to ASCII file 'State_singlet_A_7_Total.txt'
  Difference density matrix of state singlet_A_8 printed to ASCII file 'State_singlet_A_8_Difference.txt'
  Total density matrix of state singlet_A_8 printed to ASCII file 'State_singlet_A_8_Total.txt'
  Difference density matrix of state singlet_A_9 printed to ASCII file 'State_singlet_A_9_Difference.txt'
  Total density matrix of state singlet_A_9 printed to ASCII file 'State_singlet_A_9_Total.txt'
  Difference density matrix of state singlet_A_10 printed to ASCII file 'State_singlet_A_10_Difference.txt'
  Total density matrix of state singlet_A_10 printed to ASCII file 'State_singlet_A_10_Total.txt'
  Properties ...  CPU 0.87 s  wall 1.01 s
  ISR TDMS ...  CPU 30.93 s  wall 9.81 s
  ISR transition properties ...  CPU 0.54 s  wall 0.26 s
  Sum-over-states TPA ...  CPU 0.00 s  wall 0.00 s

--------------------------------------------------------------------------------
                   State-averaged natural transition orbitals
--------------------------------------------------------------------------------
--------------------------------------------------------------------------------
  SA-NTO decomposition ...  CPU 0.02 s  wall 0.03 s

--------------------------------------------------------------------------------
                             Excited State Summary
--------------------------------------------------------------------------------
--------------------------------------------------------------------------------

  Excited state 1 (singlet, A)                                     [converged]
  ----------------------------------------------------------------------------
  Term symbol:  2 (1) A                                     R^2 =  4.32144e-11

  Total energy:                                            -77.9992526938 a.u.
  Excitation energy:                                               8.731789 eV

  Osc. strength:                                                      0.446203
  Trans. dip. moment [a.u.]:           [  -1.047159,    0.994533,    0.012425]
  <i|r^2|0> [a.u.]:                    [  -6.180466,    0.244644,   -0.000186]
  Two-photon absorption cross-section (SoS) [a.u.]:                   0.000016
  Two-photon absorption matrix (SoS) [a.u.]:
                                       |    0.000684    0.000834   -0.000367 |
                                       |    0.000834    0.000864    0.000466 |
                                       |   -0.000367    0.000466   -0.000429 |
  Two-photon absorption cross-section [a.u.]:                         0.000018
  Two-photon absorption matrix [a.u.]:
                                       |   -0.000473    0.000319   -0.000537 |
                                       |    0.000319   -0.000375    0.001013 |
                                       |   -0.000537    0.001013   -0.000577 |

  Dip. moment [a.u.]:                  [   0.000024,    0.000042,   -0.000517]
  Total dipole [Debye]:                                               0.001320
  <r^2> [a.u.]:                        [ 176.659010,   36.021046,   11.917203]
  Total <r^2> [a.u.]:                                               224.597260

  V1^2 = 0.9713, V2^2 = 0.0287

  Important amplitudes:
      occ i     occ j     vir a      vir b          v   
    -----------------------------------------------------
     8 (A) A              9 (A) A                 0.6809
     6 (A) A             14 (A) A                 0.0617
     4 (A) A             10 (A) A                 0.0614
     7 (A) A             16 (A) A                -0.0575
     5 (A) A             13 (A) A                -0.0527
     6 (A) A             23 (A) A                 0.0485
     8 (A) A             20 (A) A                 0.0348
     6 (A) A             19 (A) A                 0.0302
     3 (A) A             12 (A) A                -0.0285
     5 (A) A             22 (A) A                 0.0218
     4 (A) A             24 (A) A                 0.0188
     3 (A) A             26 (A) A                -0.0187
     7 (A) A             11 (A) A                 0.0186
     8 (A) A   8 (A) B   17 (A) A   20 (A) B     -0.0184
     8 (A) A   8 (A) B    9 (A) A   28 (A) B      0.0168
     6 (A) A             26 (A) A                -0.0163
     7 (A) A             21 (A) A                 0.0152
     3 (A) A             14 (A) A                 0.0143
     6 (A) A             12 (A) A                 0.0136
     3 (A) A   4 (A) B    9 (A) A    9 (A) B     -0.0129
     3 (A) A             19 (A) A                 0.0121
     8 (A) A   8 (A) B   18 (A) A   19 (A) B     -0.0111
     7 (A) A             32 (A) A                 0.0097
     7 (A) A             36 (A) A                -0.0086
     3 (A) A             23 (A) A                 0.0082
     8 (A) A   8 (A) B   25 (A) A   29 (A) B      0.0076
     6 (A) A             35 (A) A                -0.0071
     6 (A) A             40 (A) A                -0.0067
     3 (A) A   6 (A) B    9 (A) A   28 (A) B      0.0065
     5 (A) A   8 (A) B   11 (A) A    9 (A) B      0.0062
     7 (A) A   8 (A) B   13 (A) A   20 (A) B      0.0060
     5 (A) A   8 (A) B   11 (A) A   20 (A) B     -0.0060
     5 (A) A   7 (A) B    9 (A) A    9 (A) B     -0.0060
     6 (A) A   8 (A) A   19 (A) A   28 (A) A     -0.0060
     5 (A) A             27 (A) A                -0.0060
     5 (A) A   8 (A) B   16 (A) A    9 (A) B      0.0059
     3 (A) A   5 (A) B    9 (A) A   25 (A) B     -0.0058
     7 (A) A   8 (A) B   22 (A) A   20 (A) B     -0.0057
     3 (A) A             40 (A) A                -0.0056
     8 (A) A   8 (A) B   19 (A) A   30 (A) B     -0.0056
    -----------------------------------------------------

  Density matrix analysis:
  ------------------------
  NOs
    Occupation of frontier NOs:
       0.9491   1.0219
    Number of electrons: 16.000000
    Number of unpaired electrons: n_u =  2.31678, n_u,nl =  2.03329
    NO participation ratio (PR_NO):  2.874062
  
  
  Mulliken Population Analysis
  Atom      Charge (e)              h+              e-           Del q
  --------------------------------------------------------------------
   1 H        0.063017        0.020437       -0.012419        0.008019
   2 C       -0.126278        0.490658       -0.506721       -0.016062
   3 H        0.063027        0.020442       -0.012416        0.008027
   4 C       -0.125687        0.490672       -0.506682       -0.016010
   5 H        0.062955        0.020438       -0.012422        0.008017
   6 H        0.062966        0.020435       -0.012425        0.008010
  --------------------------------------------------------------------
  Sum:       -0.000000        1.063084       -1.063084        0.000000
  
  Multipole moment analysis of the density matrix
    Molecular charge:                      -0.000000
    Number of electrons:                   16.000000
      Center of electronic charge [Ang]: [ -1.561620,  -0.065020,   0.002621]
    Total nuclear charge:                  16.000000
      Center of nuclear charge [Ang]:    [ -1.561619,  -0.065019,   0.002604]
    Dipole moment [D]:                     0.001320
      Cartesian components [D]:          [  0.000061,   0.000106,  -0.001315]
    RMS size of the density [Ang]:         1.219820
      Cartesian components [Ang]:        [  0.808203,   0.791331,   0.456690]
  
  Exciton analysis of the difference density matrix
    <r_h> [Ang]:                  [ -1.561669,  -0.064988,   0.002829]
    <r_e> [Ang]:                  [ -1.561666,  -0.064993,   0.002876]
    |<r_e - r_h>| [Ang]:            0.000047
    Hole size [Ang]:                1.287298
      Cartesian components [Ang]: [  0.730116,   0.714800,   0.783026]
    Electron size [Ang]:            1.463853
      Cartesian components [Ang]: [  0.854202,   0.831745,   0.849356]

  Transition density matrix analysis:
  -----------------------------------
  
  CT numbers (Mulliken)
    omega =     0.9532
    <Phe> =    -0.1603
  
  Exciton analysis of the transition density matrix
    Trans. dipole moment [D]:             1.835430
      Cartesian components [D]:         [ -1.330806,   1.263926,   0.015791]
    <r_h> [Ang]:                        [ -1.561693,  -0.064958,   0.002790]
    <r_e> [Ang]:                        [ -1.561664,  -0.064999,   0.002912]
    |<r_e - r_h>| [Ang]:                  0.000132
    Hole size [Ang]:                      1.214403
      Cartesian components [Ang]:       [  0.649834,   0.637065,   0.804139]
    Electron size [Ang]:                  1.486748
      Cartesian components [Ang]:       [  0.864663,   0.840613,   0.869567]
    RMS electron-hole separation [Ang]:   1.937171
      Cartesian components [Ang]:       [  1.106618,   1.076334,   1.170271]
    Covariance(r_h, r_e) [Ang^2]:        -0.033718
    Correlation coefficient:             -0.018675
    Center-of-mass size [Ang]:            0.951020
      Cartesian components [Ang]:       [  0.528027,   0.516350,   0.599174]

  Decomposition into state-averaged NTOs
    H- 0 -> L+ 0: -0.6697 ( 89.7%)
    H- 2 -> L+ 5: -0.0830 (  1.4%)
                   omega =  95.3%
  ----------------------------------------------------------------------------


  Excited state 2 (singlet, A)                                     [converged]
  ----------------------------------------------------------------------------
  Term symbol:  3 (1) A                                     R^2 =  4.48432e-12

  Total energy:                                            -77.9911438143 a.u.
  Excitation energy:                                               8.952443 eV

  Osc. strength:                                                      0.000000
  Trans. dip. moment [a.u.]:           [   0.000324,   -0.000729,   -0.000150]
  <i|r^2|0> [a.u.]:                    [   0.061968,    0.089107,   -0.149339]
  Two-photon absorption cross-section (SoS) [a.u.]:                   4.564786
  Two-photon absorption matrix (SoS) [a.u.]:
                                       |    0.042981    0.055831   -0.515498 |
                                       |    0.055831    0.069829   -0.540381 |
                                       |   -0.515498   -0.540381   -0.112865 |
  Two-photon absorption cross-section [a.u.]:                         0.174314
  Two-photon absorption matrix [a.u.]:
                                       |   -0.024621   -0.011693    0.100407 |
                                       |   -0.011693    0.002668    0.104995 |
                                       |    0.100407    0.104995    0.021933 |

  Dip. moment [a.u.]:                  [   0.001625,   -0.001243,   -0.000967]
  Total dipole [Debye]:                                               0.005752
  <r^2> [a.u.]:                        [ 175.000309,   34.370454,   13.214000]
  Total <r^2> [a.u.]:                                               222.584762

  V1^2 = 0.9541, V2^2 = 0.0459

  Important amplitudes:
      occ i     occ j     vir a      vir b          v   
    -----------------------------------------------------
     7 (A) A              9 (A) A                -0.6685
     8 (A) A             11 (A) A                -0.1513
     7 (A) A             20 (A) A                -0.0756
     5 (A) A   8 (A) B    9 (A) A    9 (A) B      0.0315
     8 (A) A             16 (A) A                -0.0281
     8 (A) A             21 (A) A                -0.0178
     5 (A) A             28 (A) A                -0.0150
     4 (A) A   7 (A) B    9 (A) A   19 (A) B      0.0136
     5 (A) A   7 (A) B    9 (A) A   16 (A) B      0.0134
     7 (A) A   8 (A) B   20 (A) A   17 (A) B      0.0106
     7 (A) A   8 (A) A    9 (A) A   28 (A) A      0.0098
     5 (A) A   8 (A) B    9 (A) A   20 (A) B      0.0094
     4 (A) A   6 (A) B    9 (A) A   16 (A) B     -0.0091
     5 (A) A   6 (A) A    9 (A) A   23 (A) A     -0.0090
     5 (A) A   6 (A) A    9 (A) A   14 (A) A     -0.0089
     5 (A) A   6 (A) B    9 (A) A   19 (A) B     -0.0086
     8 (A) A   7 (A) B    9 (A) A   28 (A) B     -0.0085
     6 (A) A   7 (A) B    9 (A) A   18 (A) B      0.0085
     4 (A) A   5 (A) A    9 (A) A   10 (A) A      0.0085
     5 (A) A   6 (A) B    9 (A) A   23 (A) B     -0.0080
     3 (A) A   7 (A) B    9 (A) A   18 (A) B     -0.0080
     5 (A) A   7 (A) A    9 (A) A   16 (A) A      0.0078
     4 (A) A   8 (A) B    9 (A) A   25 (A) B      0.0076
     4 (A) A   7 (A) B   19 (A) A    9 (A) B      0.0075
     7 (A) A   8 (A) B   17 (A) A   20 (A) B      0.0074
     5 (A) A   5 (A) B    9 (A) A   13 (A) B      0.0073
     7 (A) A   8 (A) B   19 (A) A   18 (A) B      0.0071
     4 (A) A   5 (A) B    9 (A) A   18 (A) B     -0.0069
     5 (A) A   8 (A) A    9 (A) A   20 (A) A      0.0068
     7 (A) A   7 (A) B   20 (A) A   22 (A) B      0.0066
     7 (A) A   8 (A) B   17 (A) A    9 (A) B      0.0065
     5 (A) A   6 (A) B    9 (A) A   14 (A) B     -0.0063
     5 (A) A   7 (A) B   11 (A) A   20 (A) B      0.0062
     4 (A) A   5 (A) B   10 (A) A    9 (A) B     -0.0061
     4 (A) A   7 (A) A    9 (A) A   19 (A) A      0.0061
     5 (A) A             38 (A) A                 0.0060
     4 (A) A   6 (A) B   16 (A) A    9 (A) B     -0.0058
     4 (A) A   8 (A) A    9 (A) A   25 (A) A      0.0057
     6 (A) A   7 (A) A   19 (A) A   28 (A) A      0.0056
     5 (A) A   7 (A) A   11 (A) A   20 (A) A      0.0054
    -----------------------------------------------------

  Density matrix analysis:
  ------------------------
  NOs
    Occupation of frontier NOs:
       0.9560   1.0553
    Number of electrons: 16.000000
    Number of unpaired electrons: n_u =  2.35842, n_u,nl =  2.06489
    NO participation ratio (PR_NO):  3.045329
  
  
  Mulliken Population Analysis
  Atom      Charge (e)              h+              e-           Del q
  --------------------------------------------------------------------
   1 H        0.155489        0.125266       -0.024776        0.100491
   2 C       -0.310377        0.272859       -0.473020       -0.200161
   3 H        0.155078        0.124884       -0.024805        0.100078
   4 C       -0.309936        0.272307       -0.472567       -0.200259
   5 H        0.154702        0.124508       -0.024744        0.099764
   6 H        0.155044        0.124954       -0.024866        0.100088
  --------------------------------------------------------------------
  Sum:        0.000000        1.044778       -1.044778       -0.000000
  
  Multipole moment analysis of the density matrix
    Molecular charge:                      0.000000
    Number of electrons:                   16.000000
      Center of electronic charge [Ang]: [ -1.561673,  -0.064978,   0.002636]
    Total nuclear charge:                  16.000000
      Center of nuclear charge [Ang]:    [ -1.561619,  -0.065019,   0.002604]
    Dipole moment [D]:                     0.005752
      Cartesian components [D]:          [  0.004131,  -0.003159,  -0.002458]
    RMS size of the density [Ang]:         1.205230
      Cartesian components [Ang]:        [  0.789934,   0.772866,   0.480897]
  
  Exciton analysis of the difference density matrix
    <r_h> [Ang]:                  [ -1.560774,  -0.065918,   0.002539]
    <r_e> [Ang]:                  [ -1.561583,  -0.065272,   0.002815]
    |<r_e - r_h>| [Ang]:            0.001070
    Hole size [Ang]:                1.496148
      Cartesian components [Ang]: [  1.014535,   1.000686,   0.455857]
    Electron size [Ang]:            1.480151
      Cartesian components [Ang]: [  0.884425,   0.862024,   0.815815]

  Transition density matrix analysis:
  -----------------------------------
  
  CT numbers (Mulliken)
    omega =     0.9214
    <Phe> =    -0.0114
  
  Exciton analysis of the transition density matrix
    Trans. dipole moment [D]:             0.001032
      Cartesian components [D]:         [  0.000412,  -0.000926,  -0.000191]
    <r_h> [Ang]:                        [ -1.560626,  -0.066058,   0.002476]
    <r_e> [Ang]:                        [ -1.561701,  -0.065173,   0.002882]
    |<r_e - r_h>| [Ang]:                  0.001450
    Hole size [Ang]:                      1.527094
      Cartesian components [Ang]:       [  1.039416,   1.025393,   0.447437]
    Electron size [Ang]:                  1.475561
      Cartesian components [Ang]:       [  0.873354,   0.850197,   0.831685]
    RMS electron-hole separation [Ang]:   2.103538
      Cartesian components [Ang]:       [  1.341601,   1.317019,   0.943633]
    Covariance(r_h, r_e) [Ang^2]:         0.042213
    Correlation coefficient:              0.018734
    Center-of-mass size [Ang]:            1.071649
      Cartesian components [Ang]:       [  0.686727,   0.673423,   0.472588]

  Decomposition into state-averaged NTOs
    H- 1 -> L+ 0:  0.6608 ( 87.3%)
    H- 0 -> L+ 2: -0.1513 (  4.6%)
                   omega =  92.1%
  ----------------------------------------------------------------------------


  Excited state 3 (singlet, A)                                     [converged]
  ----------------------------------------------------------------------------
  Term symbol:  4 (1) A                                     R^2 =  5.29082e-12

  Total energy:                                            -77.9841903513 a.u.
  Excitation energy:                                               9.141656 eV

  Osc. strength:                                                      0.023585
  Trans. dip. moment [a.u.]:           [  -0.017743,   -0.016680,    0.323595]
  <i|r^2|0> [a.u.]:                    [  -0.104778,   -0.004627,   -0.003058]
  Two-photon absorption cross-section (SoS) [a.u.]:                   0.000148
  Two-photon absorption matrix (SoS) [a.u.]:
                                       |    0.002150   -0.000116   -0.000518 |
                                       |   -0.000116   -0.000850    0.000997 |
                                       |   -0.000518    0.000997    0.003928 |
  Two-photon absorption cross-section [a.u.]:                         0.000166
  Two-photon absorption matrix [a.u.]:
                                       |    0.003181   -0.000706   -0.000418 |
                                       |   -0.000706    0.000902    0.001079 |
                                       |   -0.000418    0.001079    0.002421 |

  Dip. moment [a.u.]:                  [  -0.001289,    0.002405,    0.000652]
  Total dipole [Debye]:                                               0.007131
  <r^2> [a.u.]:                        [ 181.431862,   41.010187,   11.053522]
  Total <r^2> [a.u.]:                                               233.495571

  V1^2 = 0.9580, V2^2 = 0.0420

  Important amplitudes:
      occ i     occ j     vir a      vir b          v   
    -----------------------------------------------------
     8 (A) A             10 (A) A                -0.6887
     8 (A) A             24 (A) A                -0.0508
     8 (A) A             18 (A) A                 0.0332
     4 (A) A              9 (A) A                -0.0247
     8 (A) A   8 (A) B    9 (A) A   12 (A) B      0.0223
     8 (A) A   8 (A) B   10 (A) A   17 (A) B     -0.0172
     5 (A) A   8 (A) B   11 (A) A   10 (A) B     -0.0169
     8 (A) A             15 (A) A                 0.0149
     7 (A) A   8 (A) B   13 (A) A   10 (A) B      0.0143
     4 (A) A   8 (A) B   12 (A) A   10 (A) B      0.0113
     6 (A) A   8 (A) A   10 (A) A   15 (A) A     -0.0112
     7 (A) A   8 (A) B   22 (A) A   10 (A) B     -0.0109
     6 (A) A   8 (A) B   15 (A) A   10 (A) B      0.0109
     4 (A) A   8 (A) A   10 (A) A   12 (A) A     -0.0108
     7 (A) A   8 (A) A   10 (A) A   22 (A) A      0.0099
     7 (A) A   8 (A) A   10 (A) A   13 (A) A     -0.0098
     5 (A) A   8 (A) A   10 (A) A   11 (A) A      0.0097
     5 (A) A   8 (A) B   21 (A) A   10 (A) B     -0.0094
     6 (A) A   8 (A) B   10 (A) A   10 (A) B      0.0090
     6 (A) A   8 (A) A   10 (A) A   18 (A) A      0.0086
     7 (A) A   8 (A) A   12 (A) A   16 (A) A     -0.0084
     3 (A) A   4 (A) B   10 (A) A    9 (A) B      0.0080
     5 (A) A   8 (A) A   10 (A) A   21 (A) A      0.0079
     4 (A) A   8 (A) B   19 (A) A   10 (A) B     -0.0076
     8 (A) A   8 (A) B    9 (A) A   23 (A) B      0.0075
     8 (A) A   8 (A) B   10 (A) A   28 (A) B     -0.0074
     5 (A) A   8 (A) B   10 (A) A   11 (A) B     -0.0072
     7 (A) A   8 (A) B   16 (A) A   12 (A) B      0.0072
     3 (A) A   8 (A) A   10 (A) A   24 (A) A      0.0072
     3 (A) A   8 (A) B   10 (A) A   10 (A) B     -0.0071
     8 (A) A   8 (A) B    9 (A) A   19 (A) B     -0.0070
     3 (A) A   8 (A) B   10 (A) A   18 (A) B      0.0068
     6 (A) A   8 (A) B   18 (A) A   10 (A) B     -0.0065
     3 (A) A   6 (A) B   10 (A) A   28 (A) B     -0.0062
     7 (A) A   8 (A) B   12 (A) A   11 (A) B      0.0059
     6 (A) A             28 (A) A                 0.0058
     5 (A) A   8 (A) A   10 (A) A   16 (A) A      0.0057
     3 (A) A   5 (A) B   10 (A) A   25 (A) B      0.0056
     6 (A) A   8 (A) A   11 (A) A   16 (A) A     -0.0055
     4 (A) A   8 (A) A   10 (A) A   23 (A) A     -0.0055
    -----------------------------------------------------

  Density matrix analysis:
  ------------------------
  NOs
    Occupation of frontier NOs:
       0.9812   0.9847
    Number of electrons: 16.000000
    Number of unpaired electrons: n_u =  2.28863, n_u,nl =  2.02504
    NO participation ratio (PR_NO):  2.701204
  
  
  Mulliken Population Analysis
  Atom      Charge (e)              h+              e-           Del q
  --------------------------------------------------------------------
   1 H       -0.155233        0.054362       -0.264593       -0.210231
   2 C        0.310034        0.538218       -0.117969        0.420249
   3 H       -0.155368        0.054347       -0.264716       -0.210369
   4 C        0.310300        0.537957       -0.117980        0.419976
   5 H       -0.154742        0.054350       -0.264030       -0.209680
   6 H       -0.154990        0.054352       -0.264298       -0.209946
  --------------------------------------------------------------------
  Sum:       -0.000000        1.293586       -1.293586        0.000000
  
  Multipole moment analysis of the density matrix
    Molecular charge:                      -0.000000
    Number of electrons:                   16.000000
      Center of electronic charge [Ang]: [ -1.561576,  -0.065098,   0.002583]
    Total nuclear charge:                  16.000000
      Center of nuclear charge [Ang]:    [ -1.561619,  -0.065019,   0.002604]
    Dipole moment [D]:                     0.007131
      Cartesian components [D]:          [ -0.003277,   0.006113,   0.001657]
    RMS size of the density [Ang]:         1.282117
      Cartesian components [Ang]:        [  0.858406,   0.844697,   0.439829]
  
  Exciton analysis of the difference density matrix
    <r_h> [Ang]:                  [ -1.561534,  -0.065122,   0.002732]
    <r_e> [Ang]:                  [ -1.560995,  -0.066093,   0.002292]
    |<r_e - r_h>| [Ang]:            0.001195
    Hole size [Ang]:                1.412900
      Cartesian components [Ang]: [  0.836524,   0.822680,   0.787219]
    Electron size [Ang]:            2.079249
      Cartesian components [Ang]: [  1.377030,   1.380337,   0.722311]

  Transition density matrix analysis:
  -----------------------------------
  
  CT numbers (Mulliken)
    omega =     0.9250
    <Phe> =    -0.0109
  
  Exciton analysis of the transition density matrix
    Trans. dipole moment [D]:             0.412411
      Cartesian components [D]:         [ -0.022550,  -0.021198,   0.411249]
    <r_h> [Ang]:                        [ -1.561670,  -0.064959,   0.002852]
    <r_e> [Ang]:                        [ -1.560798,  -0.066443,   0.002171]
    |<r_e - r_h>| [Ang]:                  0.001851
    Hole size [Ang]:                      1.212751
      Cartesian components [Ang]:       [  0.636218,   0.623713,   0.822785]
    Electron size [Ang]:                  2.301781
      Cartesian components [Ang]:       [  1.523528,   1.529450,   0.798648]
    RMS electron-hole separation [Ang]:   2.591625
      Cartesian components [Ang]:       [  1.643393,   1.644590,   1.145034]
    Covariance(r_h, r_e) [Ang^2]:         0.026223
    Correlation coefficient:              0.009394
    Center-of-mass size [Ang]:            1.305891
      Cartesian components [Ang]:       [  0.829320,   0.829427,   0.574136]

  Decomposition into state-averaged NTOs
    H- 0 -> L+ 1: -0.6794 ( 92.3%)
                   omega =  92.5%
  ----------------------------------------------------------------------------


  Excited state 4 (singlet, A)                                     [converged]
  ----------------------------------------------------------------------------
  Term symbol:  5 (1) A                                     R^2 =  1.05922e-11

  Total energy:                                            -77.9622662758 a.u.
  Excitation energy:                                               9.738241 eV

  Osc. strength:                                                      0.000000
  Trans. dip. moment [a.u.]:           [  -0.000136,    0.000183,    0.000138]
  <i|r^2|0> [a.u.]:                    [   0.011904,    0.018609,   -0.031269]
  Two-photon absorption cross-section (SoS) [a.u.]:                 134.684542
  Two-photon absorption matrix (SoS) [a.u.]:
                                       |    0.243496    0.303772   -2.797713 |
                                       |    0.303772    0.369594   -2.937720 |
                                       |   -2.797713   -2.937720   -0.613109 |
  Two-photon absorption cross-section [a.u.]:                        80.045596
  Two-photon absorption matrix [a.u.]:
                                       |    0.175130    0.233539   -2.158160 |
                                       |    0.233539    0.297477   -2.263236 |
                                       |   -2.158160   -2.263236   -0.472616 |

  Dip. moment [a.u.]:                  [  -0.001547,   -0.000243,    0.000505]
  Total dipole [Debye]:                                               0.004182
  <r^2> [a.u.]:                        [ 181.543465,   41.006455,   10.783190]
  Total <r^2> [a.u.]:                                               233.333111

  V1^2 = 0.9633, V2^2 = 0.0367

  Important amplitudes:
      occ i     occ j     vir a      vir b          v   
    -----------------------------------------------------
     8 (A) A             11 (A) A                -0.6688
     7 (A) A              9 (A) A                 0.1535
     8 (A) A             21 (A) A                -0.0779
     8 (A) A             16 (A) A                -0.0674
     8 (A) A   8 (A) B    9 (A) A   13 (A) B      0.0167
     5 (A) A   8 (A) B   11 (A) A   11 (A) B     -0.0157
     7 (A) A             20 (A) A                 0.0140
     8 (A) A   8 (A) B   11 (A) A   17 (A) B     -0.0137
     7 (A) A   8 (A) B   13 (A) A   11 (A) B      0.0127
     4 (A) A   8 (A) B   12 (A) A   11 (A) B      0.0111
     8 (A) A   8 (A) B    9 (A) A   22 (A) B     -0.0110
     5 (A) A   8 (A) A   11 (A) A   21 (A) A      0.0109
     7 (A) A   8 (A) A   11 (A) A   22 (A) A      0.0095
     6 (A) A   8 (A) B   10 (A) A   11 (A) B      0.0091
     6 (A) A   8 (A) B   15 (A) A   11 (A) B      0.0089
     7 (A) A   8 (A) B   22 (A) A   11 (A) B     -0.0089
     3 (A) A   4 (A) B   11 (A) A    9 (A) B      0.0083
     3 (A) A   8 (A) B   11 (A) A   18 (A) B      0.0080
     6 (A) A   8 (A) A   11 (A) A   15 (A) A     -0.0079
     7 (A) A   8 (A) A   13 (A) A   16 (A) A     -0.0079
     7 (A) A   8 (A) A   11 (A) A   13 (A) A     -0.0075
     4 (A) A   8 (A) B   19 (A) A   11 (A) B     -0.0070
     5 (A) A   8 (A) B   21 (A) A   11 (A) B     -0.0069
     5 (A) A   8 (A) B    9 (A) A    9 (A) B     -0.0069
     4 (A) A   8 (A) A   11 (A) A   12 (A) A     -0.0062
     3 (A) A   6 (A) B   11 (A) A   28 (A) B     -0.0060
     6 (A) A   8 (A) A   11 (A) A   18 (A) A      0.0059
     6 (A) A   8 (A) B   18 (A) A   11 (A) B     -0.0058
     7 (A) A   8 (A) B   16 (A) A   13 (A) B      0.0057
     3 (A) A   8 (A) B   11 (A) A   30 (A) B      0.0056
     5 (A) A   8 (A) B   10 (A) A   10 (A) B     -0.0055
     7 (A) A   8 (A) B   12 (A) A   10 (A) B      0.0055
     8 (A) A   8 (A) B   20 (A) A   22 (A) B     -0.0055
     6 (A) A   8 (A) B   11 (A) A   10 (A) B      0.0055
     3 (A) A   5 (A) B   11 (A) A   25 (A) B      0.0054
     3 (A) A   8 (A) A   11 (A) A   18 (A) A      0.0054
     3 (A) A   8 (A) A   11 (A) A   24 (A) A      0.0053
     5 (A) A   8 (A) A   11 (A) A   16 (A) A      0.0049
     6 (A) A   8 (A) A   10 (A) A   16 (A) A     -0.0047
     8 (A) A   8 (A) B   11 (A) A   28 (A) B     -0.0043
    -----------------------------------------------------

  Density matrix analysis:
  ------------------------
  NOs
    Occupation of frontier NOs:
       0.9386   1.0295
    Number of electrons: 16.000000
    Number of unpaired electrons: n_u =  2.32235, n_u,nl =  2.05106
    NO participation ratio (PR_NO):  2.932745
  
  
  Mulliken Population Analysis
  Atom      Charge (e)              h+              e-           Del q
  --------------------------------------------------------------------
   1 H       -0.125786        0.046040       -0.226824       -0.180784
   2 C        0.250767        0.495319       -0.134336        0.360983
   3 H       -0.125298        0.045993       -0.226292       -0.180298
   4 C        0.251383        0.495189       -0.134129        0.361060
   5 H       -0.125618        0.045984       -0.226540       -0.180556
   6 H       -0.125448        0.046025       -0.226430       -0.180404
  --------------------------------------------------------------------
  Sum:       -0.000000        1.174551       -1.174551        0.000000
  
  Multipole moment analysis of the density matrix
    Molecular charge:                      0.000000
    Number of electrons:                   16.000000
      Center of electronic charge [Ang]: [ -1.561568,  -0.065011,   0.002588]
    Total nuclear charge:                  16.000000
      Center of nuclear charge [Ang]:    [ -1.561619,  -0.065019,   0.002604]
    Dipole moment [D]:                     0.004182
      Cartesian components [D]:          [ -0.003932,  -0.000618,   0.001283]
    RMS size of the density [Ang]:         1.281022
      Cartesian components [Ang]:        [  0.859558,   0.844665,   0.434417]
  
  Exciton analysis of the difference density matrix
    <r_h> [Ang]:                  [ -1.561553,  -0.065046,   0.002757]
    <r_e> [Ang]:                  [ -1.560842,  -0.064922,   0.002339]
    |<r_e - r_h>| [Ang]:            0.000834
    Hole size [Ang]:                1.394931
      Cartesian components [Ang]: [  0.819614,   0.806252,   0.789952]
    Electron size [Ang]:            2.114341
      Cartesian components [Ang]: [  1.420011,   1.415042,   0.672058]

  Transition density matrix analysis:
  -----------------------------------
  
  CT numbers (Mulliken)
    omega =     0.9293
    <Phe> =    -0.0146
  
  Exciton analysis of the transition density matrix
    Trans. dipole moment [D]:             0.000338
      Cartesian components [D]:         [ -0.000172,   0.000233,   0.000175]
    <r_h> [Ang]:                        [ -1.561631,  -0.065026,   0.002833]
    <r_e> [Ang]:                        [ -1.560660,  -0.064942,   0.002283]
    |<r_e - r_h>| [Ang]:                  0.001119
    Hole size [Ang]:                      1.229185
      Cartesian components [Ang]:       [  0.662009,   0.649460,   0.806748]
    Electron size [Ang]:                  2.247902
      Cartesian components [Ang]:       [  1.509585,   1.505525,   0.712468]
    RMS electron-hole separation [Ang]:   2.550886
      Cartesian components [Ang]:       [  1.639512,   1.631444,   1.075830]
    Covariance(r_h, r_e) [Ang^2]:         0.028471
    Correlation coefficient:              0.010304
    Center-of-mass size [Ang]:            1.286556
      Cartesian components [Ang]:       [  0.828584,   0.823892,   0.538400]

  Decomposition into state-averaged NTOs
    H- 0 -> L+ 2: -0.6641 ( 88.2%)
    H- 1 -> L+ 0: -0.1514 (  4.6%)
                   omega =  92.9%
  ----------------------------------------------------------------------------


  Excited state 5 (singlet, A)                                     [converged]
  ----------------------------------------------------------------------------
  Term symbol:  6 (1) A                                     R^2 =  9.56507e-11

  Total energy:                                            -77.9468240093 a.u.
  Excitation energy:                                              10.158446 eV

  Osc. strength:                                                      0.000000
  Trans. dip. moment [a.u.]:           [  -0.000187,    0.000192,    0.000372]
  <i|r^2|0> [a.u.]:                    [  -0.078688,    0.096690,   -0.017696]
  Two-photon absorption cross-section (SoS) [a.u.]:                 223.500523
  Two-photon absorption matrix (SoS) [a.u.]:
                                       |   -0.336885   -0.072419    3.822153 |
                                       |   -0.072419    0.448776   -3.628012 |
                                       |    3.822153   -3.628012   -0.081457 |
  Two-photon absorption cross-section [a.u.]:                       115.468922
  Two-photon absorption matrix [a.u.]:
                                       |   -0.230722   -0.044466    2.748684 |
                                       |   -0.044466    0.334767   -2.606033 |
                                       |    2.748684   -2.606033   -0.060821 |

  Dip. moment [a.u.]:                  [   0.000895,   -0.000771,   -0.000019]
  Total dipole [Debye]:                                               0.003003
  <r^2> [a.u.]:                        [ 180.421692,   39.756723,   11.597557]
  Total <r^2> [a.u.]:                                               231.775971

  V1^2 = 0.9554, V2^2 = 0.0446

  Important amplitudes:
      occ i     occ j     vir a      vir b          v   
    -----------------------------------------------------
     8 (A) A             12 (A) A                -0.5697
     6 (A) A              9 (A) A                -0.3819
     8 (A) A             19 (A) A                 0.0525
     6 (A) A             20 (A) A                -0.0520
     8 (A) A             23 (A) A                -0.0293
     8 (A) A   8 (A) B    9 (A) A   10 (A) B      0.0205
     8 (A) A             26 (A) A                -0.0185
     3 (A) A              9 (A) A                -0.0158
     4 (A) A   8 (A) B    9 (A) A    9 (A) B     -0.0158
     5 (A) A   8 (A) B   11 (A) A   12 (A) B     -0.0149
     8 (A) A   8 (A) B   12 (A) A   17 (A) B     -0.0133
     7 (A) A   8 (A) B   13 (A) A   12 (A) B      0.0130
     4 (A) A   8 (A) B   12 (A) A   12 (A) B      0.0124
     5 (A) A   8 (A) A   11 (A) A   12 (A) A     -0.0109
     6 (A) A   8 (A) B   15 (A) A   12 (A) B      0.0102
     7 (A) A   8 (A) B   22 (A) A   12 (A) B     -0.0094
[...]
    16   -1.430598711182e-03
    17   -1.668603308230e-03
    18    1.491022001408e-04
    19   -2.908806681414e-03
    20    1.153102929746e-02
    21    9.286516200496e-01
    22   -5.007433188019e-04
    23    1.373972410950e-02
    24    7.726152464945e-04
    25    7.029319360407e-02
    26   -5.216144977980e-02
    27   -1.383373665150e+00
    28    9.982832789889e-02
    29   -9.477526360414e-02
    30   -3.743690189551e-04
    31    3.844908043781e-01
    32   -3.653413377947e-01
    33   -1.447289168055e-03
    34    1.507067526316e-02
    35   -1.443597448971e-03
    36   -1.651237760108e-03
    37    1.570540078708e-04
    38   -2.907497876200e-03
    39    1.148836793613e-02
    40    9.272788601213e-01
    41    5.145420578286e-04
    42   -1.373493693614e-02
    43   -7.618750716926e-04
    44    1.150352462886e-02
    45    9.271936000265e-01
    46    1.373555148762e-02
    47    1.902049510231e-04
    48    6.801859655065e-04
Sym=X
Ene= 0.231048
Spin=Alpha
Occup=0
     1    2.988381037734e-02
     2    1.168081577209e+00
     3   -1.295979421998e-02
     4   -3.505215038242e-03
     5   -8.202512825826e-04
     6    3.071667210448e-06
     7    3.206933193573e-05
     8   -4.242035326596e-04
     9   -1.547196673966e-01
    10   -1.626159479027e-01
    11   -1.687914740518e-02
    12   -5.300376944315e-01
    13   -5.577044680031e-01
    14   -5.786926872295e-02
    15    1.375813422958e-06
    16    2.254037728003e-05
    17   -1.239655837617e-04
    18    1.362871784827e-03
    19    7.212588749489e-05
    20   -2.985945282824e-02
    21   -1.167947959722e+00
    22   -2.854669800792e-03
    23   -1.310336544967e-02
    24   -9.043643647460e-04
    25    1.680608277772e-05
    26   -4.509856683265e-05
    27   -1.309841841120e-04
    28   -1.545825721305e-01
    29   -1.625286152962e-01
    30   -1.683955231596e-02
    31   -5.302186046596e-01
    32   -5.582006753418e-01
    33   -5.779566894701e-02
    34    8.185617506464e-06
    35   -1.725752584154e-05
    36    1.366549312503e-04
    37   -1.403952344455e-03
    38   -7.918734377926e-05
    39    2.986461538503e-02
    40    1.169046231653e+00
    41   -2.860667065182e-03
    42   -1.311709697306e-02
    43   -9.025840820519e-04
    44   -2.990588200409e-02
    45   -1.168482172062e+00
    46   -1.295935350237e-02
    47   -3.508326510221e-03
    48   -8.201958257641e-04
Sym=X
Ene= 0.236440
Spin=Alpha
Occup=0
     1   -1.932539096360e-02
     2   -1.071424531216e+00
     3    1.586850920515e-02
     4    9.218828323953e-03
     5    1.291754541649e-03
     6   -8.707731612919e-02
     7    8.226967173348e-02
     8    1.543950523646e+00
     9    5.888592317197e-02
    10   -5.590069533249e-02
    11   -5.548733487307e-04
    12    2.419597872419e-01
    13   -2.296917843229e-01
    14   -2.528547317165e-03
    15   -2.127354439988e-02
    16    2.413693423141e-03
    17    2.843593928909e-03
    18   -6.162481783007e-04
    19    1.240867007697e-02
    20   -1.931255010679e-02
    21   -1.071506938162e+00
    22   -8.403031973658e-03
    23   -1.631270632799e-02
    24   -1.355683901710e-03
    25    8.716851267302e-02
    26   -8.238117064883e-02
    27   -1.546144556238e+00
    28    5.889897510931e-02
    29   -5.593281539140e-02
    30   -1.765899176399e-04
    31    2.420919498481e-01
    32   -2.300388631661e-01
    33   -1.008288009128e-03
    34    2.131474417224e-02
    35   -2.451558249339e-03
    36   -2.815233023984e-03
    37    6.247483222054e-04
    38   -1.242832987359e-02
    39    1.927574842708e-02
    40    1.073018096120e+00
    41   -8.396006543344e-03
    42   -1.635129487749e-02
    43   -1.332633509012e-03
    44    1.927794234978e-02
    45    1.072728003868e+00
    46    1.589788546400e-02
    47    9.213271802349e-03
    48    1.316848338362e-03
Sym=X
Ene= 0.302963
Spin=Alpha
Occup=0
     1    2.096525043961e-02
     2   -1.657126844846e+00
     3    2.350453607469e-02
     4   -4.120905545133e-04
     5    1.047194443518e-03
     6    1.363842435525e-06
     7    9.903364747861e-06
     8   -5.388484914985e-04
     9    1.356492033975e-01
    10    1.426978913425e-01
    11    1.480131573060e-02
    12    1.124947969269e+00
    13    1.183073139588e+00
    14    1.226910458305e-01
    15   -2.761437936835e-05
    16    1.684722403026e-03
    17   -1.947133378236e-03
    18    3.405567194538e-02
    19    1.721567473902e-03
    20   -2.103308856809e-02
    21    1.657666570151e+00
    22   -1.598411584249e-03
    23    2.344379967729e-02
    24    1.342209724248e-03
    25   -2.375512850699e-06
    26    1.046811800832e-05
    27   -5.517528573870e-04
    28   -1.356194821746e-01
    29   -1.426620175098e-01
    30   -1.478298127137e-02
    31   -1.125359609619e+00
    32   -1.183672483862e+00
    33   -1.226970106279e-01
    34   -1.583254947823e-05
    35    1.744469548374e-03
    36   -1.889110070842e-03
    37    3.411415621134e-02
    38    1.717071907757e-03
    39   -2.118330849769e-02
    40    1.658603703234e+00
    41    1.590731152095e-03
    42   -2.345282227735e-02
    43   -1.324034096990e-03
    44    2.109475793521e-02
    45   -1.657942975789e+00
    46   -2.351215813435e-02
    47    4.061837439192e-04
    48   -1.064838158079e-03
Sym=X
Ene= 0.462774
Spin=Alpha
Occup=0
     1   -1.143353038580e-01
     2   -6.983775529161e-01
     3   -1.496851156746e-02
     4   -1.027093658797e-02
     5   -1.302618625071e-03
     6    6.253179262383e-02
     7    1.650986970888e-02
     8   -3.641461921945e+00
     9    1.044609902159e-01
    10   -9.923978968088e-02
    11   -7.283197620097e-04
    12    2.432538311081e+00
    13   -2.310968185872e+00
    14   -2.847776257702e-02
    15    5.293819021361e-02
    16   -3.120544033414e-03
    17   -4.490670573170e-03
    18   -1.102248571453e-03
    19    2.018035280599e-02
    20   -1.139443719631e-01
    21   -6.993563174171e-01
    22    9.550314662761e-03
    23    1.543958436242e-02
    24    1.368082624809e-03
    25   -6.249766193253e-02
    26   -1.665990084008e-02
    27    3.640657161418e+00
    28    1.041957928810e-01
    29   -9.899633083912e-02
    30   -5.136194802954e-04
    31    2.433133049666e+00
    32   -2.311762887764e+00
    33   -2.756088631089e-02
    34   -5.302666393000e-02
    35    3.111651581371e-03
    36    4.520782070478e-03
    37    1.098138154142e-03
    38   -2.004098837071e-02
    39    1.144534896471e-01
    40    6.993797538470e-01
    41    9.577104462639e-03
    42    1.546688879827e-02
    43    1.378388621300e-03
    44    1.148871791849e-01
    45    6.980623745955e-01
    46   -1.499447397868e-02
    47   -1.029548431515e-02
    48   -1.294617695962e-03
Sym=X
Ene= 0.579808
Spin=Alpha
Occup=0
     1   -2.378245972061e-01
     2   -4.841780237291e-02
     3    2.209730216585e-02
     4   -2.704140652893e-02
     5   -5.880114461387e-04
     6    6.336328496512e-03
     7    1.690604958374e-01
     8    4.134138429411e-01
     9   -3.054932819366e-01
    10    2.899997226538e-01
    11    3.482583534511e-03
    12    7.508121677904e-01
    13   -7.129146143122e-01
    14   -7.571010421221e-03
    15    2.004692324183e-03
    16   -3.611627269491e-03
    17   -3.170838172898e-03
    18    2.951032685697e-03
    19   -5.980557148373e-02
    20   -2.375105690655e-01
    21   -4.921551290445e-02
    22    2.812250895669e-02
    23   -2.070354533736e-02
    24    6.928697570926e-05
    25    6.173787793601e-03
    26    1.689455488323e-01
    27    4.209844751350e-01
    28    3.057668045688e-01
    29   -2.902414960156e-01
    30   -3.515347042413e-03
    31   -7.459510470793e-01
    32    7.083720394122e-01
    33    7.312490154500e-03
    34    1.994395846771e-03
    35   -3.611688195352e-03
    36   -3.168463315369e-03
    37    2.950989234726e-03
    38   -5.980426926193e-02
    39   -2.377170135291e-01
    40   -4.743025343011e-02
    41   -2.802195444453e-02
    42    2.063078905685e-02
    43   -8.938328632336e-05
    44   -2.380462198200e-01
    45   -4.647266847931e-02
    46   -2.202538501132e-02
    47    2.695046733377e-02
    48    5.651838309110e-04
Sym=X
Ene= 0.608870
Spin=Alpha
Occup=0
     1    5.193813423393e-01
     2   -2.464529316715e-01
     3    5.951448688149e-02
     4   -3.707389452449e-02
     5    5.413231109856e-04
     6   -2.240501121764e-05
     7   -1.203760740811e-05
     8   -1.554223286490e-03
     9    3.551644146147e-02
    10    3.751384924066e-02
    11    3.879248932093e-03
    12   -2.595312695234e-01
    13   -2.757677005929e-01
    14   -2.850109293921e-02
    15   -5.901836518562e-05
    16    7.369725866398e-03
    17   -8.491114185181e-03
    18    1.487239391997e-01
    19    7.615268767053e-03
    20   -5.199116437861e-01
    21    2.456752187271e-01
    22   -4.002003848321e-02
    23    5.757234278124e-02
    24    1.582431418740e-03
    25    2.385819200029e-05
    26    5.374296329223e-05
    27    1.349294375023e-03
    28    3.562829896559e-02
    29    3.765588873043e-02
    30    3.901273883735e-03
    31   -2.601315939750e-01
    32   -2.765510140159e-01
    33   -2.851405476911e-02
    34    4.279089583001e-05
    35   -7.510218440327e-03
    36    8.315691916882e-03
    37   -1.484968271994e-01
    38   -7.600584513051e-03
    39    5.193242291181e-01
    40   -2.438045569504e-01
    41   -4.003986052468e-02
    42    5.753242152879e-02
    43    1.529620532768e-03
    44   -5.188654522780e-01
    45    2.448084602985e-01
    46    5.947813839862e-02
    47   -3.710530265756e-02
    48    5.909321433794e-04
Sym=X
Ene= 0.688653
Spin=Alpha
Occup=0
     1   -9.435223435675e-04
     2   -8.805049550803e-04
     3    8.530189118942e-04
     4    1.006537779425e-03
     5   -1.876658939696e-02
     6   -5.554877110200e-05
     7   -3.097366741722e-05
     8   -1.084538276912e-03
     9    3.115083224809e-02
    10    3.995040217217e-02
    11   -6.707284499253e-01
    12   -2.620024686589e-02
    13   -3.864812486104e-02
    14    6.126789172800e-01
    15   -1.517713491509e-03
    16    8.257436064652e-02
    17   -7.840002312511e-02
    18   -8.481221908916e-03
    19   -1.602188354733e-03
    20   -9.499330676371e-04
    21   -8.554752338910e-04
    22    9.856174401243e-04
    23    1.144887698242e-03
    24   -1.877946577811e-02
    25    6.349706552115e-06
    26   -7.560245762039e-04
    27    1.663934170695e-03
    28    3.092041942167e-02
    29    4.011543919528e-02
    30   -6.707081490580e-01
    31   -2.604104820436e-02
    32   -3.873790685140e-02
    33    6.127356068926e-01
    34    1.812512510065e-03
    35   -8.260835004300e-02
    36    7.836884561849e-02
    37    8.496331945414e-03
    38    1.492619706809e-03
    39    2.578134264071e-04
    40    1.367596019192e-03
    41    9.307835954731e-04
    42    9.420716914244e-04
    43   -1.885631481880e-02
    44    2.623797487081e-04
    45    1.340419663510e-03
    46    1.053088634102e-03
    47    1.068581589022e-03
    48   -1.879643174118e-02
Sym=X
Ene= 0.704764
Spin=Alpha
Occup=0
     1   -4.884974350759e-01
     2    1.640436844405e-01
     3   -7.817892835905e-02
     4   -4.437698895875e-02
     5   -6.157079449173e-03
     6   -4.597458754212e-02
     7   -3.010282821517e-01
     8    4.613147231050e-01
     9    1.958004981924e-01
    10   -1.860811306307e-01
    11   -1.543260045527e-03
    12   -5.646736730123e-02
    13    5.387529087672e-02
    14    1.529057041171e-03
    15    1.914073613886e-01
    16   -1.978783431998e-02
    17   -2.376086917705e-02
    18    3.727640454633e-03
    19   -7.659660563628e-02
    20   -4.882755732764e-01
    21    1.640634774033e-01
    22    4.034316385498e-02
    23    8.033151263822e-02
    24    6.774516826414e-03
    25   -4.593423729508e-02
    26   -3.015916033462e-01
    27    4.658026799767e-01
    28   -1.960059906800e-01
    29    1.860698140754e-01
    30    2.599570264000e-03
    31    5.881839754202e-02
    32   -5.572078121596e-02
    33   -2.729486573295e-03
    34    1.910631901519e-01
    35   -1.974358373950e-02
    36   -2.373695167962e-02
    37    3.736797372164e-03
    38   -7.675199816292e-02
    39   -4.873781492586e-01
    40    1.634272647756e-01
    41   -4.033680048294e-02
    42   -8.019672100853e-02
    43   -6.724108989047e-03
    44   -4.875856155040e-01
    45    1.637208896421e-01
    46    7.803642519100e-02
    47    4.437728421923e-02
    48    6.184803901901e-03
Sym=X
Ene= 0.775740
Spin=Alpha
Occup=0
     1    5.388378962330e-01
     2   -4.812046034518e-01
     3    1.077194801433e-01
     4    2.643606261657e-02
     5    6.541430010223e-03
     6    8.888899040404e-02
     7   -2.273523604683e-01
     8   -5.661516388303e-01
     9    1.035893621923e-01
    10   -9.862967633688e-02
    11   -1.950372327190e-03
    12    2.940235333607e-01
    13   -2.790945984601e-01
    14   -2.228306112640e-03
    15   -2.031099018671e-01
    16    1.685977242757e-02
    17    2.146206002962e-02
    18   -7.119628977039e-05
    19    7.616391045072e-03
    20    5.383366147605e-01
    21   -4.803363019582e-01
    22   -2.092978422881e-02
    23   -1.087290942552e-01
    24   -7.484736347359e-03
    25   -8.898511009331e-02
    26    2.260252821859e-01
    27    5.674520025608e-01
    28    1.030740681018e-01
    29   -9.836683408454e-02
    30   -1.055391035436e-03
    31    2.948739768005e-01
    32   -2.793160248724e-01
    33   -4.218587045350e-03
    34    2.035212757172e-01
    35   -1.704825804349e-02
    36   -2.134246047160e-02
    37    9.529285517275e-05
    38   -7.814727444519e-03
    39   -5.385907995512e-01
    40    4.800030743923e-01
    41   -2.095226506815e-02
    42   -1.089142405542e-01
    43   -7.479635151974e-03
    44   -5.392057988250e-01
    45    4.812947725013e-01
    46    1.079205230978e-01
    47    2.647479573122e-02
    48    6.559085769662e-03
Sym=X
Ene= 0.807406
Spin=Alpha
Occup=0
     1    3.090189125444e-04
     2   -2.667641007310e-04
     3   -1.467081375956e-03
     4   -1.857357680777e-03
     5    3.139309984437e-02
     6    8.509469080667e-05
     7   -7.103966861386e-04
     8    3.668255796447e-04
     9   -3.494393229678e-02
    10   -4.607200928323e-02
    11    7.643450616243e-01
    12    5.164240365301e-02
    13    6.756483311288e-02
    14   -1.124480514832e+00
    15   -1.471525333503e-03
    16    6.538661213698e-02
    17   -6.202459099852e-02
    18   -6.710091502702e-03
    19   -1.204292630033e-03
    20    3.065816835519e-04
    21   -1.938075156069e-04
    22   -1.464499435127e-03
    23   -1.852052832410e-03
    24    3.138506687827e-02
    25   -2.285912993983e-05
    26   -4.830752475856e-04
    27    2.367369482766e-04
    28    3.535876282540e-02
    29    4.557855259291e-02
    30   -7.643304577767e-01
    31   -5.150085461073e-02
    32   -6.754193372161e-02
    33    1.124525334965e+00
    34   -1.104046167937e-03
    35    6.536522730245e-02
    36   -6.205764479486e-02
    37   -6.736367297462e-03
    38   -1.086784137022e-03
    39   -2.484756731096e-04
    40    5.233508012494e-04
    41    1.543897581544e-03
    42    1.629014714195e-03
    43   -3.148911594136e-02
    44   -2.503707832568e-04
    45    5.998194408004e-04
    46    1.718192763643e-03
    47    1.809217192376e-03
    48   -3.146296813582e-02
Sym=X
Ene= 0.858424
Spin=Alpha
Occup=0
     1    1.434707497513e-02
     2   -1.076360719113e+00
     3    1.464510263511e-01
     4    5.602869985167e-02
     5    1.023936341596e-02
     6   -5.098532363855e-05
     7    1.847802035416e-04
     8   -3.660057538858e-04
     9   -4.125241989941e-01
    10   -4.333504376214e-01
    11   -4.499439398234e-02
    12    9.387019185843e-01
    13    9.864092421515e-01
    14    1.023996492650e-01
    15   -6.963039710286e-05
    16    1.147648062746e-02
    17   -1.310436248995e-02
    18    2.305211183113e-01
    19    1.184923169074e-02
    20   -1.465973054307e-02
    21    1.076221230210e+00
    22    4.849674514849e-02
    23    1.491118954013e-01
    24    1.103102679723e-02
    25    5.877881685307e-05
    26   -2.671739865637e-05
    27    2.508346753510e-04
    28   -4.115703008957e-01
    29   -4.323353593521e-01
    30   -4.480809561332e-02
    31    9.370390717834e-01
    32    9.846930904083e-01
    33    1.020430917891e-01
    34    2.571800634339e-05
    35   -1.148965505550e-02
    36    1.306616292078e-02
    37   -2.302899221436e-01
    38   -1.183951069822e-02
    39    1.427454393926e-02
    40   -1.075072007745e+00
    41    4.862916967718e-02
    42    1.488208123795e-01
    43    1.095536233164e-02
    44   -1.392097282747e-02
    45    1.075227211886e+00
    46    1.461407650328e-01
    47    5.615467935379e-02
    48    1.028579613008e-02
Sym=X
Ene= 0.928008
Spin=Alpha
Occup=0
     1    1.417730742807e-01
     2   -1.230193164050e+00
     3    1.826247039982e-01
     4   -5.780932085024e-03
     5    7.977822946492e-03
     6   -1.666517631741e-06
     7   -7.074801072663e-04
     8    1.175637379523e-03
     9   -4.738018408096e-01
    10   -4.982339829788e-01
    11   -5.167302310745e-02
    12    1.382012104848e+00
    13    1.453684763992e+00
    14    1.507470063774e-01
    15   -1.606626048530e-04
    16    6.069930760113e-03
    17   -7.313051816871e-03
    18    1.253276073309e-01
    19    6.472245402925e-03
    20   -1.416294853280e-01
    21    1.229827111656e+00
    22   -1.516269444840e-02
    23    1.818242560784e-01
    24    1.028652827264e-02
    25   -3.045318964052e-05
    26   -8.030349763937e-04
    27    8.720645869275e-04
    28    4.746682007330e-01
    29    4.986496639897e-01
    30    5.171408304922e-02
    31   -1.384694786695e+00
    32   -1.455211262144e+00
    33   -1.508948847145e-01
    34   -4.880379944059e-05
    35    6.288496862595e-03
    36   -7.132238232785e-03
    37    1.259562443839e-01
    38    6.632675082142e-03
    39   -1.417074824315e-01
    40    1.231935858842e+00
    41    1.507423383795e-02
    42   -1.821631141874e-01
    43   -1.019323838329e-02
    44    1.417958742710e-01
    45   -1.232971563582e+00
    46   -1.829845401835e-01
    47    5.590040530474e-03
    48   -8.107917201402e-03
Sym=X
Ene= 0.970584
Spin=Alpha
Occup=0
     1   -5.972375638726e-02
     2    8.968762857124e-01
     3   -8.762817207989e-02
     4   -9.662602779603e-02
     5   -9.963800022066e-03
     6    2.707816370035e-02
     7    2.534331940519e-01
     8    5.130236776840e-01
     9    4.832088131597e-01
    10   -4.589675721528e-01
    11   -5.298568608012e-03
    12   -1.475170743100e+00
    13    1.401066248865e+00
    14    1.642571615338e-02
    15   -5.787718963587e-02
    16   -1.278167548152e-02
    17   -8.336469919364e-03
    18    1.525837602321e-02
    19   -2.963670732937e-01
    20   -5.994175648216e-02
    21    8.973123461201e-01
    22    9.207686884881e-02
    23    9.247292038227e-02
    24    9.639893407692e-03
    25   -2.705926312712e-02
    26   -2.523215434358e-01
    27   -5.149025214193e-01
    28    4.826644886173e-01
    29   -4.589608562279e-01
    30   -4.803040345064e-03
    31   -1.473332711363e+00
    32    1.401253601570e+00
    33    1.508434467153e-02
    34    5.784563183316e-02
    35    1.281525167174e-02
    36    8.316514125129e-03
    37   -1.534104297523e-02
    38    2.963911516493e-01
    39    5.976920960640e-02
    40   -8.973084706958e-01
    41    9.207754290589e-02
    42    9.241896990536e-02
    43    9.527276103198e-03
    44    5.956454446033e-02
    45   -8.953416317541e-01
    46   -8.736186098310e-02
    47   -9.661309616474e-02
    48   -1.005647330244e-02
[5D]

======= END OF MOLDEN-FORMATTED INPUT FILE =======


        *************************************************************
        *                                                           *
        *  Thank you very much for using Q-Chem.  Have a nice day.  *
        *                                                           *
        *************************************************************


