                  Welcome to Q-Chem
     A Quantum Leap Into The Future Of Chemistry


 Q-Chem 5.4 (devel), Q-Chem, Inc., Pleasanton, CA (2021)

 E. Epifanovsky,  A. T. B. Gilbert,  Xintian Feng,  Joonho Lee,  Yuezhi Mao,  
 N. Mardirossian,  P. Pokhilko,  A. White,  M. Wormit,  M. P. Coons,  
 A. L. Dempwolff,  Zhengting Gan,  D. Hait,  P. R. Horn,  L. D. Jacobson,  
 I. Kaliman,  J. Kussmann,  A. W. Lange,  Ka Un Lao,  D. S. Levine,  Jie Liu,  
 S. C. McKenzie,  A. F. Morrison,  K. Nanda,  F. Plasser,  D. R. Rehn,  
 M. L. Vidal,  Zhi-Qiang You,  Ying Zhu,  B. Alam,  B. Albrecht,  
 A. Aldossary,  E. Alguire,  J. H. Andersen,  D. Barton,  K. Begam,  A. Behn,  
 Y. A. Bernard,  E. J. Berquist,  H. Burton,  A. Carreras,  K. Carter-Fenk,  
 R. Chakraborty,  A. D. Chien,  K. D. Closser,  V. Cofer-Shabica,  
 S. Dasgupta,  Jia Deng,  M. de Wergifosse,  M. Diedenhofen,  Hainam Do,  
 S. Ehlert,  Po-Tung Fang,  S. Fatehi,  Qingguo Feng,  T. Friedhoff,  
 J. Gayvert,  Qinghui Ge,  G. Gidofalvi,  M. Goldey,  J. Gomes,  
 C. Gonzalez-Espinoza,  S. Gulania,  A. Gunina,  M. W. D. Hanson-Heine,  
 P. H. P. Harbach,  A. W. Hauser,  M. F. Herbst,  M. Hernandez Vera,  
 M. Hodecker,  Z. C. Holden,  S. Houck,  Xunkun Huang,  Kerwin Hui,  
 B. C. Huynh,  M. Ivanov,  Hyunjun Ji,  Hanjie Jiang,  B. Kaduk,  S. Kaehler,  
 K. Khistyaev,  Jaehoon Kim,  P. Klunzinger,  Z. Koczor-Benda,  
 Joong Hoon Koh,  D. Kosenkov,  L. Koulias,  T. Kowalczyk,  C. M. Krauter,  
 K. Kue,  A. Kunitsa,  T. Kus,  A. Landau,  K. V. Lawler,  D. Lefrancois,  
 S. Lehtola,  Rain Li,  Yi-Pei Li,  Jiashu Liang,  M. Liebenthal,  
 Hung-Hsuan Lin,  You-Sheng Lin,  Fenglai Liu,  Kuan-Yu Liu,  
 M. Loipersberger,  A. Luenser,  A. Manjanath,  P. Manohar,  E. Mansoor,  
 S. F. Manzer,  Shan-Ping Mao,  A. V. Marenich,  T. Markovich,  S. Mason,  
 S. A. Maurer,  P. F. McLaughlin,  M. F. S. J. Menger,  J.-M. Mewes,  
 S. A. Mewes,  P. Morgante,  J. W. Mullinax,  K. J. Oosterbaan,  G. Paran,  
 Alexander C. Paul,  Suranjan K. Paul,  F. Pavosevic,  Zheng Pei,  S. Prager,  
 E. I. Proynov,  E. Ramos,  B. Rana,  A. E. Rask,  A. Rettig,  R. M. Richard,  
 F. Rob,  E. Rossomme,  T. Scheele,  M. Scheurer,  M. Schneider,  
 N. Sergueev,  S. M. Sharada,  W. Skomorowski,  D. W. Small,  C. J. Stein,  
 Yu-Chuan Su,  E. J. Sundstrom,  Zhen Tao,  J. Thirman,  T. Tsuchimochi,  
 N. M. Tubman,  S. P. Veccham,  O. Vydrov,  J. Wenzel,  J. Witte,  A. Yamada,  
 Kun Yao,  S. Yeganeh,  S. R. Yost,  A. Zech,  Igor Ying Zhang,  Xing Zhang,  
 Yu Zhang,  D. Zuev,  A. Aspuru-Guzik,  A. T. Bell,  N. A. Besley,  
 K. B. Bravaya,  B. R. Brooks,  D. Casanova,  Jeng-Da Chai,  S. Coriani,  
 C. J. Cramer,  A. E. DePrince, III,  R. A. DiStasio Jr.,  A. Dreuw,  
 B. D. Dunietz,  T. R. Furlani,  W. A. Goddard III,  S. Grimme,  
 S. Hammes-Schiffer,  T. Head-Gordon,  W. J. Hehre,  Chao-Ping Hsu,  
 T.-C. Jagau,  Yousung Jung,  A. Klamt,  Jing Kong,  D. S. Lambrecht,  
 WanZhen Liang,  N. J. Mayhall,  C. W. McCurdy,  J. B. Neaton,  
 C. Ochsenfeld,  J. A. Parkhill,  R. Peverati,  V. A. Rassolov,  Yihan Shao,  
 L. V. Slipchenko,  T. Stauch,  R. P. Steele,  J. E. Subotnik,  
 A. J. W. Thom,  A. Tkatchenko,  D. G. Truhlar,  T. Van Voorhis,  
 T. A. Wesolowski,  K. B. Whaley,  H. L. Woodcock III,  P. M. Zimmerman,  
 S. Faraji,  P. M. W. Gill,  M. Head-Gordon,  J. M. Herbert,  A. I. Krylov

 Additional authors for Version 5.4.1: 
 S. Kotaru,  Shaozhi Li,  Xiangyuan Li,  F. Matz,  A. Molle,  Haisheng Ren,  
 Yingli Su,  Hung-Yi Tsai,  C. Utku,  Fang Wang

 Contributors to earlier versions of Q-Chem not listed above: 
 R. D. Adamson,  B. Austin,  R. Baer,  J. Baker,  G. J. O. Beran,  
 K. Brandhorst,  S. T. Brown,  E. F. C. Byrd,  A. K. Chakraborty,  
 G. K. L. Chan,  Chun-Min Chang,  Yunqing Chen,  C.-L. Cheng,  
 Siu Hung Chien,  D. M. Chipman,  D. L. Crittenden,  H. Dachsel,  
 R. J. Doerksen,  A. D. Dutoi,  R. G. Edgar,  J. Fosso-Tande,  
 L. Fusti-Molnar,  D. Ghosh,  A. Ghysels,  A. Golubeva-Zadorozhnaya,  
 J. Gonthier,  M. S. Gordon,  S. R. Gwaltney,  G. Hawkins,  J. E. Herr,  
 A. Heyden,  S. Hirata,  E. G. Hohenstein,  G. Kedziora,  F. J. Keil,  
 C. Kelley,  Jihan Kim,  R. A. King,  R. Z. Khaliullin,  P. P. Korambath,  
 W. Kurlancheek,  A. Laurent,  A. M. Lee,  M. S. Lee,  S. V. Levchenko,  
 Ching Yeh Lin,  D. Liotard,  E. Livshits,  R. C. Lochan,  I. Lotan,  
 L. A. Martinez-Martinez,  P. E. Maslen,  N. Nair,  D. P. O'Neill,  
 D. Neuhauser,  E. Neuscamman,  C. M. Oana,  R. Olivares-Amaya,  R. Olson,  
 T. M. Perrine,  B. Peters,  P. A. Pieniazek,  A. Prociuk,  Y. M. Rhee,  
 J. Ritchie,  M. A. Rohrdanz,  E. Rosta,  N. J. Russ,  H. F. Schaefer III,  
 M. W. Schmidt,  N. E. Schultz,  S. Sharma,  N. Shenvi,  C. D. Sherrill,  
 A. C. Simmonett,  A. Sodt,  T. Stein,  D. Stuck,  K. S. Thanthiriwatte,  
 V. Vanovschi,  L. Vogt,  Tao Wang,  A. Warshel,  M. A. Watson,  
 C. F. Williams,  Q. Wu,  X. Xu,  Jun Yang,  W. Zhang,  Yan Zhao

 Please cite Q-Chem as follows:
 Y. Shao et al., Mol. Phys. 113, 184-215 (2015)
 DOI: 10.1080/00268976.2014.952696

 Q-Chem 5.4.1 for Intel X86 EM64T Linux

 Parts of Q-Chem use Armadillo 9.800.1 (Horizon Scraper).
 http://arma.sourceforge.net/

 Q-Chem begins on Mon Mar 20 18:24:10 2023  

 Host: cpu186.baobab
0

     Scratch files written to /scratch/fum/qchem75623//
 Processing $rem in /home/share/wesolowski/qc5.aug2021.FDE/config/preferences:
 Processing $rem in /home/fum/.qchemrc:

 Checking the input file for inconsistencies... 	...done.

--------------------------------------------------------------
User input:
--------------------------------------------------------------
$comment
generated from CCJob.Templates
$end

$rem
sym_ignore = true
method = adc(2)
ee_states = 10
basis = cc-pVDZ
mem_static = 1024
mem_total = 40000
adc_davidson_maxiter = 900
adc_davidson_conv = 6
adc_print = 3
adc_prop_es = true
adc_prop_es2es = true
adc_prop_tpa = true
molden_format = True
state_analysis = true
print_orbitals = 15
gen_scfman = false
fde_export_density = true
fde_details = 3
$end

$molecule
0 1
H -0.029944215838444976 -0.23098666544595595 0.06964690542834766
C -1.094696747276631 -0.5118534549432003 -0.0024063004012289573
H -1.2929538204657802 -1.5916354721600645 -0.08487105870374113
C -2.0999111623660527 0.3659092776068114 0.01709956019785745
H -1.8506040087261977 1.4566172811335865 0.09212508428970226
H -3.113585155453542 0.09596751481947101 -0.06229406804238426                     
$end
--------------------------------------------------------------
 ----------------------------------------------------------------
             Standard Nuclear Orientation (Angstroms)
    I     Atom           X                Y                Z
 ----------------------------------------------------------------
    1      H      -0.0299442158    -0.2309866654     0.0696469054
    2      C      -1.0946967473    -0.5118534549    -0.0024063004
    3      H      -1.2929538205    -1.5916354722    -0.0848710587
    4      C      -2.0999111624     0.3659092776     0.0170995602
    5      H      -1.8506040087     1.4566172811     0.0921250843
    6      H      -3.1135851555     0.0959675148    -0.0622940680
 ----------------------------------------------------------------
 Nuclear Repulsion Energy =          33.20056334 hartrees
 There are        8 alpha and        8 beta electrons
 Requested basis set is cc-pVDZ
 There are 24 shells and 48 basis functions
 Total memory of 40000 MB is distributed as follows: 
   MEM_STATIC is set to 1024 MB
   QALLOC/CCMAN JOB total memory use is  38976 MB
 Warning: actual memory use might exceed 40000 MB

 Total QAlloc Memory Limit  40000 MB
 Mega-Array Size      1001 MB
 MEM_STATIC part      1024 MB

                       Distance Matrix (Angstroms)
             H (  1)   C (  2)   H (  3)   C (  4)   H (  5)
   C (  2)  1.103529
   H (  3)  1.862910  1.100925
   C (  4)  2.154950  1.334655  2.119802
   H (  5)  2.482602  2.110737  3.103892  1.121350
   H (  6)  3.103731  2.109252  2.482582  1.052001  1.862883

 A cutoff of  1.0D-11 yielded    300 shell pairs
 There are      1220 function pairs (      1329 Cartesian)
 Smallest overlap matrix eigenvalue = 4.82E-03

 Scale SEOQF with 1.000000e-01/1.000000e-01/1.000000e+00

 Standard Electronic Orientation quadrupole field applied
 Nucleus-field energy     =     0.0000000022 hartrees
 Guess from superposition of atomic densities
 Warning:  Energy on first SCF cycle will be non-variational
 SAD guess density has 16.000000 electrons
 A restricted Hartree-Fock SCF calculation will be
 performed using Pulay DIIS extrapolation
 SCF converges when DIIS error is below 1.0E-08
 using 10 threads for integral computing
 -------------------------------------------------------
 OpenMP Integral computing Module                
 Release: version 1.0, May 2013, Q-Chem Inc. Pittsburgh 
 -------------------------------------------------------
 ---------------------------------------
  Cycle       Energy         DIIS Error
 ---------------------------------------
    1     -78.3952445349      9.92E-02
    2     -78.0152118724      7.13E-03
    3     -78.0357039624      1.83E-03
    4     -78.0371841576      5.67E-04
    5     -78.0373028306      6.31E-05
    6     -78.0373048204      1.61E-05
    7     -78.0373049403      6.54E-06
    8     -78.0373049564      1.24E-06
    9     -78.0373049579      3.90E-07
   10     -78.0373049580      9.08E-08
   11     -78.0373049580      6.96E-09 Convergence criterion met
 ---------------------------------------
 SCF time:  CPU 2.19 s  wall 8.81 s
 SCF   energy in the final basis set = -78.03730496
 Total energy in the final basis set = -78.03730496
Exporting Density Matrix to file 'Densmat_SCF.txt'.
Export successful
================================================================================
|                                                                              |
|                                 A D C  M A N                                 |
|                                                                              |
 ------------------------------------------------------------------------------ 
|                                                                              |
| Components:                                                                  |
|                                                                              |
| - libvmm - 1.3-trunk                                                         |
|   Authors:                                                                   |
|   Evgeny Epifanovsky, Ilya Kaliman                                           |
|                                                                              |
| - libtensor - 2.5-trunk                                                      |
|   Authors:                                                                   |
|   Evgeny Epifanovsky, Michael Wormit, Dmitry Zuev, Sam Manzer,               |
|   Ilya Kaliman                                                               |
|                                                                              |
| - libwfa - 1.1-trunk                                                         |
|   Authors:                                                                   |
|   Felix Plasser, Stefanie Mewes (Baeppler), Benjamin Thomitzni,              |
|   Michael Wormit, Feng Chen, Anna I. Krylov, Pavel Pokhilko                  |
|                                                                              |
| - libadc - 1.1-trunk                                                         |
|   Authors:                                                                   |
|   Michael Wormit, Adrian L. Dempwolff, Philipp H. P. Harbach,                |
|   Caroline Krauter, Dirk Rehn, Matthias Schneider, Jan Wenzel                |
|                                                                              |
| - adcman - 2.6-trunk                                                         |
|   Authors:                                                                   |
|   Michael Wormit, Adrian L. Dempwolff, Philipp H. P. Harbach,                |
|   Caroline Krauter, Daniel Lefrancois, Jan-Michael Mewes, Dirk Rehn,         |
|   Matthias Schneider, Jan Wenzel, Andreas Dreuw                              |
|                                                                              |
| Authors of earlier versions of ADCMAN:                                       |
| Andreas Dreuw, Jan Hendrik Starcke, Dirk Rehn, Michael Wormit                |
|                                                                              |
================================================================================

 Created directory /scratch/fum/qchem75623/plots
  Import QC data ...  CPU 0.00 s  wall 0.00 s

 Alpha MOs, Restricted
 -- Occupied --                  
-11.240 -11.237  -1.030  -0.787  -0.635  -0.583  -0.498  -0.374
  1 A     2 A     3 A     4 A     5 A     6 A     7 A     8 A                  
 -- Virtual --                   
  0.167   0.202   0.231   0.236   0.302   0.462   0.580   0.609
  9 A    10 A    11 A    12 A    13 A    14 A    15 A    16 A                  
  0.689   0.705   0.775   0.807   0.859   0.926   0.972   1.007
 17 A    18 A    19 A    20 A    21 A    22 A    23 A    24 A                  
  1.129   1.234   1.243   1.261   1.293   1.592   1.724   1.746
 25 A    26 A    27 A    28 A    29 A    30 A    31 A    32 A                  
  1.810   1.846   1.855   1.905   1.954   1.980   2.224   2.246
 33 A    34 A    35 A    36 A    37 A    38 A    39 A    40 A                  
  2.357   2.422   2.494   2.616   2.667   2.815   3.100   3.378
 41 A    42 A    43 A    44 A    45 A    46 A    47 A    48 A                  

 Beta MOs, Restricted
 -- Occupied --                  
-11.240 -11.237  -1.030  -0.787  -0.635  -0.583  -0.498  -0.374
  1 A     2 A     3 A     4 A     5 A     6 A     7 A     8 A                  
 -- Virtual --                   
  0.167   0.202   0.231   0.236   0.302   0.462   0.580   0.609
  9 A    10 A    11 A    12 A    13 A    14 A    15 A    16 A                  
  0.689   0.705   0.775   0.807   0.859   0.926   0.972   1.007
 17 A    18 A    19 A    20 A    21 A    22 A    23 A    24 A                  
  1.129   1.234   1.243   1.261   1.293   1.592   1.724   1.746
 25 A    26 A    27 A    28 A    29 A    30 A    31 A    32 A                  
  1.810   1.846   1.855   1.905   1.954   1.980   2.224   2.246
 33 A    34 A    35 A    36 A    37 A    38 A    39 A    40 A                  
  2.357   2.422   2.494   2.616   2.667   2.815   3.100   3.378
 41 A    42 A    43 A    44 A    45 A    46 A    47 A    48 A                  
  Import AO data ...  CPU 0.00 s  wall 0.03 s
  Using point group: C1
  Irreducible representations in point group: A
  Molecular orbitals: 
  Occupied MOs:
  Block   0:   1 (  A) A   2 (  A) A   3 (  A) A   4 (  A) A   5 (  A) A
                  -11.24      -11.24       -1.03     -0.7869     -0.6353
               6 (  A) A   7 (  A) A   8 (  A) A
                 -0.5833     -0.4976     -0.3743
  Block   1:   1 (  A) B   2 (  A) B   3 (  A) B   4 (  A) B   5 (  A) B
                  -11.24      -11.24       -1.03     -0.7869     -0.6353
               6 (  A) B   7 (  A) B   8 (  A) B
                 -0.5833     -0.4976     -0.3743
  Virtual MOs:
  Block   0:   9 (  A) A  10 (  A) A  11 (  A) A  12 (  A) A  13 (  A) A
                  0.1675      0.2022       0.231      0.2364      0.3025
              14 (  A) A  15 (  A) A  16 (  A) A  17 (  A) A  18 (  A) A
                   0.462      0.5803       0.609      0.6887      0.7049
              19 (  A) A  20 (  A) A  21 (  A) A  22 (  A) A
                  0.7748      0.8071      0.8587      0.9261
  Block   1:  23 (  A) A  24 (  A) A  25 (  A) A  26 (  A) A  27 (  A) A
                  0.9716       1.007       1.129       1.234       1.243
              28 (  A) A  29 (  A) A  30 (  A) A  31 (  A) A  32 (  A) A
                   1.261       1.293       1.592       1.724       1.746
              33 (  A) A  34 (  A) A  35 (  A) A  36 (  A) A
                    1.81       1.846       1.855       1.905
  Block   2:  37 (  A) A  38 (  A) A  39 (  A) A  40 (  A) A  41 (  A) A
                   1.954        1.98       2.224       2.246       2.357
              42 (  A) A  43 (  A) A  44 (  A) A  45 (  A) A  46 (  A) A
                   2.422       2.494       2.616       2.667       2.815
              47 (  A) A  48 (  A) A
                     3.1       3.378
  Block   3:   9 (  A) B  10 (  A) B  11 (  A) B  12 (  A) B  13 (  A) B
                  0.1675      0.2022       0.231      0.2364      0.3025
              14 (  A) B  15 (  A) B  16 (  A) B  17 (  A) B  18 (  A) B
                   0.462      0.5803       0.609      0.6887      0.7049
              19 (  A) B  20 (  A) B  21 (  A) B  22 (  A) B
                  0.7748      0.8071      0.8587      0.9261
  Block   4:  23 (  A) B  24 (  A) B  25 (  A) B  26 (  A) B  27 (  A) B
                  0.9716       1.007       1.129       1.234       1.243
              28 (  A) B  29 (  A) B  30 (  A) B  31 (  A) B  32 (  A) B
                   1.261       1.293       1.592       1.724       1.746
              33 (  A) B  34 (  A) B  35 (  A) B  36 (  A) B
                    1.81       1.846       1.855       1.905
  Block   5:  37 (  A) B  38 (  A) B  39 (  A) B  40 (  A) B  41 (  A) B
                   1.954        1.98       2.224       2.246       2.357
              42 (  A) B  43 (  A) B  44 (  A) B  45 (  A) B  46 (  A) B
                   2.422       2.494       2.616       2.667       2.815
              47 (  A) B  48 (  A) B
                     3.1       3.378
  Import MO data ...  CPU 0.15 s  wall 0.05 s
  Import HF data ...  CPU 0.29 s  wall 0.11 s
  Import 2e integrals ...  CPU 1.05 s  wall 0.23 s

--------------------------------------------------------------------------------
                                   HF Summary                                   
--------------------------------------------------------------------------------
  Energy:                                                  -78.0373049580 a.u.
  Dip. moment [a.u.]:                  [  -0.003618,   -0.008377,   -0.006571]
  Total dipole [Debye]:                                               0.028580
  <r^2> [a.u.]:                        [ 181.937222,   34.579586,   11.700751]
  Total <r^2> [a.u.]:                                               228.217559
--------------------------------------------------------------------------------
  HF properties ...  CPU 0.03 s  wall 0.02 s
  MP(1) calculation ...  CPU 0.01 s  wall 0.04 s
  N^6 prerequesite intermediates ...  CPU 0.68 s  wall 0.14 s
  Difference density matrix of state mp2_gs printed to ASCII file 'State_mp2_gs_Difference.txt'
Exporting MP density matrix to file 'Densmat_MP.txt'.
Export successful
  Total density matrix of state mp2_gs printed to ASCII file 'State_mp2_gs_Total.txt'
Exporting MP density matrix to file 'Densmat_MP.txt'.
Export successful

--------------------------------------------------------------------------------
                                 MP(2) Summary                                  
--------------------------------------------------------------------------------
  MP energy contribution:                                   -0.2806197711 a.u.
  Total energy:                                            -78.3179247291 a.u.
  Dip. moment [a.u.]:                  [  -0.002618,   -0.006281,   -0.006300]
  Total dipole [Debye]:                                               0.023571
  <r^2> [a.u.]:                        [ 181.996605,   34.600356,   11.527330]
  Total <r^2> [a.u.]:                                               228.124291

  Density matrix analysis:
  ------------------------
  NOs
    Occupation of frontier NOs:
       0.0456   1.9379
    Number of electrons: 16.000000
    Number of unpaired electrons: n_u =  0.40786, n_u,nl =  0.04599
    NO participation ratio (PR_NO): 13.880422
  
  
  Mulliken Population Analysis
  Atom      Charge (e)              h+              e-           Del q
  --------------------------------------------------------------------
   1 H        0.058562        0.013684       -0.011409        0.002275
   2 C       -0.121824        0.095307       -0.100715       -0.005408
   3 H        0.054106        0.014084       -0.011303        0.002781
   4 C       -0.095625        0.094148       -0.099362       -0.005214
   5 H        0.057898        0.013864       -0.011284        0.002580
   6 H        0.046883        0.014251       -0.011264        0.002987
  --------------------------------------------------------------------
  Sum:        0.000000        0.245338       -0.245338       -0.000000
  
  Multipole moment analysis of the density matrix
    Molecular charge:                      0.000000
    Number of electrons:                   16.000000
      Center of electronic charge [Ang]: [ -1.590834,  -0.071399,   0.006631]
    Total nuclear charge:                  16.000000
      Center of nuclear charge [Ang]:    [ -1.590921,  -0.071606,   0.006423]
    Dipole moment [D]:                     0.023571
      Cartesian components [D]:          [ -0.006654,  -0.015965,  -0.016014]
    RMS size of the density [Ang]:         1.206933
      Cartesian components [Ang]:        [  0.809019,   0.774900,   0.449116]
  
  Exciton analysis of the difference density matrix
    <r_h> [Ang]:                  [ -1.584987,  -0.068456,   0.008029]
    <r_e> [Ang]:                  [ -1.587144,  -0.072976,   0.007445]
    |<r_e - r_h>| [Ang]:            0.005042
    Hole size [Ang]:                1.402941
      Cartesian components [Ang]: [  0.854488,   0.840308,   0.729367]
    Electron size [Ang]:            1.361731
      Cartesian components [Ang]: [  0.889429,   0.853923,   0.577965]
--------------------------------------------------------------------------------
  MP(2) calculation ...  CPU 0.41 s  wall 0.27 s
  Start ADC(2)-s ...  CPU 0.02 s  wall 0.01 s
  ADC(2) intermediates ...  CPU 0.11 s  wall 0.03 s
  Starting Davidson for singlet states of irrep A ... 
--------------------------------------------------------------------------------
   It NVec Conv  Avg. Norm  Max. Norm  Conv. states           Remark
--------------------------------------------------------------------------------
        10    0  1.329e-01  4.692e-01  0.4107 n n n n n n n n Guess.
    1   20    0  2.719e-02  1.666e-01  0.3258 n n n n n n n n 
    2   30    0  6.834e-03  3.913e-02  0.3209 n n n n n n n n 
    3   40    0  2.534e-03  1.843e-02  0.3205 n n n n n n n n 
    4   50    0  9.782e-04  7.994e-03  0.3205 n n n n n n n n 
    5   20    0  7.269e-04  6.226e-03  0.3205 n n n n n n n n Subspace collapsed.
    6   30    0  1.399e-03  1.322e-02  0.3205 n n n n n n n n 
    7   40    0  1.080e-03  1.046e-02  0.3205 n n n n n n n n 
    8   50    0  5.775e-04  5.616e-03  0.3205 n n n n n n n n 
    9   20    0  3.445e-04  3.345e-03  0.3205 n n n n n n n n Subspace collapsed.
   10   30    1  1.525e-04  1.481e-03  0.3205 n n n y n n n n 
   11   40    3  8.386e-05  8.235e-04  0.3205 n y y y n n n n 
   12   50    5  5.281e-05  5.189e-04  0.3205 y y y y y n n n 
   13   20    6  3.368e-05  3.314e-04  0.3205 y y y y y y n n Subspace collapsed.
   14   30    6  4.843e-05  4.779e-04  0.3205 y y y y y y n n 
   15   40    6  5.651e-05  5.599e-04  0.3205 y y y y y y n n 
   16   50    6  4.564e-05  4.541e-04  0.3205 y y y y y y n n 
   17   20    6  2.109e-05  2.099e-04  0.3205 y y y y y y n n Subspace collapsed.
   18   30    6  1.616e-05  1.607e-04  0.3205 y y y y y y n n 
   19   40    7  1.020e-05  1.015e-04  0.3205 y y y y y y y n 
   20   50    7  8.050e-06  8.020e-05  0.3205 y y y y y y y n 
   21   20    7  6.138e-06  6.117e-05  0.3205 y y y y y y y n Subspace collapsed.
   22   30    7  6.895e-06  6.874e-05  0.3205 y y y y y y y n 
   23   40    7  8.311e-06  8.293e-05  0.3205 y y y y y y y n 
   24   49    8  7.264e-06  7.253e-05  0.3205 y y y y y y y y 
   25   50    8  7.268e-06  7.257e-05  0.3205 y y y y y y y y 
   26   17    8  3.392e-06  3.387e-05  0.3205 y y y y y y y y Subspace collapsed.
   27   24    8  2.446e-06  2.442e-05  0.3205 y y y y y y y y 
   28   31    9  1.883e-06  1.880e-05  0.3205 y y y y y y y y 
   29   37    9  1.162e-06  1.160e-05  0.3205 y y y y y y y y 
   30   42    9  1.667e-06  1.666e-05  0.3205 y y y y y y y y 
   31   47    9  1.583e-06  1.582e-05  0.3205 y y y y y y y y 
   32   50    9  1.050e-06  1.050e-05  0.3205 y y y y y y y y 
   33   14    9  3.990e-07  3.988e-06  0.3205 y y y y y y y y Subspace collapsed.
   34   18    9  2.982e-07  2.981e-06  0.3205 y y y y y y y y 
   35   22    9  1.507e-07  1.506e-06  0.3205 y y y y y y y y 
   36   26   10  9.810e-08  9.805e-07  0.3205 y y y y y y y y Converged.
--------------------------------------------------------------------------------
  Davidson Summary: 
 ------------------------------------------------------------
  State  0: excitation energy =   0.3205 a.u.   (converged)
  State  1: excitation energy =   0.3268 a.u.   (converged)
  State  2: excitation energy =   0.3351 a.u.   (converged)
  State  3: excitation energy =   0.3581 a.u.   (converged)
  State  4: excitation energy =   0.3736 a.u.   (converged)
  State  5: excitation energy =   0.3872 a.u.   (converged)
  State  6: excitation energy =   0.4184 a.u.   (converged)
  State  7: excitation energy =   0.4430 a.u.   (converged)
  State  8: excitation energy =   0.4531 a.u.   (converged)
  State  9: excitation energy =   0.4570 a.u.   (converged)
 ------------------------------------------------------------

  Singlet states of irrep A ...  CPU 221.23 s  wall 71.24 s
  TDMs ...  CPU 2.79 s  wall 0.94 s
  SDMs ...  CPU 4.51 s  wall 1.49 s
  Starting TPA DIIS iterations ... 
------------------------------------ 
   It     Res. Norm  Remark
------------------------------------
                       Guess.
    1     4.611e+00  
    2     6.106e+00  
    3     1.101e+00  
    4     2.519e-01  
    5     6.544e-02  
    6     2.635e-02  
    7     8.375e-03  
    8     1.411e-03  
    9     5.459e-04  
   10     9.326e-05  
   11     2.894e-05  
   12     5.036e-06  
   13     2.018e-06  
   14     6.629e-07  Converged.
   ... Converged in 14 steps (norm: 6.62865e-07)
------------------------------------
  Starting TPA DIIS iterations ... 
------------------------------------ 
   It     Res. Norm  Remark
------------------------------------
                       Guess.
    1     3.980e+00  
    2     5.292e+00  
    3     1.026e+00  
    4     2.751e-01  
    5     6.586e-02  
    6     2.940e-02  
    7     8.452e-03  
    8     1.728e-03  
    9     6.388e-04  
   10     1.044e-04  
   11     3.613e-05  
   12     5.483e-06  
   13     2.220e-06  
   14     5.293e-07  Converged.
   ... Converged in 14 steps (norm: 5.293e-07)
------------------------------------
  Starting TPA DIIS iterations ... 
------------------------------------ 
   It     Res. Norm  Remark
------------------------------------
                       Guess.
    1     6.995e-01  
    2     5.108e-01  
    3     1.788e-01  
    4     1.263e-01  
    5     1.774e-02  
    6     6.505e-03  
    7     1.405e-03  
    8     4.414e-04  
    9     2.603e-04  
   10     7.162e-05  
   11     3.976e-05  
   12     1.116e-05  
   13     5.194e-06  
   14     2.743e-06  
   15     8.017e-07  Converged.
   ... Converged in 15 steps (norm: 8.01705e-07)
------------------------------------
  Starting TPA DIIS iterations ... 
------------------------------------ 
   It     Res. Norm  Remark
------------------------------------
                       Guess.
    1     4.770e+00  
    2     6.390e+00  
    3     1.145e+00  
    4     2.666e-01  
    5     6.979e-02  
    6     2.823e-02  
    7     8.965e-03  
    8     1.509e-03  
    9     5.869e-04  
   10     1.006e-04  
   11     3.143e-05  
   12     5.504e-06  
   13     2.242e-06  
   14     7.354e-07  Converged.
   ... Converged in 14 steps (norm: 7.35428e-07)
------------------------------------
  Starting TPA DIIS iterations ... 
------------------------------------ 
   It     Res. Norm  Remark
------------------------------------
                       Guess.
    1     4.116e+00  
    2     5.537e+00  
    3     1.066e+00  
    4     2.910e-01  
    5     7.024e-02  
    6     3.156e-02  
    7     9.060e-03  
    8     1.854e-03  
    9     6.873e-04  
   10     1.126e-04  
   11     3.923e-05  
   12     5.981e-06  
   13     2.459e-06  
   14     5.821e-07  Converged.
   ... Converged in 14 steps (norm: 5.82052e-07)
------------------------------------
  Starting TPA DIIS iterations ... 
------------------------------------ 
   It     Res. Norm  Remark
------------------------------------
                       Guess.
    1     7.067e-01  
    2     5.221e-01  
    3     1.847e-01  
    4     1.332e-01  
    5     1.854e-02  
    6     6.853e-03  
    7     1.502e-03  
    8     4.692e-04  
    9     2.808e-04  
   10     7.977e-05  
   11     4.371e-05  
   12     1.237e-05  
   13     5.780e-06  
   14     3.069e-06  
   15     9.261e-07  Converged.
   ... Converged in 15 steps (norm: 9.2613e-07)
------------------------------------
  Starting TPA DIIS iterations ... 
------------------------------------ 
   It     Res. Norm  Remark
------------------------------------
                       Guess.
    1     4.992e+00  
    2     6.791e+00  
    3     1.207e+00  
    4     2.877e-01  
    5     7.602e-02  
    6     3.092e-02  
    7     9.811e-03  
    8     1.649e-03  
    9     6.460e-04  
   10     1.111e-04  
   11     3.508e-05  
   12     6.191e-06  
   13     2.579e-06  
   14     8.454e-07  Converged.
   ... Converged in 14 steps (norm: 8.45438e-07)
------------------------------------
  Starting TPA DIIS iterations ... 
------------------------------------ 
   It     Res. Norm  Remark
------------------------------------
                       Guess.
    1     4.306e+00  
    2     5.884e+00  
    3     1.123e+00  
    4     3.138e-01  
    5     7.653e-02  
    6     3.467e-02  
    7     9.932e-03  
    8     2.034e-03  
    9     7.573e-04  
   10     1.245e-04  
   11     4.376e-05  
   12     6.710e-06  
   13     2.820e-06  
   14     6.624e-07  Converged.
   ... Converged in 14 steps (norm: 6.62448e-07)
------------------------------------
  Starting TPA DIIS iterations ... 
------------------------------------ 
   It     Res. Norm  Remark
------------------------------------
                       Guess.
    1     7.165e-01  
    2     5.377e-01  
    3     1.928e-01  
    4     1.426e-01  
    5     1.966e-02  
    6     7.348e-03  
    7     1.643e-03  
    8     5.085e-04  
    9     3.105e-04  
   10     9.194e-05  
   11     4.957e-05  
   12     1.421e-05  
   13     6.681e-06  
   14     3.588e-06  
   15     1.114e-06  
   16     3.097e-07  Converged.
   ... Converged in 16 steps (norm: 3.09742e-07)
------------------------------------
  Starting TPA DIIS iterations ... 
------------------------------------ 
   It     Res. Norm  Remark
------------------------------------
                       Guess.
    1     5.712e+00  
    2     8.128e+00  
    3     1.404e+00  
    4     3.605e-01  
    5     9.753e-02  
    6     4.031e-02  
    7     1.274e-02  
    8     2.133e-03  
    9     8.532e-04  
   10     1.482e-04  
   11     4.832e-05  
   12     8.689e-06  
   13     3.896e-06  
   14     1.284e-06  
   15     7.624e-07  Converged.
   ... Converged in 15 steps (norm: 7.62354e-07)
------------------------------------
  Starting TPA DIIS iterations ... 
------------------------------------ 
   It     Res. Norm  Remark
------------------------------------
                       Guess.
    1     4.923e+00  
    2     7.039e+00  
    3     1.304e+00  
    4     3.925e-01  
    5     9.825e-02  
    6     4.559e-02  
    7     1.296e-02  
    8     2.661e-03  
    9     1.002e-03  
   10     1.661e-04  
   11     6.002e-05  
   12     9.335e-06  
   13     4.210e-06  
   14     9.925e-07  Converged.
   ... Converged in 14 steps (norm: 9.9246e-07)
------------------------------------
  Starting TPA DIIS iterations ... 
------------------------------------ 
   It     Res. Norm  Remark
------------------------------------
                       Guess.
    1     7.456e-01  
    2     5.870e-01  
    3     2.189e-01  
    4     1.719e-01  
    5     2.342e-02  
    6     9.030e-03  
    7     2.138e-03  
    8     6.398e-04  
    9     4.140e-04  
   10     1.379e-04  
   11     7.162e-05  
   12     2.160e-05  
   13     1.024e-05  
   14     5.930e-06  
   15     1.822e-06  
   16     4.763e-07  Converged.
   ... Converged in 16 steps (norm: 4.76258e-07)
------------------------------------
  Starting TPA DIIS iterations ... 
------------------------------------ 
   It     Res. Norm  Remark
------------------------------------
                       Guess.
    1     6.295e+00  
    2     9.248e+00  
    3     1.564e+00  
    4     4.239e-01  
    5     1.162e-01  
    6     4.859e-02  
    7     1.529e-02  
    8     2.554e-03  
    9     1.037e-03  
   10     1.810e-04  
   11     6.054e-05  
   12     1.099e-05  
   13     5.224e-06  
   14     1.751e-06  
   15     1.081e-06  
   16     4.217e-07  Converged.
   ... Converged in 16 steps (norm: 4.2173e-07)
------------------------------------
  Starting TPA DIIS iterations ... 
------------------------------------ 
   It     Res. Norm  Remark
------------------------------------
                       Guess.
    1     5.422e+00  
    2     8.008e+00  
    3     1.449e+00  
    4     4.610e-01  
    5     1.172e-01  
    6     5.528e-02  
    7     1.561e-02  
    8     3.209e-03  
    9     1.219e-03  
   10     2.029e-04  
   11     7.479e-05  
   12     1.172e-05  
   13     5.583e-06  
   14     1.359e-06  
   15     8.497e-07  Converged.
   ... Converged in 15 steps (norm: 8.4971e-07)
------------------------------------
  Starting TPA DIIS iterations ... 
------------------------------------ 
   It     Res. Norm  Remark
------------------------------------
                       Guess.
    1     7.669e-01  
    2     6.258e-01  
    3     2.395e-01  
    4     1.939e-01  
    5     2.655e-02  
    6     1.047e-02  
    7     2.576e-03  
    8     7.516e-04  
    9     5.053e-04  
   10     1.821e-04  
   11     9.295e-05  
   12     2.931e-05  
   13     1.384e-05  
   14     8.626e-06  
   15     2.488e-06  
   16     6.725e-07  Converged.
   ... Converged in 16 steps (norm: 6.72482e-07)
------------------------------------
  Starting TPA DIIS iterations ... 
------------------------------------ 
   It     Res. Norm  Remark
------------------------------------
                       Guess.
    1     6.895e+00  
    2     1.043e+01  
    3     1.726e+00  
    4     4.930e-01  
    5     1.366e-01  
    6     5.768e-02  
    7     1.806e-02  
    8     3.012e-03  
    9     1.240e-03  
   10     2.173e-04  
   11     7.442e-05  
   12     1.359e-05  
   13     6.850e-06  
   14     2.360e-06  
   15     1.485e-06  
   16     6.040e-07  Converged.
   ... Converged in 16 steps (norm: 6.03952e-07)
------------------------------------
  Starting TPA DIIS iterations ... 
------------------------------------ 
   It     Res. Norm  Remark
------------------------------------
                       Guess.
    1     5.936e+00  
    2     9.032e+00  
    3     1.598e+00  
    4     5.356e-01  
    5     1.378e-01  
    6     6.596e-02  
    7     1.850e-02  
    8     3.808e-03  
    9     1.458e-03  
   10     2.433e-04  
   11     9.128e-05  
   12     1.437e-05  
   13     7.221e-06  
   14     1.851e-06  
   15     1.162e-06  
   16     4.676e-07  Converged.
   ... Converged in 16 steps (norm: 4.67633e-07)
------------------------------------
  Starting TPA DIIS iterations ... 
------------------------------------ 
   It     Res. Norm  Remark
------------------------------------
                       Guess.
    1     7.872e-01  
    2     6.649e-01  
    3     2.603e-01  
    4     2.149e-01  
    5     2.986e-02  
    6     1.200e-02  
    7     3.059e-03  
    8     8.741e-04  
    9     6.055e-04  
   10     2.338e-04  
   11     1.182e-04  
   12     3.894e-05  
   13     1.820e-05  
   14     1.206e-05  
   15     3.263e-06  
   16     9.275e-07  Converged.
   ... Converged in 16 steps (norm: 9.27481e-07)
------------------------------------
  Starting TPA DIIS iterations ... 
------------------------------------ 
   It     Res. Norm  Remark
------------------------------------
                       Guess.
    1     8.664e+00  
    2     1.411e+01  
    3     2.200e+00  
    4     7.166e-01  
    5     2.026e-01  
    6     8.764e-02  
    7     2.708e-02  
    8     4.496e-03  
    9     1.917e-03  
   10     3.372e-04  
   11     1.223e-04  
   12     2.241e-05  
   13     1.330e-05  
   14     5.167e-06  
   15     3.162e-06  
   16     1.373e-06  
   17     6.595e-07  Converged.
   ... Converged in 17 steps (norm: 6.59498e-07)
------------------------------------
  Starting TPA DIIS iterations ... 
------------------------------------ 
   It     Res. Norm  Remark
------------------------------------
                       Guess.
    1     7.457e+00  
    2     1.221e+01  
    3     2.029e+00  
    4     7.765e-01  
    5     2.049e-01  
    6     1.014e-01  
    7     2.791e-02  
    8     5.766e-03  
    9     2.251e-03  
   10     3.762e-04  
   11     1.462e-04  
   12     2.320e-05  
   13     1.326e-05  
   14     4.080e-06  
   15     2.484e-06  
   16     1.080e-06  
   17     5.053e-07  Converged.
   ... Converged in 17 steps (norm: 5.0535e-07)
------------------------------------
  Starting TPA DIIS iterations ... 
------------------------------------ 
   It     Res. Norm  Remark
------------------------------------
                       Guess.
    1     8.403e-01  
    2     7.787e-01  
    3     3.193e-01  
    4     2.675e-01  
    5     4.004e-02  
    6     1.675e-02  
    7     4.635e-03  
    8     1.303e-03  
    9     9.355e-04  
   10     4.215e-04  
   11     2.121e-04  
   12     7.737e-05  
   13     3.481e-05  
   14     2.548e-05  
   15     6.359e-06  
   16     1.964e-06  
   17     7.447e-07  Converged.
   ... Converged in 17 steps (norm: 7.44669e-07)
------------------------------------
  Starting TPA DIIS iterations ... 
------------------------------------ 
   It     Res. Norm  Remark
------------------------------------
                       Guess.
    1     1.064e+01  
    2     1.850e+01  
    3     2.718e+00  
    4     9.946e-01  
    5     2.850e-01  
    6     1.259e-01  
    7     3.836e-02  
    8     6.355e-03  
    9     2.793e-03  
   10     4.902e-04  
   11     1.857e-04  
   12     3.387e-05  
   13     2.351e-05  
   14     1.050e-05  
   15     6.001e-06  
   16     2.620e-06  
   17     1.117e-06  
   18     7.263e-07  Converged.
   ... Converged in 18 steps (norm: 7.26267e-07)
------------------------------------
  Starting TPA DIIS iterations ... 
------------------------------------ 
   It     Res. Norm  Remark
------------------------------------
                       Guess.
    1     9.161e+00  
    2     1.602e+01  
    3     2.500e+00  
    4     1.074e+00  
    5     2.889e-01  
    6     1.471e-01  
    7     3.974e-02  
    8     8.244e-03  
    9     3.271e-03  
   10     5.442e-04  
   11     2.159e-04  
   12     3.502e-05  
   13     2.169e-05  
   14     7.968e-06  
   15     4.893e-06  
   16     2.151e-06  
   17     8.294e-07  Converged.
   ... Converged in 17 steps (norm: 8.29378e-07)
------------------------------------
  Starting TPA DIIS iterations ... 
------------------------------------ 
   It     Res. Norm  Remark
------------------------------------
                       Guess.
    1     8.922e-01  
    2     9.055e-01  
    3     3.807e-01  
    4     3.145e-01  
    5     5.200e-02  
    6     2.211e-02  
    7     6.578e-03  
    8     1.924e-03  
    9     1.357e-03  
   10     6.829e-04  
   11     3.485e-04  
   12     1.365e-04  
   13     5.975e-05  
   14     4.627e-05  
   15     1.152e-05  
   16     3.607e-06  
   17     1.302e-06  
   18     4.327e-07  Converged.
   ... Converged in 18 steps (norm: 4.3273e-07)
------------------------------------
  Starting TPA DIIS iterations ... 
------------------------------------ 
   It     Res. Norm  Remark
------------------------------------
                       Guess.
    1     1.167e+01  
    2     2.088e+01  
    3     2.981e+00  
    4     1.147e+00  
    5     3.307e-01  
    6     1.475e-01  
    7     4.462e-02  
    8     7.389e-03  
    9     3.291e-03  
   10     5.759e-04  
   11     2.219e-04  
   12     4.038e-05  
   13     3.001e-05  
   14     1.422e-05  
   15     7.943e-06  
   16     3.464e-06  
   17     1.410e-06  
   18     9.141e-07  Converged.
   ... Converged in 18 steps (norm: 9.14069e-07)
------------------------------------
  Starting TPA DIIS iterations ... 
------------------------------------ 
   It     Res. Norm  Remark
------------------------------------
                       Guess.
    1     1.004e+01  
    2     1.809e+01  
    3     2.739e+00  
    4     1.236e+00  
    5     3.356e-01  
    6     1.728e-01  
    7     4.632e-02  
    8     9.633e-03  
    9     3.849e-03  
   10     6.376e-04  
   11     2.554e-04  
   12     4.228e-05  
   13     2.662e-05  
   14     1.052e-05  
   15     6.581e-06  
   16     2.900e-06  
   17     1.039e-06  
   18     5.099e-07  Converged.
   ... Converged in 18 steps (norm: 5.09884e-07)
------------------------------------
  Starting TPA DIIS iterations ... 
------------------------------------ 
   It     Res. Norm  Remark
------------------------------------
                       Guess.
    1     9.171e-01  
    2     9.719e-01  
    3     4.105e-01  
    4     3.357e-01  
    5     5.838e-02  
    6     2.478e-02  
    7     7.629e-03  
    8     2.300e-03  
    9     1.595e-03  
   10     8.348e-04  
   11     4.307e-04  
   12     1.735e-04  
   13     7.590e-05  
   14     5.970e-05  
   15     1.489e-05  
   16     4.667e-06  
   17     1.681e-06  
   18     5.673e-07  Converged.
   ... Converged in 18 steps (norm: 5.67279e-07)
------------------------------------
  Starting TPA DIIS iterations ... 
------------------------------------ 
   It     Res. Norm  Remark
------------------------------------
                       Guess.
    1     1.211e+01  
    2     2.193e+01  
    3     3.094e+00  
    4     1.215e+00  
    5     3.511e-01  
    6     1.571e-01  
    7     4.741e-02  
    8     7.851e-03  
    9     3.515e-03  
   10     6.141e-04  
   11     2.382e-04  
   12     4.332e-05  
   13     3.307e-05  
   14     1.602e-05  
   15     8.894e-06  
   16     3.889e-06  
   17     1.553e-06  
   18     9.930e-07  Converged.
   ... Converged in 18 steps (norm: 9.92966e-07)
------------------------------------
  Starting TPA DIIS iterations ... 
------------------------------------ 
   It     Res. Norm  Remark
------------------------------------
                       Guess.
    1     1.043e+01  
    2     1.900e+01  
    3     2.841e+00  
    4     1.308e+00  
    5     3.564e-01  
    6     1.844e-01  
    7     4.925e-02  
    8     1.025e-02  
    9     4.108e-03  
   10     6.792e-04  
   11     2.732e-04  
   12     4.572e-05  
   13     2.887e-05  
   14     1.174e-05  
   15     7.400e-06  
   16     3.269e-06  
   17     1.143e-06  
   18     5.638e-07  Converged.
   ... Converged in 18 steps (norm: 5.63823e-07)
------------------------------------
  Starting TPA DIIS iterations ... 
------------------------------------ 
   It     Res. Norm  Remark
------------------------------------
                       Guess.
    1     9.275e-01  
    2     1.001e+00  
    3     4.230e-01  
    4     3.444e-01  
    5     6.117e-02  
    6     2.589e-02  
    7     8.089e-03  
    8     2.472e-03  
    9     1.701e-03  
   10     9.033e-04  
   11     4.686e-04  
   12     1.908e-04  
   13     8.376e-05  
   14     6.610e-05  
   15     1.649e-05  
   16     5.177e-06  
   17     1.868e-06  
   18     6.343e-07  Converged.
   ... Converged in 18 steps (norm: 6.34288e-07)
------------------------------------
  Two-photon absorbption ...  CPU 172.26 s  wall 47.52 s
  Transition density matrix of state singlet_A_1 printed to ASCII file 'State_singlet_A_1_Transition.txt'
  Transition density matrix of state singlet_A_2 printed to ASCII file 'State_singlet_A_2_Transition.txt'
  Transition density matrix of state singlet_A_3 printed to ASCII file 'State_singlet_A_3_Transition.txt'
  Transition density matrix of state singlet_A_4 printed to ASCII file 'State_singlet_A_4_Transition.txt'
  Transition density matrix of state singlet_A_5 printed to ASCII file 'State_singlet_A_5_Transition.txt'
  Transition density matrix of state singlet_A_6 printed to ASCII file 'State_singlet_A_6_Transition.txt'
  Transition density matrix of state singlet_A_7 printed to ASCII file 'State_singlet_A_7_Transition.txt'
  Transition density matrix of state singlet_A_8 printed to ASCII file 'State_singlet_A_8_Transition.txt'
  Transition density matrix of state singlet_A_9 printed to ASCII file 'State_singlet_A_9_Transition.txt'
  Transition density matrix of state singlet_A_10 printed to ASCII file 'State_singlet_A_10_Transition.txt'
  Transition properties ...  CPU 0.45 s  wall 7.69 s
  Difference density matrix of state singlet_A_1 printed to ASCII file 'State_singlet_A_1_Difference.txt'
  Total density matrix of state singlet_A_1 printed to ASCII file 'State_singlet_A_1_Total.txt'
  Difference density matrix of state singlet_A_2 printed to ASCII file 'State_singlet_A_2_Difference.txt'
  Total density matrix of state singlet_A_2 printed to ASCII file 'State_singlet_A_2_Total.txt'
  Difference density matrix of state singlet_A_3 printed to ASCII file 'State_singlet_A_3_Difference.txt'
  Total density matrix of state singlet_A_3 printed to ASCII file 'State_singlet_A_3_Total.txt'
  Difference density matrix of state singlet_A_4 printed to ASCII file 'State_singlet_A_4_Difference.txt'
  Total density matrix of state singlet_A_4 printed to ASCII file 'State_singlet_A_4_Total.txt'
  Difference density matrix of state singlet_A_5 printed to ASCII file 'State_singlet_A_5_Difference.txt'
  Total density matrix of state singlet_A_5 printed to ASCII file 'State_singlet_A_5_Total.txt'
  Difference density matrix of state singlet_A_6 printed to ASCII file 'State_singlet_A_6_Difference.txt'
  Total density matrix of state singlet_A_6 printed to ASCII file 'State_singlet_A_6_Total.txt'
  Difference density matrix of state singlet_A_7 printed to ASCII file 'State_singlet_A_7_Difference.txt'
  Total density matrix of state singlet_A_7 printed to ASCII file 'State_singlet_A_7_Total.txt'
  Difference density matrix of state singlet_A_8 printed to ASCII file 'State_singlet_A_8_Difference.txt'
  Total density matrix of state singlet_A_8 printed to ASCII file 'State_singlet_A_8_Total.txt'
  Difference density matrix of state singlet_A_9 printed to ASCII file 'State_singlet_A_9_Difference.txt'
  Total density matrix of state singlet_A_9 printed to ASCII file 'State_singlet_A_9_Total.txt'
  Difference density matrix of state singlet_A_10 printed to ASCII file 'State_singlet_A_10_Difference.txt'
  Total density matrix of state singlet_A_10 printed to ASCII file 'State_singlet_A_10_Total.txt'
  Properties ...  CPU 0.76 s  wall 1.27 s
  ISR TDMS ...  CPU 28.45 s  wall 9.27 s
  ISR transition properties ...  CPU 0.63 s  wall 0.29 s
  Sum-over-states TPA ...  CPU 0.00 s  wall 0.00 s

--------------------------------------------------------------------------------
                   State-averaged natural transition orbitals
--------------------------------------------------------------------------------
--------------------------------------------------------------------------------
  SA-NTO decomposition ...  CPU 0.01 s  wall 0.03 s

--------------------------------------------------------------------------------
                             Excited State Summary
--------------------------------------------------------------------------------
--------------------------------------------------------------------------------

  Excited state 1 (singlet, A)                                     [converged]
  ----------------------------------------------------------------------------
  Term symbol:  2 (1) A                                     R^2 =  4.11877e-13

  Total energy:                                            -77.9974301851 a.u.
  Excitation energy:                                               8.721100 eV

  Osc. strength:                                                      0.445908
  Trans. dip. moment [a.u.]:           [   1.068976,   -0.971410,   -0.024937]
  <i|r^2|0> [a.u.]:                    [   6.396910,   -0.228533,   -0.001042]
  Two-photon absorption cross-section (SoS) [a.u.]:                   0.043919
  Two-photon absorption matrix (SoS) [a.u.]:
                                       |   -0.077505   -0.027703   -0.008723 |
                                       |   -0.027703    0.051438   -0.008836 |
                                       |   -0.008723   -0.008836    0.021779 |
  Two-photon absorption cross-section [a.u.]:                         0.060616
  Two-photon absorption matrix [a.u.]:
                                       |   -0.040921   -0.012363    0.001345 |
                                       |   -0.012363    0.093164   -0.008125 |
                                       |    0.001345   -0.008125    0.030536 |

  Dip. moment [a.u.]:                  [  -0.001879,   -0.004642,   -0.007602]
  Total dipole [Debye]:                                               0.023138
  <r^2> [a.u.]:                        [ 182.808106,   35.230218,   11.935541]
  Total <r^2> [a.u.]:                                               229.973864

  V1^2 = 0.9713, V2^2 = 0.0287

  Important amplitudes:
      occ i     occ j     vir a      vir b          v   
    -----------------------------------------------------
     8 (A) A              9 (A) A                -0.6808
     6 (A) A             14 (A) A                -0.0614
     4 (A) A             10 (A) A                -0.0608
     7 (A) A             16 (A) A                -0.0566
     5 (A) A             13 (A) A                -0.0523
     6 (A) A             23 (A) A                 0.0462
     8 (A) A             20 (A) A                -0.0349
     6 (A) A             19 (A) A                 0.0293
     3 (A) A             12 (A) A                 0.0283
     5 (A) A             22 (A) A                -0.0203
     7 (A) A             11 (A) A                -0.0193
     4 (A) A             24 (A) A                -0.0186
     8 (A) A   8 (A) B   17 (A) A   20 (A) B      0.0184
     8 (A) A   8 (A) B    9 (A) A   28 (A) B     -0.0166
     3 (A) A             26 (A) A                 0.0160
     7 (A) A             21 (A) A                 0.0159
     6 (A) A             26 (A) A                -0.0145
     3 (A) A             14 (A) A                 0.0143
     6 (A) A             12 (A) A                 0.0133
     3 (A) A   4 (A) B    9 (A) A    9 (A) B      0.0129
     3 (A) A             19 (A) A                -0.0119
     6 (A) A             22 (A) A                -0.0117
     8 (A) A   8 (A) B   18 (A) A   19 (A) B      0.0109
     3 (A) A             27 (A) A                 0.0096
     7 (A) A             32 (A) A                 0.0091
     5 (A) A             23 (A) A                -0.0084
     7 (A) A             36 (A) A                -0.0083
     5 (A) A             10 (A) A                 0.0080
     3 (A) A             23 (A) A                -0.0080
     6 (A) A             13 (A) A                -0.0079
     6 (A) A             16 (A) A                 0.0079
     8 (A) A   8 (A) B   25 (A) A   29 (A) B      0.0074
     7 (A) A             23 (A) A                 0.0071
     6 (A) A             27 (A) A                -0.0071
     5 (A) A             14 (A) A                 0.0067
     7 (A) A             10 (A) A                 0.0065
     6 (A) A             40 (A) A                -0.0065
     3 (A) A   6 (A) B    9 (A) A   28 (A) B      0.0063
     8 (A) A             10 (A) A                -0.0062
     7 (A) A             14 (A) A                -0.0061
    -----------------------------------------------------

  Density matrix analysis:
  ------------------------
  NOs
    Occupation of frontier NOs:
       0.9488   1.0222
    Number of electrons: 16.000000
    Number of unpaired electrons: n_u =  2.31704, n_u,nl =  2.03346
    NO participation ratio (PR_NO):  2.876099
  
  
  Mulliken Population Analysis
  Atom      Charge (e)              h+              e-           Del q
  --------------------------------------------------------------------
   1 H        0.067246        0.020834       -0.012149        0.008684
   2 C       -0.138898        0.490069       -0.507144       -0.017074
   3 H        0.061596        0.020092       -0.012601        0.007491
   4 C       -0.109906        0.490909       -0.505190       -0.014281
   5 H        0.065260        0.020342       -0.012980        0.007362
   6 H        0.054701        0.020365       -0.012546        0.007819
  --------------------------------------------------------------------
  Sum:        0.000000        1.062611       -1.062611       -0.000000
  
  Multipole moment analysis of the density matrix
    Molecular charge:                      0.000000
    Number of electrons:                   16.000000
      Center of electronic charge [Ang]: [ -1.590859,  -0.071453,   0.006674]
    Total nuclear charge:                  16.000000
      Center of nuclear charge [Ang]:    [ -1.590921,  -0.071606,   0.006423]
    Dipole moment [D]:                     0.023138
      Cartesian components [D]:          [ -0.004777,  -0.011798,  -0.019322]
    RMS size of the density [Ang]:         1.220234
      Cartesian components [Ang]:        [  0.817702,   0.781976,   0.457000]
  
  Exciton analysis of the difference density matrix
    <r_h> [Ang]:                  [ -1.595281,  -0.072019,   0.009265]
    <r_e> [Ang]:                  [ -1.595649,  -0.072836,   0.009913]
    |<r_e - r_h>| [Ang]:            0.001105
    Hole size [Ang]:                1.287523
      Cartesian components [Ang]: [  0.740578,   0.704641,   0.782778]
    Electron size [Ang]:            1.464181
      Cartesian components [Ang]: [  0.872431,   0.813871,   0.848707]

  Transition density matrix analysis:
  -----------------------------------
  
  CT numbers (Mulliken)
    omega =     0.9531
    <Phe> =    -0.1604
  
  Exciton analysis of the transition density matrix
    Trans. dipole moment [D]:             1.835947
      Cartesian components [D]:         [  1.358533,  -1.234539,  -0.031692]
    <r_h> [Ang]:                        [ -1.597512,  -0.071565,   0.008697]
    <r_e> [Ang]:                        [ -1.595272,  -0.072695,   0.010386]
    |<r_e - r_h>| [Ang]:                  0.003024
    Hole size [Ang]:                      1.214857
      Cartesian components [Ang]:       [  0.659813,   0.628057,   0.803784]
    Electron size [Ang]:                  1.486906
      Cartesian components [Ang]:       [  0.883770,   0.821653,   0.868750]
    RMS electron-hole separation [Ang]:   1.937489
      Cartesian components [Ang]:       [  1.132084,   1.050936,   1.169523]
    Covariance(r_h, r_e) [Ang^2]:        -0.033544
    Correlation coefficient:             -0.018570
    Center-of-mass size [Ang]:            0.951273
      Cartesian components [Ang]:       [  0.536469,   0.508594,   0.598709]

  Decomposition into state-averaged NTOs
    H- 0 -> L+ 0:  0.6694 ( 89.6%)
    H- 2 -> L+ 5:  0.0822 (  1.4%)
                   omega =  95.3%
  ----------------------------------------------------------------------------


  Excited state 2 (singlet, A)                                     [converged]
  ----------------------------------------------------------------------------
  Term symbol:  3 (1) A                                     R^2 =  5.50285e-13

  Total energy:                                            -77.9911192220 a.u.
  Excitation energy:                                               8.892830 eV

  Osc. strength:                                                      0.000857
  Trans. dip. moment [a.u.]:           [   0.008068,    0.004854,   -0.062022]
  <i|r^2|0> [a.u.]:                    [   0.020983,   -0.137598,    0.167249]
  Two-photon absorption cross-section (SoS) [a.u.]:                   5.066253
  Two-photon absorption matrix (SoS) [a.u.]:
                                       |   -0.038900   -0.057135    0.460251 |
                                       |   -0.057135   -0.159768    0.628894 |
                                       |    0.460251    0.628894    0.124887 |
  Two-photon absorption cross-section [a.u.]:                         0.655061
  Two-photon absorption matrix [a.u.]:
                                       |    0.081599    0.017655    0.054216 |
                                       |    0.017655   -0.078687   -0.267266 |
                                       |    0.054216   -0.267266   -0.033090 |

  Dip. moment [a.u.]:                  [   0.012369,   -0.102193,   -0.018885]
  Total dipole [Debye]:                                               0.266010
  <r^2> [a.u.]:                        [ 181.920019,   33.190056,   13.161171]
  Total <r^2> [a.u.]:                                               228.271246

  V1^2 = 0.9544, V2^2 = 0.0456

  Important amplitudes:
      occ i     occ j     vir a      vir b          v   
    -----------------------------------------------------
     7 (A) A              9 (A) A                -0.6597
     8 (A) A             11 (A) A                -0.1456
     8 (A) A             10 (A) A                 0.1143
     7 (A) A             20 (A) A                -0.0748
     5 (A) A   8 (A) B    9 (A) A    9 (A) B     -0.0304
     8 (A) A             16 (A) A                 0.0280
     6 (A) A              9 (A) A                -0.0189
     8 (A) A             21 (A) A                 0.0179
     5 (A) A             28 (A) A                 0.0141
     4 (A) A   7 (A) B    9 (A) A   19 (A) B      0.0132
     5 (A) A   7 (A) B    9 (A) A   16 (A) B      0.0128
     7 (A) A   8 (A) B   20 (A) A   17 (A) B      0.0104
     7 (A) A   8 (A) A    9 (A) A   28 (A) A      0.0093
     5 (A) A   8 (A) B    9 (A) A   20 (A) B     -0.0091
     5 (A) A   6 (A) A    9 (A) A   14 (A) A      0.0086
     5 (A) A   6 (A) A    9 (A) A   23 (A) A     -0.0086
     4 (A) A   6 (A) B    9 (A) A   16 (A) B     -0.0085
     8 (A) A   7 (A) B    9 (A) A   28 (A) B     -0.0084
     3 (A) A              9 (A) A                 0.0083
     4 (A) A   5 (A) A    9 (A) A   10 (A) A     -0.0081
     5 (A) A   6 (A) B    9 (A) A   19 (A) B     -0.0079
     3 (A) A   7 (A) B    9 (A) A   18 (A) B     -0.0078
     6 (A) A   7 (A) B    9 (A) A   18 (A) B     -0.0078
     5 (A) A   7 (A) A    9 (A) A   16 (A) A      0.0075
     5 (A) A   6 (A) B    9 (A) A   23 (A) B     -0.0074
     4 (A) A   8 (A) B    9 (A) A   25 (A) B     -0.0073
     7 (A) A   8 (A) B   17 (A) A   20 (A) B      0.0073
     4 (A) A   7 (A) B   19 (A) A    9 (A) B      0.0072
     7 (A) A   8 (A) B   19 (A) A   18 (A) B      0.0069
     5 (A) A   5 (A) B    9 (A) A   13 (A) B      0.0069
     5 (A) A   8 (A) A    9 (A) A   20 (A) A     -0.0066
     4 (A) A   5 (A) B    9 (A) A   18 (A) B      0.0066
     8 (A) A             24 (A) A                 0.0065
     7 (A) A   8 (A) B   17 (A) A    9 (A) B      0.0064
     7 (A) A   7 (A) B   20 (A) A   22 (A) B     -0.0063
     5 (A) A   6 (A) B    9 (A) A   14 (A) B      0.0061
     8 (A) A             18 (A) A                -0.0061
     5 (A) A   7 (A) B   11 (A) A   20 (A) B     -0.0060
     4 (A) A   7 (A) A    9 (A) A   19 (A) A      0.0060
     4 (A) A   5 (A) B   10 (A) A    9 (A) B      0.0060
    -----------------------------------------------------

  Density matrix analysis:
  ------------------------
  NOs
    Occupation of frontier NOs:
       0.9321   1.0778
    Number of electrons: 16.000000
    Number of unpaired electrons: n_u =  2.35732, n_u,nl =  2.08228
    NO participation ratio (PR_NO):  3.179515
  
  
  Mulliken Population Analysis
  Atom      Charge (e)              h+              e-           Del q
  --------------------------------------------------------------------
   1 H        0.123811        0.107467       -0.042218        0.065249
   2 C       -0.305150        0.283317       -0.466643       -0.183327
   3 H        0.186582        0.144767       -0.012291        0.132476
   4 C       -0.277396        0.268719       -0.450491       -0.181772
   5 H        0.153967        0.149626       -0.053558        0.096068
   6 H        0.118188        0.081583       -0.010278        0.071305
  --------------------------------------------------------------------
  Sum:        0.000000        1.035480       -1.035480        0.000000
  
  Multipole moment analysis of the density matrix
    Molecular charge:                      0.000000
    Number of electrons:                   16.000000
      Center of electronic charge [Ang]: [ -1.591330,  -0.068227,   0.007047]
    Total nuclear charge:                  16.000000
      Center of nuclear charge [Ang]:    [ -1.590921,  -0.071606,   0.006423]
    Dipole moment [D]:                     0.266010
      Cartesian components [D]:          [  0.031438,  -0.259748,  -0.048000]
    RMS size of the density [Ang]:         1.207526
      Cartesian components [Ang]:        [  0.807213,   0.759098,   0.479890]
  
  Exciton analysis of the difference density matrix
    <r_h> [Ang]:                  [ -1.538650,  -0.066400,   0.008756]
    <r_e> [Ang]:                  [ -1.546309,  -0.017385,   0.015188]
    |<r_e - r_h>| [Ang]:            0.050025
    Hole size [Ang]:                1.494003
      Cartesian components [Ang]: [  0.928817,   1.070401,   0.472847]
    Electron size [Ang]:            1.500704
      Cartesian components [Ang]: [  0.904634,   0.876625,   0.815645]

  Transition density matrix analysis:
  -----------------------------------
  
  CT numbers (Mulliken)
    omega =     0.9214
    <Phe> =    -0.0113
  
  Exciton analysis of the transition density matrix
    Trans. dipole moment [D]:             0.079725
      Cartesian components [D]:         [  0.010253,   0.006168,  -0.078822]
    <r_h> [Ang]:                        [ -1.532681,  -0.069041,   0.008085]
    <r_e> [Ang]:                        [ -1.550057,  -0.012617,   0.016174]
    |<r_e - r_h>| [Ang]:                  0.059590
    Hole size [Ang]:                      1.515717
      Cartesian components [Ang]:       [  0.937612,   1.097347,   0.462723]
    Electron size [Ang]:                  1.497751
      Cartesian components [Ang]:       [  0.899510,   0.864246,   0.828986]
    RMS electron-hole separation [Ang]:   2.113810
      Cartesian components [Ang]:       [  1.286063,   1.383643,   0.948560]
    Covariance(r_h, r_e) [Ang^2]:         0.038008
    Correlation coefficient:              0.016742
    Center-of-mass size [Ang]:            1.074322
      Cartesian components [Ang]:       [  0.656280,   0.705496,   0.475121]

  Decomposition into state-averaged NTOs
    H- 1 -> L+ 0:  0.6520 ( 85.0%)
    H- 0 -> L+ 2: -0.1478 (  4.4%)
    H- 0 -> L+ 1:  0.1087 (  2.4%)
                   omega =  92.1%
  ----------------------------------------------------------------------------


  Excited state 3 (singlet, A)                                     [converged]
  ----------------------------------------------------------------------------
  Term symbol:  4 (1) A                                     R^2 =  3.37194e-13

  Total energy:                                            -77.9828742764 a.u.
  Excitation energy:                                               9.117186 eV

  Osc. strength:                                                      0.021525
  Trans. dip. moment [a.u.]:           [   0.033789,    0.003681,   -0.308566]
  <i|r^2|0> [a.u.]:                    [   0.209038,    0.027319,   -0.017956]
  Two-photon absorption cross-section (SoS) [a.u.]:                   1.127313
  Two-photon absorption matrix (SoS) [a.u.]:
                                       |   -0.011225   -0.029842    0.308435 |
                                       |   -0.029842   -0.054842    0.206069 |
                                       |    0.308435    0.206069    0.008731 |
  Two-photon absorption cross-section [a.u.]:                         0.817025
  Two-photon absorption matrix [a.u.]:
                                       |   -0.024533   -0.018465    0.214949 |
                                       |   -0.018465   -0.070990    0.226190 |
                                       |    0.214949    0.226190    0.021472 |

  Dip. moment [a.u.]:                  [  -0.418595,   -0.345477,   -0.037211]
  Total dipole [Debye]:                                               1.382768
  <r^2> [a.u.]:                        [ 184.661164,   40.029496,   11.139978]
  Total <r^2> [a.u.]:                                               235.830638

  V1^2 = 0.9580, V2^2 = 0.0420

  Important amplitudes:
      occ i     occ j     vir a      vir b          v   
    -----------------------------------------------------
     8 (A) A             10 (A) A                 0.6758
     7 (A) A              9 (A) A                 0.1249
     8 (A) A             24 (A) A                 0.0481
     8 (A) A             11 (A) A                -0.0385
     8 (A) A             18 (A) A                -0.0324
     4 (A) A              9 (A) A                 0.0247
     8 (A) A   8 (A) B    9 (A) A   12 (A) B     -0.0215
     8 (A) A   8 (A) B   10 (A) A   17 (A) B      0.0167
     5 (A) A   8 (A) B   11 (A) A   10 (A) B     -0.0162
     8 (A) A             15 (A) A                 0.0140
     8 (A) A             13 (A) A                -0.0139
     7 (A) A   8 (A) B   13 (A) A   10 (A) B     -0.0139
     7 (A) A             20 (A) A                 0.0135
     8 (A) A             21 (A) A                 0.0127
     8 (A) A             16 (A) A                 0.0109
     4 (A) A   8 (A) B   12 (A) A   10 (A) B     -0.0109
     6 (A) A   8 (A) A   10 (A) A   15 (A) A      0.0107
     4 (A) A   8 (A) A   10 (A) A   12 (A) A      0.0104
     6 (A) A   8 (A) B   15 (A) A   10 (A) B     -0.0104
     7 (A) A   8 (A) B   22 (A) A   10 (A) B     -0.0103
     7 (A) A   8 (A) A   10 (A) A   22 (A) A      0.0095
     7 (A) A   8 (A) A   10 (A) A   13 (A) A      0.0095
     5 (A) A   8 (A) A   10 (A) A   11 (A) A      0.0094
     6 (A) A   8 (A) B   10 (A) A   10 (A) B      0.0091
     5 (A) A   8 (A) B   21 (A) A   10 (A) B      0.0089
     8 (A) A             22 (A) A                -0.0087
     6 (A) A   8 (A) A   10 (A) A   18 (A) A      0.0083
     7 (A) A   8 (A) A   12 (A) A   16 (A) A     -0.0080
     3 (A) A   4 (A) B   10 (A) A    9 (A) B     -0.0078
     5 (A) A   8 (A) A   10 (A) A   21 (A) A     -0.0076
     6 (A) A              9 (A) A                 0.0076
     4 (A) A   8 (A) B   19 (A) A   10 (A) B      0.0073
     8 (A) A   8 (A) B    9 (A) A   23 (A) B     -0.0071
     8 (A) A   8 (A) B   10 (A) A   28 (A) B      0.0070
     3 (A) A   8 (A) B   10 (A) A   10 (A) B      0.0069
     8 (A) A   8 (A) B    9 (A) A   19 (A) B      0.0069
     3 (A) A   8 (A) A   10 (A) A   24 (A) A     -0.0069
     7 (A) A   8 (A) B   16 (A) A   12 (A) B      0.0069
     5 (A) A   8 (A) B   10 (A) A   11 (A) B     -0.0068
     3 (A) A   8 (A) B   10 (A) A   18 (A) B     -0.0066
    -----------------------------------------------------

  Density matrix analysis:
  ------------------------
  NOs
    Occupation of frontier NOs:
       0.9523   1.0133
    Number of electrons: 16.000000
    Number of unpaired electrons: n_u =  2.32818, n_u,nl =  2.04308
    NO participation ratio (PR_NO):  2.863326
  
  
  Mulliken Population Analysis
  Atom      Charge (e)              h+              e-           Del q
  --------------------------------------------------------------------
   1 H       -0.204567        0.053883       -0.317011       -0.263129
   2 C        0.279266        0.515781       -0.114691        0.401089
   3 H       -0.090644        0.059805       -0.204554       -0.144750
   4 C        0.289968        0.508247       -0.122655        0.385592
   5 H       -0.194057        0.056462       -0.308417       -0.251956
   6 H       -0.079965        0.054637       -0.181485       -0.126848
  --------------------------------------------------------------------
  Sum:        0.000000        1.248814       -1.248814       -0.000000
  
  Multipole moment analysis of the density matrix
    Molecular charge:                      0.000000
    Number of electrons:                   16.000000
      Center of electronic charge [Ang]: [ -1.577076,  -0.060180,   0.007654]
    Total nuclear charge:                  16.000000
      Center of nuclear charge [Ang]:    [ -1.590921,  -0.071606,   0.006423]
    Dipole moment [D]:                     1.382767
      Cartesian components [D]:          [ -1.063961,  -0.878116,  -0.094580]
    RMS size of the density [Ang]:         1.279299
      Cartesian components [Ang]:        [  0.862977,   0.834845,   0.441487]
  
  Exciton analysis of the difference density matrix
    <r_h> [Ang]:                  [ -1.581629,  -0.071735,   0.008566]
    <r_e> [Ang]:                  [ -1.405361,   0.071997,   0.021664]
    |<r_e - r_h>| [Ang]:            0.227817
    Hole size [Ang]:                1.423612
      Cartesian components [Ang]: [  0.849315,   0.828641,   0.786568]
    Electron size [Ang]:            2.069006
      Cartesian components [Ang]: [  1.358431,   1.379860,   0.728996]

  Transition density matrix analysis:
  -----------------------------------
  
  CT numbers (Mulliken)
    omega =     0.9249
    <Phe> =    -0.0120
  
  Exciton analysis of the transition density matrix
    Trans. dipole moment [D]:             0.394520
      Cartesian components [D]:         [  0.042942,   0.004678,  -0.392148]
    <r_h> [Ang]:                        [ -1.599077,  -0.081426,   0.008488]
    <r_e> [Ang]:                        [ -1.351406,   0.115805,   0.026111]
    |<r_e - r_h>| [Ang]:                  0.317099
    Hole size [Ang]:                      1.225085
      Cartesian components [Ang]:       [  0.658684,   0.637998,   0.812358]
    Electron size [Ang]:                  2.251307
      Cartesian components [Ang]:       [  1.472175,   1.505515,   0.796561]
    RMS electron-hole separation [Ang]:   2.571348
      Cartesian components [Ang]:       [  1.623197,   1.638866,   1.136300]
    Covariance(r_h, r_e) [Ang^2]:         0.028968
    Correlation coefficient:              0.010503
    Center-of-mass size [Ang]:            1.287163
      Cartesian components [Ang]:       [  0.810694,   0.821622,   0.569649]

  Decomposition into state-averaged NTOs
    H- 0 -> L+ 1:  0.6653 ( 88.5%)
    H- 1 -> L+ 0: -0.1235 (  3.1%)
                   omega =  92.5%
  ----------------------------------------------------------------------------


  Excited state 4 (singlet, A)                                     [converged]
  ----------------------------------------------------------------------------
  Term symbol:  5 (1) A                                     R^2 =  4.51592e-13

  Total energy:                                            -77.9598048274 a.u.
  Excitation energy:                                               9.744938 eV

  Osc. strength:                                                      0.001508
  Trans. dip. moment [a.u.]:           [  -0.003562,   -0.006517,    0.079128]
  <i|r^2|0> [a.u.]:                    [  -0.035290,   -0.027160,    0.035475]
  Two-photon absorption cross-section (SoS) [a.u.]:                 128.760889
  Two-photon absorption matrix (SoS) [a.u.]:
                                       |   -0.151251   -0.295784    2.567173 |
                                       |   -0.295784   -0.561538    3.002704 |
                                       |    2.567173    3.002704    0.680674 |
  Two-photon absorption cross-section [a.u.]:                        79.168381
  Two-photon absorption matrix [a.u.]:
                                       |   -0.030092   -0.233935    1.898077 |
                                       |   -0.233935   -0.524223    2.440936 |
                                       |    1.898077    2.440936    0.533842 |

  Dip. moment [a.u.]:                  [   0.381452,    0.586203,    0.066621]
  Total dipole [Debye]:                                               1.785706
  <r^2> [a.u.]:                        [ 188.916805,   41.589538,   10.812208]
  Total <r^2> [a.u.]:                                               241.318551

  V1^2 = 0.9631, V2^2 = 0.0369

  Important amplitudes:
      occ i     occ j     vir a      vir b          v   
    -----------------------------------------------------
     8 (A) A             11 (A) A                -0.6685
     7 (A) A              9 (A) A                 0.1382
     8 (A) A             21 (A) A                 0.0759
     8 (A) A             16 (A) A                 0.0655
     8 (A) A             10 (A) A                -0.0646
     8 (A) A             12 (A) A                -0.0178
     8 (A) A   8 (A) B    9 (A) A   13 (A) B      0.0164
     5 (A) A   8 (A) B   11 (A) A   11 (A) B      0.0159
     6 (A) A              9 (A) A                 0.0140
     8 (A) A   8 (A) B   11 (A) A   17 (A) B     -0.0138
     7 (A) A   8 (A) B   13 (A) A   11 (A) B      0.0127
     7 (A) A             20 (A) A                 0.0125
     8 (A) A             24 (A) A                -0.0116
     8 (A) A             19 (A) A                -0.0113
     4 (A) A   8 (A) B   12 (A) A   11 (A) B      0.0109
     8 (A) A             13 (A) A                 0.0108
     5 (A) A   8 (A) A   11 (A) A   21 (A) A      0.0107
     8 (A) A             14 (A) A                -0.0106
     8 (A) A   8 (A) B    9 (A) A   22 (A) B      0.0105
     7 (A) A   8 (A) A   11 (A) A   22 (A) A     -0.0093
     6 (A) A   8 (A) B   15 (A) A   11 (A) B      0.0089
     7 (A) A   8 (A) B   22 (A) A   11 (A) B      0.0087
     6 (A) A   8 (A) B   10 (A) A   11 (A) B     -0.0086
     3 (A) A   4 (A) B   11 (A) A    9 (A) B      0.0083
     6 (A) A   8 (A) A   11 (A) A   15 (A) A     -0.0080
     3 (A) A   8 (A) B   11 (A) A   18 (A) B      0.0079
     7 (A) A   8 (A) A   13 (A) A   16 (A) A      0.0076
     7 (A) A   8 (A) A   11 (A) A   13 (A) A     -0.0074
     4 (A) A   8 (A) B   19 (A) A   11 (A) B     -0.0069
     5 (A) A   8 (A) B   21 (A) A   11 (A) B     -0.0069
     4 (A) A   8 (A) A   11 (A) A   12 (A) A     -0.0062
     5 (A) A   8 (A) B    9 (A) A    9 (A) B      0.0059
     3 (A) A   6 (A) B   11 (A) A   28 (A) B      0.0059
     6 (A) A   8 (A) A   11 (A) A   18 (A) A     -0.0057
     3 (A) A   8 (A) B   11 (A) A   30 (A) B      0.0056
     6 (A) A   8 (A) B   18 (A) A   11 (A) B      0.0056
     7 (A) A   8 (A) B   16 (A) A   13 (A) B     -0.0055
     3 (A) A   8 (A) A   11 (A) A   18 (A) A      0.0054
     3 (A) A   5 (A) B   11 (A) A   25 (A) B      0.0054
     8 (A) A   8 (A) B   20 (A) A   22 (A) B      0.0053
    -----------------------------------------------------

  Density matrix analysis:
  ------------------------
  NOs
    Occupation of frontier NOs:
       0.9477   1.0207
    Number of electrons: 16.000000
    Number of unpaired electrons: n_u =  2.32185, n_u,nl =  2.04534
    NO participation ratio (PR_NO):  2.881779
  
  
  Mulliken Population Analysis
  Atom      Charge (e)              h+              e-           Del q
  --------------------------------------------------------------------
   1 H       -0.007762        0.042907       -0.109231       -0.066324
   2 C        0.251701        0.508320       -0.134795        0.373525
   3 H       -0.270737        0.047821       -0.372663       -0.324842
   4 C        0.274245        0.495075       -0.125205        0.369870
   5 H       -0.062490        0.046718       -0.167107       -0.120388
   6 H       -0.184958        0.044597       -0.276438       -0.231841
  --------------------------------------------------------------------
  Sum:        0.000000        1.185439       -1.185439       -0.000000
  
  Multipole moment analysis of the density matrix
    Molecular charge:                      0.000000
    Number of electrons:                   16.000000
      Center of electronic charge [Ang]: [ -1.603537,  -0.090994,   0.004220]
    Total nuclear charge:                  16.000000
      Center of nuclear charge [Ang]:    [ -1.590921,  -0.071606,   0.006423]
    Dipole moment [D]:                     1.785706
      Cartesian components [D]:          [  0.969554,   1.489979,   0.169333]
    RMS size of the density [Ang]:         1.282137
      Cartesian components [Ang]:        [  0.857351,   0.848299,   0.434989]
  
  Exciton analysis of the difference density matrix
    <r_h> [Ang]:                  [ -1.600678,  -0.091323,   0.006610]
    <r_e> [Ang]:                  [ -1.772126,  -0.355806,  -0.025942]
    |<r_e - r_h>| [Ang]:            0.316868
    Hole size [Ang]:                1.394629
      Cartesian components [Ang]: [  0.817767,   0.806893,   0.790678]
    Electron size [Ang]:            2.089171
      Cartesian components [Ang]: [  1.313467,   1.477778,   0.674992]

  Transition density matrix analysis:
  -----------------------------------
  
  CT numbers (Mulliken)
    omega =     0.9291
    <Phe> =    -0.0137
  
  Exciton analysis of the transition density matrix
    Trans. dipole moment [D]:             0.101004
      Cartesian components [D]:         [ -0.004526,  -0.008282,   0.100562]
    <r_h> [Ang]:                        [ -1.595081,  -0.072107,   0.009362]
    <r_e> [Ang]:                        [ -1.806014,  -0.413074,  -0.032398]
    |<r_e - r_h>| [Ang]:                  0.403107
    Hole size [Ang]:                      1.225806
      Cartesian components [Ang]:       [  0.659215,   0.642599,   0.809383]
    Electron size [Ang]:                  2.221892
      Cartesian components [Ang]:       [  1.391532,   1.576396,   0.717926]
    RMS electron-hole separation [Ang]:   2.558118
      Cartesian components [Ang]:       [  1.545378,   1.727638,   1.082147]
    Covariance(r_h, r_e) [Ang^2]:         0.028966
    Correlation coefficient:              0.010635
    Center-of-mass size [Ang]:            1.274494
      Cartesian components [Ang]:       [  0.774298,   0.855489,   0.541235]

  Decomposition into state-averaged NTOs
    H- 0 -> L+ 2: -0.6510 ( 84.8%)
    H- 1 -> L+ 0: -0.1363 (  3.7%)
    H- 0 -> L+ 4:  0.1116 (  2.5%)
    H- 0 -> L+ 1: -0.0819 (  1.3%)
                   omega =  92.9%
  ----------------------------------------------------------------------------


  Excited state 5 (singlet, A)                                     [converged]
  ----------------------------------------------------------------------------
  Term symbol:  6 (1) A                                     R^2 =  2.36868e-13

  Total energy:                                            -77.9443485692 a.u.
  Excitation energy:                                              10.165524 eV

  Osc. strength:                                                      0.000077
  Trans. dip. moment [a.u.]:           [   0.003795,   -0.001522,   -0.017060]
  <i|r^2|0> [a.u.]:                    [   0.105517,   -0.093200,    0.001955]
  Two-photon absorption cross-section (SoS) [a.u.]:                 237.372840
[...]
    16   -1.736880702059e-03
    17   -1.744107154422e-03
    18    3.735161703378e-04
    19   -2.777835561736e-03
    20    4.650949630943e-03
    21    8.453398335800e-01
    22   -6.665721884844e-04
    23    1.233914394842e-02
    24    6.923922265733e-04
    25    6.751029864389e-02
    26   -4.861047184485e-02
    27   -1.362128268332e+00
    28    8.021899383162e-02
    29   -1.138227274390e-01
    30    8.576274649622e-04
    31    3.264522051962e-01
    32   -3.874733522056e-01
    33    7.926768802948e-03
    34    1.470650134274e-02
    35   -2.104421227871e-03
    36   -1.239031231060e-03
    37   -3.549039397220e-03
    38   -2.966103162933e-03
    39    1.798827184846e-02
    40    9.529533807719e-01
    41    3.549774778139e-05
    42   -1.303765143399e-02
    43   -6.710427882460e-04
    44    5.965282853032e-03
    45    8.444568373755e-01
    46    1.394065173128e-02
    47   -1.097755071957e-03
    48    8.816923996468e-04
Sym=X
Ene= 0.231019
Spin=Alpha
Occup=0
     1   -2.709714422370e-02
     2   -9.344603021809e-01
     3    8.658711325564e-03
     4    2.785473536374e-03
     5    7.026842149720e-04
     6    1.474350452265e-02
     7   -8.552289124948e-03
     8   -3.425032280469e-01
     9    1.331394273054e-01
    10    1.834156554735e-01
    11    1.923288087668e-02
    12    4.631579843204e-01
    13    5.936428840792e-01
    14    6.305306085215e-02
    15    5.395313084910e-03
    16   -3.531247713482e-04
    17   -4.919351162960e-04
    18   -3.339437710367e-04
    19   -2.423719346817e-03
    20    3.148982561365e-02
    21    1.341890973761e+00
    22    3.005077801465e-03
    23    1.678201777959e-02
    24    1.245345687821e-03
    25   -3.215085942077e-03
    26    1.310159180397e-03
    27    1.215742846259e-02
    28    1.450408885070e-01
    29    1.643948203021e-01
    30    1.793980575195e-02
    31    5.703673181250e-01
    32    5.307473938370e-01
    33    6.362805306430e-02
    34   -7.227339377300e-04
    35   -2.442918599470e-04
    36   -4.732981617364e-04
    37    2.233742137884e-03
    38    2.156698230393e-04
    39   -3.781687226740e-02
    40   -1.174752563731e+00
    41    2.335060378885e-03
    42    1.296304456825e-02
    43    8.908275213131e-04
    44    2.203436516044e-02
    45    1.181153725430e+00
    46    1.295937069394e-02
    47    4.124181362202e-03
    48    9.664867306661e-04
Sym=X
Ene= 0.236387
Spin=Alpha
Occup=0
     1   -2.042945242548e-02
     2   -1.144385715554e+00
     3    1.566386397978e-02
     4    1.004811320790e-02
     5    1.426819476222e-03
     6   -8.407510566261e-02
     7    7.966353067243e-02
     8    1.466957129894e+00
     9    7.531469704382e-02
    10   -3.428571478996e-02
    11    5.780090556165e-04
    12    2.867053288523e-01
    13   -1.689697064850e-01
    14   -2.629037462279e-03
    15   -1.977191264153e-02
    16    2.272377538881e-03
    17    3.183259160145e-03
    18   -3.684025073822e-04
    19    1.181410727807e-02
    20   -1.997198615436e-02
    21   -9.101108252496e-01
    22   -7.998305957358e-03
    23   -1.420030504891e-02
    24   -1.387524995689e-03
    25    8.896172454217e-02
    26   -8.531794715801e-02
    27   -1.595935073434e+00
    28    6.891389209467e-02
    29   -4.531882333569e-02
    30    4.390166375597e-03
    31    3.164836405301e-01
    32   -1.746038724917e-01
    33    1.892783488759e-02
    34    2.194328898814e-02
    35   -3.120676475889e-03
    36   -3.035286887736e-03
    37   -1.179845421489e-03
    38   -1.290037930224e-02
    39    1.431390411962e-02
    40    9.334574905931e-01
    41   -8.382047424328e-03
    42   -1.405579219853e-02
    43   -1.134687130662e-03
    44    2.153431191817e-02
    45    1.283581273327e+00
    46    1.949524954659e-02
    47    9.229415523247e-03
    48    1.937862364599e-03
Sym=X
Ene= 0.302457
Spin=Alpha
Occup=0
     1   -1.979187623827e-02
     2    1.654822857806e+00
     3   -2.346913984341e-02
     4   -5.067321457361e-04
     5   -9.906029247386e-04
     6    6.483802823336e-04
     7    6.437513569342e-04
     8   -5.206080676292e-02
     9   -1.371693888551e-01
    10   -1.435772788176e-01
    11   -1.639228392545e-02
    12   -1.079021775873e+00
    13   -1.197772903210e+00
    14   -1.347294828063e-01
    15    3.609466045089e-04
    16   -1.733309531904e-03
    17    2.148628132384e-03
    18   -3.232574252234e-02
    19   -4.109812291507e-03
    20    1.525123460436e-02
    21   -1.620159665489e+00
    22    2.791954228188e-03
    23   -2.286022895383e-02
    24   -1.586297268448e-03
    25   -6.394549300175e-04
    26    1.609549484247e-03
    27   -1.124521218885e-01
    28    1.340718173689e-01
    29    1.422281825851e-01
    30    1.621030266619e-02
    31    1.136632257715e+00
    32    1.182335570753e+00
    33    1.368722924667e-01
    34    1.654762685459e-03
    35   -2.898914605484e-03
    36    1.251600444352e-03
    37   -3.462042685097e-02
    38   -5.525397156320e-03
    39    1.410387624521e-02
    40   -1.598500184395e+00
    41   -2.786136485184e-03
    42    2.289047019874e-02
    43    1.343127609345e-03
    44   -3.256683059032e-02
    45    1.743015731020e+00
    46    2.369275503539e-02
    47    1.025142463488e-03
    48    1.268489684803e-03
Sym=X
Ene= 0.462047
Spin=Alpha
Occup=0
     1    8.013873299999e-02
     2    7.273217222787e-01
     3    1.224804032416e-02
     4    1.260524232609e-02
     5    1.482696586655e-03
     6   -6.347904682049e-02
     7   -1.255728392702e-02
     8    3.639269400611e+00
     9   -1.122215282860e-01
    10    1.029958181792e-01
    11   -9.393369123738e-05
    12   -2.486648962046e+00
    13    2.204500586148e+00
    14    5.406441987656e-02
    15   -5.050950997702e-02
    16    2.806524886988e-03
    17    4.797265236981e-03
    18   -5.331639179221e-04
    19   -2.315539543290e-02
    20    1.229499581671e-01
    21    6.734048916273e-01
    22   -5.956340163602e-03
    23   -1.629990531810e-02
    24   -1.400252276359e-03
    25    6.206433378057e-02
    26    1.975371766879e-02
    27   -3.605475891690e+00
    28   -9.821662577522e-02
    29    9.597031039625e-02
    30   -2.838378543736e-03
    31   -2.563125680849e+00
    32    2.178288841748e+00
    33    3.562828237909e-02
    34    5.462966013237e-02
    35   -3.137387219566e-03
    36   -5.885519818943e-03
    37    2.310578252001e-03
    38    1.709765369277e-02
    39   -1.585370286979e-01
    40   -5.533288535140e-01
    41   -6.089305843103e-03
    42   -1.769107688843e-02
    43   -1.633840843471e-03
    44   -9.139327461454e-02
    45   -8.311547983304e-01
    46    1.401480390988e-02
    47    1.479660592491e-02
    48    1.583314210823e-03
Sym=X
Ene= 0.580264
Spin=Alpha
Occup=0
     1    1.932381464251e-01
     2    1.380535128206e-01
     3   -2.875646153138e-02
     4    2.858554943726e-02
     5    6.043390729511e-04
     6   -9.831678920759e-03
     7   -1.707554602283e-01
     8   -2.606981920085e-01
     9    2.961405906009e-01
    10   -2.872559133043e-01
    11   -7.582080633993e-03
    12   -8.361062413815e-01
    13    8.131586058508e-01
    14    1.509494149543e-02
    15   -1.496400410063e-03
    16    3.115574179975e-03
    17    4.507144338042e-03
    18   -2.222824401111e-02
    19    5.780896560563e-02
    20    2.675437501828e-01
    21    3.899195336401e-02
    22   -3.004621303443e-02
    23    1.766638576658e-02
    24   -2.056696435303e-04
    25   -2.678047603264e-03
    26   -1.662131464108e-01
    27   -5.757710048818e-01
    28   -3.080367686488e-01
    29    2.993073087134e-01
    30    7.368307616435e-03
    31    6.685834017972e-01
    32   -5.958495612249e-01
    33   -3.442795662377e-03
    34   -1.679970280971e-03
    35    3.530068039118e-03
    36    4.000338169835e-03
    37   -1.317421178737e-02
    38    5.911964983420e-02
    39    2.476358735243e-01
    40   -6.575243363232e-02
    41    3.051880132666e-02
    42   -2.090009987869e-02
    43    2.816321072445e-04
    44    2.393681386636e-01
    45    8.501735736312e-02
    46    1.830260015651e-02
    47   -2.026585519425e-02
    48   -2.523138791278e-04
Sym=X
Ene= 0.608971
Spin=Alpha
Occup=0
     1    5.817037808671e-01
     2   -2.483220885235e-01
     3    6.405857106549e-02
     4   -3.035562196711e-02
     5    8.984635346713e-04
     6    2.216284272019e-03
     7   -1.114261160998e-02
     8    2.341308609690e-01
     9    4.995050446290e-02
    10    1.858460662539e-02
    11    2.927192295147e-03
    12   -4.508556513443e-01
    13   -7.447688426597e-02
    14   -2.437839734671e-02
    15   -1.376462110218e-02
    16    9.298513577919e-03
    17   -8.604578278620e-03
    18    1.531910088096e-01
    19    1.296474852366e-02
    20   -4.767643103369e-01
    21    3.161966106729e-01
    22   -4.475156179965e-02
    23    5.395702299444e-02
    24    1.684807166061e-03
    25   -3.111304802048e-03
    26   -2.404048795877e-02
    27   -1.414393955576e-01
    28    4.372023318144e-02
    29    3.767548992509e-02
    30    4.128225487924e-03
    31   -4.738255987278e-01
    32   -1.223026933437e-01
    33   -3.155014804726e-02
    34    3.594227739185e-03
    35   -9.046674839170e-03
    36    7.618578419174e-03
    37   -1.439538574046e-01
    38    6.528774376997e-04
    39    4.998586367194e-01
    40   -2.999008310792e-01
    41   -4.400785999294e-02
    42    5.331391038116e-02
    43    9.410931310555e-04
    44   -5.092446776430e-01
    45    9.041186457023e-02
    46    6.138585096631e-02
    47   -3.302717496887e-02
    48    1.170133748278e-03
Sym=X
Ene= 0.688695
Spin=Alpha
Occup=0
     1   -7.829913407561e-03
     2   -4.506744012707e-03
     3    2.981592987994e-04
     4    2.791823928222e-04
     5   -1.759009537700e-02
     6   -4.069500314815e-04
     7   -1.685971068676e-03
     8   -7.058809305250e-03
     9    3.311964018729e-02
    10    4.536188371663e-02
    11   -6.706529030494e-01
    12   -1.386399547351e-02
    13   -5.572128978363e-02
    14    6.103096185313e-01
    15   -1.320456667602e-03
    16    8.540697847152e-02
    17   -7.460126831635e-02
    18   -9.186657048470e-03
    19   -4.466325125486e-03
    20   -7.349384813233e-03
    21   -4.858524011156e-03
    22    1.741095141678e-03
    23    1.787969116752e-03
    24   -1.774382363558e-02
    25    4.810405641155e-05
    26   -6.833447847500e-03
    27    1.229836430818e-02
    28    3.217315186682e-02
    29    4.646869025876e-02
    30   -6.699394492513e-01
    31   -1.353788521674e-02
    32   -5.581255801205e-02
    33    6.140263612710e-01
    34    4.013312250439e-03
    35   -8.679602661343e-02
    36    7.412598783619e-02
    37    9.060247834394e-03
    38    3.403426087960e-03
    39    8.272561223028e-04
    40    9.199647661943e-03
    41    1.049773645134e-03
    42   -5.365966454666e-04
    43   -1.392138890593e-02
    44    1.394425218501e-03
    45    1.115090912168e-02
    46    3.075335972643e-03
    47    1.660091978778e-03
    48   -2.641450165815e-02
Sym=X
Ene= 0.704888
Spin=Alpha
Occup=0
     1   -4.806439046947e-01
     2    1.989336851125e-01
     3   -8.191918679300e-02
     4   -4.755370856480e-02
     5   -6.417581641345e-03
     6   -4.631694107514e-02
     7   -2.878767543860e-01
     8    3.611485412148e-01
     9    2.100112638576e-01
    10   -1.678628614705e-01
    11    3.441474746293e-03
    12   -5.788902829886e-02
    13   -4.118104863659e-02
    14   -1.676976505329e-03
    15    1.975732284831e-01
    16   -2.080012118396e-02
    17   -2.811188835415e-02
    18    5.647837075166e-03
    19   -7.243492775846e-02
    20   -5.284223569589e-01
    21    1.471792945621e-01
    22    3.698034513820e-02
    23    8.149941243594e-02
    24    8.173612398126e-03
    25   -4.550858224597e-02
    26   -3.127003711880e-01
    27    5.673905564243e-01
    28   -1.843618020591e-01
    29    2.020906166594e-01
    30    1.039883361082e-02
    31    6.733753532681e-02
    32   -1.379601111293e-01
    33   -2.320275900595e-02
    34    1.831948673403e-01
    35   -2.048275300484e-02
    36   -2.628390888055e-02
    37    2.875550194842e-03
    38   -7.963479455281e-02
    39   -4.809072996460e-01
    40    2.241910060622e-01
    41   -4.341524663063e-02
    42   -7.389113733754e-02
    43   -7.654067443825e-03
    44   -4.587734149273e-01
    45    8.068954105847e-02
    46    7.834014490421e-02
    47    4.165082373214e-02
    48    6.366025159015e-03
Sym=X
Ene= 0.774787
Spin=Alpha
Occup=0
     1    5.162936942516e-01
     2   -4.693638313837e-01
     3    9.629557556750e-02
     4    2.655166112709e-02
     5    6.298829720459e-03
     6    8.655254763853e-02
     7   -2.497119702823e-01
     8   -5.469174058871e-01
     9    1.211347249492e-01
    10   -9.291672085441e-02
    11   -9.767357001777e-03
    12    3.093932048139e-01
    13   -2.440533925757e-01
    14    1.129491931320e-02
    15   -1.934981821517e-01
    16    1.555713506304e-02
    17    2.454165387423e-02
    18   -1.517002939216e-02
    19    2.949005242046e-03
    20    5.478164423809e-01
    21   -4.978618220228e-01
    22   -1.952055018033e-02
    23   -1.108120868599e-01
    24   -8.683941746562e-03
    25   -8.991710058970e-02
    26    2.036606736944e-01
    27    5.895523847243e-01
    28    1.485583400149e-01
    29   -2.661550788729e-02
    30    8.969602432056e-03
    31    2.067334089192e-01
    32   -4.116303736897e-01
    33   -3.345047263904e-02
    34    2.078350243680e-01
    35   -1.897092010114e-02
    36   -2.469002335150e-02
    37    1.968092912609e-02
    38   -1.128442392304e-02
    39   -5.946723177585e-01
    40    6.419383593894e-01
    41   -2.191745349447e-02
    42   -1.262069037201e-01
    43   -9.569539277296e-03
    44   -4.864163987848e-01
    45    3.169022001294e-01
    46    9.665252387710e-02
    47    2.589594058118e-02
    48    6.315089375609e-03
Sym=X
Ene= 0.807062
Spin=Alpha
Occup=0
     1    3.773789913833e-03
     2   -3.945608545686e-03
     3   -7.190302582576e-04
     4   -2.019700865584e-03
     5    2.727233634744e-02
     6    9.214246787866e-04
     7   -5.974319076832e-03
     8    3.603420386916e-03
     9   -3.234771291645e-02
    10   -5.651334212404e-02
    11    7.644530218787e-01
    12    5.212766386308e-02
    13    7.973962378749e-02
    14   -1.122393333133e+00
    15   -4.348570085278e-03
    16    6.765046877466e-02
    17   -5.821329569061e-02
    18   -7.372886450620e-03
    19   -3.406512004370e-03
    20    3.961351937291e-03
    21   -4.673414238748e-03
    22   -1.459839756930e-03
    23   -2.866996836843e-03
    24    3.154111792427e-02
    25   -5.402909139548e-04
    26   -2.638741520233e-03
    27    1.227127150109e-03
    28    4.008050519766e-02
    29    5.229371293993e-02
    30   -7.624832849102e-01
    31   -5.428518235427e-02
    32   -8.365308317786e-02
    33    1.123188335896e+00
    34    5.939893280272e-04
    35    6.741681025264e-02
    36   -5.923722490903e-02
    37   -6.851895554087e-03
    38   -1.884739924862e-03
    39   -4.131057964896e-03
    40    9.632425461367e-03
    41    2.078883994799e-03
    42   -1.004719808511e-03
    43   -2.983828017030e-02
    44   -3.411837273572e-03
    45    3.439438997805e-03
    46    4.088690648572e-03
    47    1.791082845408e-03
    48   -3.681556167390e-02
Sym=X
Ene= 0.858689
Spin=Alpha
Occup=0
     1    4.098577835471e-02
     2   -1.095561817797e+00
     3    1.565998046450e-01
     4    5.409354417151e-02
     5    1.197853546370e-02
     6    5.889551453532e-03
     7   -6.583500132284e-02
     8    8.139252709880e-02
     9   -3.900575740236e-01
    10   -4.917322135012e-01
    11   -5.193901220223e-02
    12    9.008219852359e-01
    13    1.085746861771e+00
    14    1.177470372989e-01
    15   -1.159056259251e-02
    16    1.325207125217e-02
    17   -1.383017750217e-02
    18    2.360831253479e-01
    19    3.864987019615e-03
    20   -1.681936828986e-03
    21    1.097260244028e+00
    22    4.535600358941e-02
    23    1.505373850471e-01
    24    1.198700971706e-02
    25   -1.096742337025e-02
    26   -3.721594016262e-02
    27   -3.340722552846e-03
    28   -3.423994878174e-01
    29   -4.492591664426e-01
    30   -4.777943924094e-02
    31    8.264840428979e-01
    32    9.979839985420e-01
    33    1.086726519456e-01
    34    3.633780766616e-02
    35   -1.493843030652e-02
    36    9.834614063130e-03
    37   -2.230915668008e-01
    38   -2.614026056508e-03
    39   -3.205293798169e-02
    40   -1.042951345137e+00
    41    5.458341642101e-02
    42    1.343796363778e-01
    43    1.044227381700e-02
    44   -3.391577630817e-02
    45    1.029147019178e+00
    46    1.445006651637e-01
    47    5.527895003909e-02
    48    1.199410157166e-02
Sym=X
Ene= 0.926054
Spin=Alpha
Occup=0
     1    1.272451966980e-01
     2   -1.210942150007e+00
     3    1.663181285677e-01
     4   -1.178466953166e-03
     5    6.750085871414e-03
     6   -6.652729179661e-03
     7    9.340288478758e-02
     8   -2.657823542433e-01
     9   -5.077687963911e-01
    10   -4.325849233583e-01
    11   -5.451127220022e-02
    12    1.470056582114e+00
    13    1.243140733895e+00
    14    1.556145126711e-01
    15    1.828814561618e-02
    16    4.967268933796e-03
    17   -9.749267934660e-03
    18    1.082647692247e-01
    19    3.527857244926e-02
    20   -1.619111528626e-01
    21    1.121702131265e+00
    22   -2.675289768477e-02
    23    1.786095682193e-01
    24    1.213436903133e-02
    25    1.228785602434e-02
    26    1.487952251317e-01
    27   -6.875543024200e-02
    28    3.647967705698e-01
    29    5.983408187466e-01
    30    5.851595806672e-02
    31   -1.114460333051e+00
    32   -1.683702241163e+00
    33   -1.685682732662e-01
    34   -3.186719819833e-02
    35    6.286163774248e-03
    36   -6.298345246252e-03
    37    1.341323848786e-01
    38   -5.341823055057e-02
    39   -1.329420573820e-01
    40    1.382706421625e+00
    41   -7.653839443517e-03
    42   -1.989618916839e-01
    43   -1.318502498842e-02
    44    1.444210667978e-01
    45   -1.072303929083e+00
    46   -1.661970751576e-01
    47    2.373378333308e-02
    48   -6.145929117937e-03
Sym=X
Ene= 0.971551
Spin=Alpha
Occup=0
     1   -8.376667183177e-02
     2    8.091250318415e-01
     3   -8.030164050890e-02
     4   -9.896078455216e-02
     5   -1.172813976862e-02
     6    2.691087987405e-02
     7    3.380172812753e-01
     8    3.566699269840e-01
     9    4.524523951200e-01
    10   -5.080696369443e-01
    11   -1.623144727446e-02
    12   -1.335075433268e+00
    13    1.602677523214e+00
    14    5.637121043008e-02
    15   -5.742003466147e-02
    16   -1.739353602613e-02
    17   -8.373125664942e-03
    18    3.128967623661e-02
    19   -2.972961930681e-01
    20   -5.373541998395e-02
    21    1.080416344254e+00
    22    9.299605013173e-02
    23    1.206007340912e-01
    24    1.259293812642e-02
    25   -2.412251888047e-02
    26   -1.595392165836e-01
    27   -6.559755146251e-01
    28    5.520119792025e-01
    29   -3.362169959204e-01
    30    7.106776897048e-03
    31   -1.769586228745e+00
    32    9.683164786400e-01
    33   -2.640548282100e-02
    34    5.191580073032e-02
    35    1.840082901787e-02
    36    4.158928004089e-03
    37    1.230779160780e-02
    38    2.851818732507e-01
    39    4.505397105741e-02
    40   -5.200645184062e-01
    41    8.879109795579e-02
    42    4.081677269026e-02
    43    5.029135133741e-03
    44    6.617167555115e-02
    45   -1.150186239962e+00
    46   -1.164261715010e-01
    47   -9.141353944539e-02
    48   -1.348360108947e-02
[5D]

======= END OF MOLDEN-FORMATTED INPUT FILE =======


        *************************************************************
        *                                                           *
        *  Thank you very much for using Q-Chem.  Have a nice day.  *
        *                                                           *
        *************************************************************


