                  Welcome to Q-Chem
     A Quantum Leap Into The Future Of Chemistry


 Q-Chem 5.4 (devel), Q-Chem, Inc., Pleasanton, CA (2021)

 E. Epifanovsky,  A. T. B. Gilbert,  Xintian Feng,  Joonho Lee,  Yuezhi Mao,  
 N. Mardirossian,  P. Pokhilko,  A. White,  M. Wormit,  M. P. Coons,  
 A. L. Dempwolff,  Zhengting Gan,  D. Hait,  P. R. Horn,  L. D. Jacobson,  
 I. Kaliman,  J. Kussmann,  A. W. Lange,  Ka Un Lao,  D. S. Levine,  Jie Liu,  
 S. C. McKenzie,  A. F. Morrison,  K. Nanda,  F. Plasser,  D. R. Rehn,  
 M. L. Vidal,  Zhi-Qiang You,  Ying Zhu,  B. Alam,  B. Albrecht,  
 A. Aldossary,  E. Alguire,  J. H. Andersen,  D. Barton,  K. Begam,  A. Behn,  
 Y. A. Bernard,  E. J. Berquist,  H. Burton,  A. Carreras,  K. Carter-Fenk,  
 R. Chakraborty,  A. D. Chien,  K. D. Closser,  V. Cofer-Shabica,  
 S. Dasgupta,  Jia Deng,  M. de Wergifosse,  M. Diedenhofen,  Hainam Do,  
 S. Ehlert,  Po-Tung Fang,  S. Fatehi,  Qingguo Feng,  T. Friedhoff,  
 J. Gayvert,  Qinghui Ge,  G. Gidofalvi,  M. Goldey,  J. Gomes,  
 C. Gonzalez-Espinoza,  S. Gulania,  A. Gunina,  M. W. D. Hanson-Heine,  
 P. H. P. Harbach,  A. W. Hauser,  M. F. Herbst,  M. Hernandez Vera,  
 M. Hodecker,  Z. C. Holden,  S. Houck,  Xunkun Huang,  Kerwin Hui,  
 B. C. Huynh,  M. Ivanov,  Hyunjun Ji,  Hanjie Jiang,  B. Kaduk,  S. Kaehler,  
 K. Khistyaev,  Jaehoon Kim,  P. Klunzinger,  Z. Koczor-Benda,  
 Joong Hoon Koh,  D. Kosenkov,  L. Koulias,  T. Kowalczyk,  C. M. Krauter,  
 K. Kue,  A. Kunitsa,  T. Kus,  A. Landau,  K. V. Lawler,  D. Lefrancois,  
 S. Lehtola,  Rain Li,  Yi-Pei Li,  Jiashu Liang,  M. Liebenthal,  
 Hung-Hsuan Lin,  You-Sheng Lin,  Fenglai Liu,  Kuan-Yu Liu,  
 M. Loipersberger,  A. Luenser,  A. Manjanath,  P. Manohar,  E. Mansoor,  
 S. F. Manzer,  Shan-Ping Mao,  A. V. Marenich,  T. Markovich,  S. Mason,  
 S. A. Maurer,  P. F. McLaughlin,  M. F. S. J. Menger,  J.-M. Mewes,  
 S. A. Mewes,  P. Morgante,  J. W. Mullinax,  K. J. Oosterbaan,  G. Paran,  
 Alexander C. Paul,  Suranjan K. Paul,  F. Pavosevic,  Zheng Pei,  S. Prager,  
 E. I. Proynov,  E. Ramos,  B. Rana,  A. E. Rask,  A. Rettig,  R. M. Richard,  
 F. Rob,  E. Rossomme,  T. Scheele,  M. Scheurer,  M. Schneider,  
 N. Sergueev,  S. M. Sharada,  W. Skomorowski,  D. W. Small,  C. J. Stein,  
 Yu-Chuan Su,  E. J. Sundstrom,  Zhen Tao,  J. Thirman,  T. Tsuchimochi,  
 N. M. Tubman,  S. P. Veccham,  O. Vydrov,  J. Wenzel,  J. Witte,  A. Yamada,  
 Kun Yao,  S. Yeganeh,  S. R. Yost,  A. Zech,  Igor Ying Zhang,  Xing Zhang,  
 Yu Zhang,  D. Zuev,  A. Aspuru-Guzik,  A. T. Bell,  N. A. Besley,  
 K. B. Bravaya,  B. R. Brooks,  D. Casanova,  Jeng-Da Chai,  S. Coriani,  
 C. J. Cramer,  A. E. DePrince, III,  R. A. DiStasio Jr.,  A. Dreuw,  
 B. D. Dunietz,  T. R. Furlani,  W. A. Goddard III,  S. Grimme,  
 S. Hammes-Schiffer,  T. Head-Gordon,  W. J. Hehre,  Chao-Ping Hsu,  
 T.-C. Jagau,  Yousung Jung,  A. Klamt,  Jing Kong,  D. S. Lambrecht,  
 WanZhen Liang,  N. J. Mayhall,  C. W. McCurdy,  J. B. Neaton,  
 C. Ochsenfeld,  J. A. Parkhill,  R. Peverati,  V. A. Rassolov,  Yihan Shao,  
 L. V. Slipchenko,  T. Stauch,  R. P. Steele,  J. E. Subotnik,  
 A. J. W. Thom,  A. Tkatchenko,  D. G. Truhlar,  T. Van Voorhis,  
 T. A. Wesolowski,  K. B. Whaley,  H. L. Woodcock III,  P. M. Zimmerman,  
 S. Faraji,  P. M. W. Gill,  M. Head-Gordon,  J. M. Herbert,  A. I. Krylov

 Additional authors for Version 5.4.1: 
 S. Kotaru,  Shaozhi Li,  Xiangyuan Li,  F. Matz,  A. Molle,  Haisheng Ren,  
 Yingli Su,  Hung-Yi Tsai,  C. Utku,  Fang Wang

 Contributors to earlier versions of Q-Chem not listed above: 
 R. D. Adamson,  B. Austin,  R. Baer,  J. Baker,  G. J. O. Beran,  
 K. Brandhorst,  S. T. Brown,  E. F. C. Byrd,  A. K. Chakraborty,  
 G. K. L. Chan,  Chun-Min Chang,  Yunqing Chen,  C.-L. Cheng,  
 Siu Hung Chien,  D. M. Chipman,  D. L. Crittenden,  H. Dachsel,  
 R. J. Doerksen,  A. D. Dutoi,  R. G. Edgar,  J. Fosso-Tande,  
 L. Fusti-Molnar,  D. Ghosh,  A. Ghysels,  A. Golubeva-Zadorozhnaya,  
 J. Gonthier,  M. S. Gordon,  S. R. Gwaltney,  G. Hawkins,  J. E. Herr,  
 A. Heyden,  S. Hirata,  E. G. Hohenstein,  G. Kedziora,  F. J. Keil,  
 C. Kelley,  Jihan Kim,  R. A. King,  R. Z. Khaliullin,  P. P. Korambath,  
 W. Kurlancheek,  A. Laurent,  A. M. Lee,  M. S. Lee,  S. V. Levchenko,  
 Ching Yeh Lin,  D. Liotard,  E. Livshits,  R. C. Lochan,  I. Lotan,  
 L. A. Martinez-Martinez,  P. E. Maslen,  N. Nair,  D. P. O'Neill,  
 D. Neuhauser,  E. Neuscamman,  C. M. Oana,  R. Olivares-Amaya,  R. Olson,  
 T. M. Perrine,  B. Peters,  P. A. Pieniazek,  A. Prociuk,  Y. M. Rhee,  
 J. Ritchie,  M. A. Rohrdanz,  E. Rosta,  N. J. Russ,  H. F. Schaefer III,  
 M. W. Schmidt,  N. E. Schultz,  S. Sharma,  N. Shenvi,  C. D. Sherrill,  
 A. C. Simmonett,  A. Sodt,  T. Stein,  D. Stuck,  K. S. Thanthiriwatte,  
 V. Vanovschi,  L. Vogt,  Tao Wang,  A. Warshel,  M. A. Watson,  
 C. F. Williams,  Q. Wu,  X. Xu,  Jun Yang,  W. Zhang,  Yan Zhao

 Please cite Q-Chem as follows:
 Y. Shao et al., Mol. Phys. 113, 184-215 (2015)
 DOI: 10.1080/00268976.2014.952696

 Q-Chem 5.4.1 for Intel X86 EM64T Linux

 Parts of Q-Chem use Armadillo 9.800.1 (Horizon Scraper).
 http://arma.sourceforge.net/

 Q-Chem begins on Thu Nov 17 00:23:30 2022  

 Host: cpu287.baobab
0

     Scratch files written to /scratch/fum/qchem85812//
 Processing $rem in /home/share/wesolowski/qc5.aug2021.FDE/config/preferences:
 Processing $rem in /home/fum/.qchemrc:

 Checking the input file for inconsistencies... 	...done.

--------------------------------------------------------------
User input:
--------------------------------------------------------------
$comment
generated from CCJob.Templates
$end

$rem
sym_ignore = true
method = adc(2)
ee_states = 10
basis = cc-pVDZ
mem_static = 1024
mem_total = 30000
adc_davidson_maxiter = 900
adc_davidson_conv = 6
adc_print = 3
adc_prop_es = true
adc_prop_es2es = true
adc_prop_tpa = true
molden_format = True
state_analysis = true
print_orbitals = 15
gen_scfman = false
fde_export_density = true
fde_details = 3
$end

$molecule
0 1
H -0.0348278765 -0.2442097827 0.0636489606
C -1.0765972949 -0.5242748755 -0.0023551776
H -1.313264467 -1.5767591607 -0.0757276926
C -2.043634118 0.3926884087 0.0061254933
H -1.8137616575 1.4459188338 0.0804456828
H -3.085977293 0.114931858 -0.0643381042                     
$end
--------------------------------------------------------------
 ----------------------------------------------------------------
             Standard Nuclear Orientation (Angstroms)
    I     Atom           X                Y                Z
 ----------------------------------------------------------------
    1      H      -0.0348278765    -0.2442097827     0.0636489606
    2      C      -1.0765972949    -0.5242748755    -0.0023551776
    3      H      -1.3132644670    -1.5767591607    -0.0757276926
    4      C      -2.0436341180     0.3926884087     0.0061254933
    5      H      -1.8137616575     1.4459188338     0.0804456828
    6      H      -3.0859772930     0.1149318580    -0.0643381042
 ----------------------------------------------------------------
 Nuclear Repulsion Energy =          33.42262735 hartrees
 There are        8 alpha and        8 beta electrons
 Requested basis set is cc-pVDZ
 There are 24 shells and 48 basis functions
 Total memory of 30000 MB is distributed as follows: 
   MEM_STATIC is set to 1024 MB
   QALLOC/CCMAN JOB total memory use is  28976 MB
 Warning: actual memory use might exceed 30000 MB

 Total QAlloc Memory Limit  30000 MB
 Mega-Array Size      1001 MB
 MEM_STATIC part      1024 MB

                       Distance Matrix (Angstroms)
             H (  1)   C (  2)   H (  3)   C (  4)   H (  5)
   C (  2)  1.080776
   H (  3)  1.851895  1.081258
   C (  4)  2.108139  1.332687  2.102109
   H (  5)  2.453859  2.105215  3.067812  1.080583
   H (  6)  3.074878  2.109511  2.450400  1.081015  1.846895

 A cutoff of  1.0D-11 yielded    300 shell pairs
 There are      1220 function pairs (      1329 Cartesian)
 Smallest overlap matrix eigenvalue = 4.80E-03

 Scale SEOQF with 1.000000e-01/1.000000e-01/1.000000e+00

 Standard Electronic Orientation quadrupole field applied
 Nucleus-field energy     =     0.0000000022 hartrees
 Guess from superposition of atomic densities
 Warning:  Energy on first SCF cycle will be non-variational
 SAD guess density has 16.000000 electrons
 A restricted Hartree-Fock SCF calculation will be
 performed using Pulay DIIS extrapolation
 SCF converges when DIIS error is below 1.0E-08
 using 8 threads for integral computing
 -------------------------------------------------------
 OpenMP Integral computing Module                
 Release: version 1.0, May 2013, Q-Chem Inc. Pittsburgh 
 -------------------------------------------------------
 ---------------------------------------
  Cycle       Energy         DIIS Error
 ---------------------------------------
    1     -78.4386132734      1.01E-01
    2     -78.0176894703      7.21E-03
    3     -78.0383208246      1.84E-03
    4     -78.0398037346      5.73E-04
    5     -78.0399253547      5.79E-05
    6     -78.0399272300      9.30E-06
    7     -78.0399272906      2.18E-06
    8     -78.0399272934      8.36E-07
    9     -78.0399272936      9.20E-08
   10     -78.0399272936      9.74E-09 Convergence criterion met
 ---------------------------------------
 SCF time:  CPU 2.55 s  wall 1.82 s
 SCF   energy in the final basis set = -78.03992729
 Total energy in the final basis set = -78.03992729
Exporting Density Matrix to file 'Densmat_SCF.txt'.
Export successful
================================================================================
|                                                                              |
|                                 A D C  M A N                                 |
|                                                                              |
 ------------------------------------------------------------------------------ 
|                                                                              |
| Components:                                                                  |
|                                                                              |
| - libvmm - 1.3-trunk                                                         |
|   Authors:                                                                   |
|   Evgeny Epifanovsky, Ilya Kaliman                                           |
|                                                                              |
| - libtensor - 2.5-trunk                                                      |
|   Authors:                                                                   |
|   Evgeny Epifanovsky, Michael Wormit, Dmitry Zuev, Sam Manzer,               |
|   Ilya Kaliman                                                               |
|                                                                              |
| - libwfa - 1.1-trunk                                                         |
|   Authors:                                                                   |
|   Felix Plasser, Stefanie Mewes (Baeppler), Benjamin Thomitzni,              |
|   Michael Wormit, Feng Chen, Anna I. Krylov, Pavel Pokhilko                  |
|                                                                              |
| - libadc - 1.1-trunk                                                         |
|   Authors:                                                                   |
|   Michael Wormit, Adrian L. Dempwolff, Philipp H. P. Harbach,                |
|   Caroline Krauter, Dirk Rehn, Matthias Schneider, Jan Wenzel                |
|                                                                              |
| - adcman - 2.6-trunk                                                         |
|   Authors:                                                                   |
|   Michael Wormit, Adrian L. Dempwolff, Philipp H. P. Harbach,                |
|   Caroline Krauter, Daniel Lefrancois, Jan-Michael Mewes, Dirk Rehn,         |
|   Matthias Schneider, Jan Wenzel, Andreas Dreuw                              |
|                                                                              |
| Authors of earlier versions of ADCMAN:                                       |
| Andreas Dreuw, Jan Hendrik Starcke, Dirk Rehn, Michael Wormit                |
|                                                                              |
================================================================================

 Created directory /scratch/fum/qchem85812/plots
  Import QC data ...  CPU 0.00 s  wall 0.00 s

 Alpha MOs, Restricted
 -- Occupied --                  
-11.235 -11.233  -1.032  -0.790  -0.641  -0.582  -0.505  -0.374
  1 A     2 A     3 A     4 A     5 A     6 A     7 A     8 A                  
 -- Virtual --                   
  0.168   0.204   0.233   0.239   0.303   0.462   0.577   0.615
  9 A    10 A    11 A    12 A    13 A    14 A    15 A    16 A                  
  0.689   0.709   0.785   0.808   0.862   0.936   0.972   1.010
 17 A    18 A    19 A    20 A    21 A    22 A    23 A    24 A                  
  1.130   1.235   1.254   1.266   1.293   1.601   1.726   1.750
 25 A    26 A    27 A    28 A    29 A    30 A    31 A    32 A                  
  1.819   1.859   1.867   1.921   1.977   1.978   2.221   2.257
 33 A    34 A    35 A    36 A    37 A    38 A    39 A    40 A                  
  2.376   2.454   2.506   2.633   2.721   2.822   3.140   3.399
 41 A    42 A    43 A    44 A    45 A    46 A    47 A    48 A                  

 Beta MOs, Restricted
 -- Occupied --                  
-11.235 -11.233  -1.032  -0.790  -0.641  -0.582  -0.505  -0.374
  1 A     2 A     3 A     4 A     5 A     6 A     7 A     8 A                  
 -- Virtual --                   
  0.168   0.204   0.233   0.239   0.303   0.462   0.577   0.615
  9 A    10 A    11 A    12 A    13 A    14 A    15 A    16 A                  
  0.689   0.709   0.785   0.808   0.862   0.936   0.972   1.010
 17 A    18 A    19 A    20 A    21 A    22 A    23 A    24 A                  
  1.130   1.235   1.254   1.266   1.293   1.601   1.726   1.750
 25 A    26 A    27 A    28 A    29 A    30 A    31 A    32 A                  
  1.819   1.859   1.867   1.921   1.977   1.978   2.221   2.257
 33 A    34 A    35 A    36 A    37 A    38 A    39 A    40 A                  
  2.376   2.454   2.506   2.633   2.721   2.822   3.140   3.399
 41 A    42 A    43 A    44 A    45 A    46 A    47 A    48 A                  
  Import AO data ...  CPU 0.00 s  wall 0.01 s
  Using point group: C1
  Irreducible representations in point group: A
  Molecular orbitals: 
  Occupied MOs:
  Block   0:   1 (  A) A   2 (  A) A   3 (  A) A   4 (  A) A   5 (  A) A
                  -11.24      -11.23      -1.032     -0.7897     -0.6411
               6 (  A) A   7 (  A) A   8 (  A) A
                 -0.5819     -0.5046      -0.374
  Block   1:   1 (  A) B   2 (  A) B   3 (  A) B   4 (  A) B   5 (  A) B
                  -11.24      -11.23      -1.032     -0.7897     -0.6411
               6 (  A) B   7 (  A) B   8 (  A) B
                 -0.5819     -0.5046      -0.374
  Virtual MOs:
  Block   0:   9 (  A) A  10 (  A) A  11 (  A) A  12 (  A) A  13 (  A) A
                  0.1684      0.2037      0.2329      0.2394      0.3033
              14 (  A) A  15 (  A) A  16 (  A) A  17 (  A) A  18 (  A) A
                   0.462      0.5775      0.6152      0.6891      0.7089
              19 (  A) A  20 (  A) A  21 (  A) A  22 (  A) A
                  0.7845       0.808      0.8622      0.9359
  Block   1:  23 (  A) A  24 (  A) A  25 (  A) A  26 (  A) A  27 (  A) A
                  0.9724        1.01        1.13       1.235       1.254
              28 (  A) A  29 (  A) A  30 (  A) A  31 (  A) A  32 (  A) A
                   1.266       1.293       1.601       1.726        1.75
              33 (  A) A  34 (  A) A  35 (  A) A  36 (  A) A
                   1.819       1.859       1.867       1.921
  Block   2:  37 (  A) A  38 (  A) A  39 (  A) A  40 (  A) A  41 (  A) A
                   1.977       1.978       2.221       2.257       2.376
              42 (  A) A  43 (  A) A  44 (  A) A  45 (  A) A  46 (  A) A
                   2.454       2.506       2.633       2.721       2.822
              47 (  A) A  48 (  A) A
                    3.14       3.399
  Block   3:   9 (  A) B  10 (  A) B  11 (  A) B  12 (  A) B  13 (  A) B
                  0.1684      0.2037      0.2329      0.2394      0.3033
              14 (  A) B  15 (  A) B  16 (  A) B  17 (  A) B  18 (  A) B
                   0.462      0.5775      0.6152      0.6891      0.7089
              19 (  A) B  20 (  A) B  21 (  A) B  22 (  A) B
                  0.7845       0.808      0.8622      0.9359
  Block   4:  23 (  A) B  24 (  A) B  25 (  A) B  26 (  A) B  27 (  A) B
                  0.9724        1.01        1.13       1.235       1.254
              28 (  A) B  29 (  A) B  30 (  A) B  31 (  A) B  32 (  A) B
                   1.266       1.293       1.601       1.726        1.75
              33 (  A) B  34 (  A) B  35 (  A) B  36 (  A) B
                   1.819       1.859       1.867       1.921
  Block   5:  37 (  A) B  38 (  A) B  39 (  A) B  40 (  A) B  41 (  A) B
                   1.977       1.978       2.221       2.257       2.376
              42 (  A) B  43 (  A) B  44 (  A) B  45 (  A) B  46 (  A) B
                   2.454       2.506       2.633       2.721       2.822
              47 (  A) B  48 (  A) B
                    3.14       3.399
  Import MO data ...  CPU 0.27 s  wall 0.11 s
  Import HF data ...  CPU 2.33 s  wall 0.88 s
  Import 2e integrals ...  CPU 3.37 s  wall 0.68 s

--------------------------------------------------------------------------------
                                   HF Summary                                   
--------------------------------------------------------------------------------
  Energy:                                                  -78.0399272936 a.u.
  Dip. moment [a.u.]:                  [  -0.000569,    0.000743,   -0.000903]
  Total dipole [Debye]:                                               0.003305
  <r^2> [a.u.]:                        [ 175.321696,   34.918759,   11.628020]
  Total <r^2> [a.u.]:                                               221.868475
--------------------------------------------------------------------------------
  HF properties ...  CPU 0.38 s  wall 0.09 s
  MP(1) calculation ...  CPU 0.05 s  wall 0.01 s
  N^6 prerequesite intermediates ...  CPU 0.81 s  wall 0.22 s
  Difference density matrix of state mp2_gs printed to ASCII file 'State_mp2_gs_Difference.txt'
Exporting MP density matrix to file 'Densmat_MP.txt'.
Export successful
  Total density matrix of state mp2_gs printed to ASCII file 'State_mp2_gs_Total.txt'
Exporting MP density matrix to file 'Densmat_MP.txt'.
Export successful

--------------------------------------------------------------------------------
                                 MP(2) Summary                                  
--------------------------------------------------------------------------------
  MP energy contribution:                                   -0.2797090052 a.u.
  Total energy:                                            -78.3196362988 a.u.
  Dip. moment [a.u.]:                  [  -0.000566,    0.000634,   -0.000897]
  Total dipole [Debye]:                                               0.003141
  <r^2> [a.u.]:                        [ 175.368273,   34.959338,   11.459872]
  Total <r^2> [a.u.]:                                               221.787484

  Density matrix analysis:
  ------------------------
  NOs
    Occupation of frontier NOs:
       0.0453   1.9383
    Number of electrons: 16.000000
    Number of unpaired electrons: n_u =  0.40344, n_u,nl =  0.04508
    NO participation ratio (PR_NO): 13.857819
  
  
  Mulliken Population Analysis
  Atom      Charge (e)              h+              e-           Del q
  --------------------------------------------------------------------
   1 H        0.050949        0.014032       -0.011202        0.002830
   2 C       -0.100721        0.093218       -0.098847       -0.005629
   3 H        0.050544        0.014074       -0.011191        0.002883
   4 C       -0.101560        0.093005       -0.098908       -0.005903
   5 H        0.050149        0.014119       -0.011185        0.002934
   6 H        0.050639        0.014078       -0.011193        0.002885
  --------------------------------------------------------------------
  Sum:       -0.000000        0.242526       -0.242526       -0.000000
  
  Multipole moment analysis of the density matrix
    Molecular charge:                      0.000000
    Number of electrons:                   16.000000
      Center of electronic charge [Ang]: [ -1.560558,  -0.065623,   0.001695]
    Total nuclear charge:                  16.000000
      Center of nuclear charge [Ang]:    [ -1.560576,  -0.065602,   0.001666]
    Dipole moment [D]:                     0.003141
      Cartesian components [D]:          [ -0.001438,   0.001612,  -0.002280]
    RMS size of the density [Ang]:         1.200844
      Cartesian components [Ang]:        [  0.796189,   0.779451,   0.447845]
  
  Exciton analysis of the difference density matrix
    <r_h> [Ang]:                  [ -1.560486,  -0.065884,   0.001831]
    <r_e> [Ang]:                  [ -1.560493,  -0.065646,   0.001819]
    |<r_e - r_h>| [Ang]:            0.000238
    Hole size [Ang]:                1.393731
      Cartesian components [Ang]: [  0.846713,   0.834144,   0.727850]
    Electron size [Ang]:            1.359771
      Cartesian components [Ang]: [  0.877883,   0.861790,   0.579325]
--------------------------------------------------------------------------------
  MP(2) calculation ...  CPU 1.82 s  wall 0.85 s
  Start ADC(2)-s ...  CPU 0.04 s  wall 0.02 s
  ADC(2) intermediates ...  CPU 0.27 s  wall 0.09 s
  Starting Davidson for singlet states of irrep A ... 
--------------------------------------------------------------------------------
   It NVec Conv  Avg. Norm  Max. Norm  Conv. states           Remark
--------------------------------------------------------------------------------
        10    0  1.330e-01  4.687e-01  0.4119 n n n n n n n n Guess.
    1   20    0  2.303e-02  1.109e-01  0.3262 n n n n n n n n 
    2   30    0  5.848e-03  2.541e-02  0.3215 n n n n n n n n 
    3   40    0  1.999e-03  1.342e-02  0.3211 n n n n n n n n 
    4   50    0  6.008e-04  4.306e-03  0.3211 n n n n n n n n 
    5   20    0  2.710e-04  1.957e-03  0.3211 n n n n n n n n Subspace collapsed.
    6   30    0  1.656e-04  1.430e-03  0.3211 n n n n n n n n 
    7   40    0  1.041e-04  7.353e-04  0.3211 n n n n n n n n 
    8   50    0  1.246e-04  1.195e-03  0.3211 n n n n n n n n 
    9   20    1  5.676e-05  5.378e-04  0.3211 n y n n n n n n Subspace collapsed.
   10   30    3  6.338e-05  6.083e-04  0.3211 n y y y n n n n 
   11   40    5  6.414e-05  6.352e-04  0.3211 n y y y y y n n 
   12   50    6  7.137e-05  7.119e-04  0.3211 y y y y y y n n 
   13   20    6  3.827e-05  3.818e-04  0.3211 y y y y y y n n Subspace collapsed.
   14   30    6  3.219e-05  3.211e-04  0.3211 y y y y y y n n 
   15   40    6  2.094e-05  2.091e-04  0.3211 y y y y y y n n 
   16   50    6  3.376e-05  3.374e-04  0.3211 y y y y y y n n 
   17   20    6  1.313e-05  1.313e-04  0.3211 y y y y y y n n Subspace collapsed.
   18   30    6  1.518e-05  1.517e-04  0.3211 y y y y y y n n 
   19   40    7  1.422e-05  1.421e-04  0.3211 y y y y y y y n 
   20   50    8  2.001e-05  2.000e-04  0.3211 y y y y y y y y 
   21   20    8  7.393e-06  7.392e-05  0.3211 y y y y y y y y Subspace collapsed.
   22   30    8  8.401e-06  8.399e-05  0.3211 y y y y y y y y 
   23   32    8  8.261e-06  8.260e-05  0.3211 y y y y y y y y 
   24   33    8  7.443e-06  7.442e-05  0.3211 y y y y y y y y 
   25   34    8  7.971e-06  7.970e-05  0.3211 y y y y y y y y 
   26   35    8  8.245e-06  8.244e-05  0.3211 y y y y y y y y 
   27   35    8  8.245e-06  8.244e-05  0.3211 y y y y y y y y 
   28   45    8  7.374e-06  7.373e-05  0.3211 y y y y y y y y 
   29   50    9  8.710e-06  8.709e-05  0.3211 y y y y y y y y 
   30   16    9  4.507e-06  4.507e-05  0.3211 y y y y y y y y Subspace collapsed.
   31   22    9  4.694e-06  4.693e-05  0.3211 y y y y y y y y 
   32   28    9  3.935e-06  3.935e-05  0.3211 y y y y y y y y 
   33   28    9  3.935e-06  3.935e-05  0.3211 y y y y y y y y 
   34   38    9  5.014e-06  5.014e-05  0.3211 y y y y y y y y 
   35   43    9  3.798e-06  3.798e-05  0.3211 y y y y y y y y 
   36   47    9  1.819e-06  1.819e-05  0.3211 y y y y y y y y 
   37   50    9  9.405e-07  9.405e-06  0.3211 y y y y y y y y 
   38   14    9  4.529e-07  4.529e-06  0.3211 y y y y y y y y Subspace collapsed.
   39   18    9  3.671e-07  3.671e-06  0.3211 y y y y y y y y 
   40   22    9  1.836e-07  1.836e-06  0.3211 y y y y y y y y 
   41   26    9  1.289e-07  1.289e-06  0.3211 y y y y y y y y 
   42   30   10  6.892e-08  6.892e-07  0.3211 y y y y y y y y Converged.
--------------------------------------------------------------------------------
  Davidson Summary: 
 ------------------------------------------------------------
  State  0: excitation energy =   0.3211 a.u.   (converged)
  State  1: excitation energy =   0.3327 a.u.   (converged)
  State  2: excitation energy =   0.3370 a.u.   (converged)
  State  3: excitation energy =   0.3614 a.u.   (converged)
  State  4: excitation energy =   0.3753 a.u.   (converged)
  State  5: excitation energy =   0.3872 a.u.   (converged)
  State  6: excitation energy =   0.4247 a.u.   (converged)
  State  7: excitation energy =   0.4471 a.u.   (converged)
  State  8: excitation energy =   0.4563 a.u.   (converged)
  State  9: excitation energy =   0.4647 a.u.   (converged)
 ------------------------------------------------------------

  Singlet states of irrep A ...  CPU 296.80 s  wall 107.81 s
  TDMs ...  CPU 6.65 s  wall 2.25 s
  SDMs ...  CPU 11.95 s  wall 3.63 s
  Starting TPA DIIS iterations ... 
------------------------------------ 
   It     Res. Norm  Remark
------------------------------------
                       Guess.
    1     4.406e+00  
    2     5.841e+00  
    3     1.077e+00  
    4     2.567e-01  
    5     6.575e-02  
    6     2.676e-02  
    7     8.239e-03  
    8     1.443e-03  
    9     5.346e-04  
   10     9.106e-05  
   11     2.845e-05  
   12     5.090e-06  
   13     1.687e-06  
   14     8.597e-07  Converged.
   ... Converged in 14 steps (norm: 8.59697e-07)
------------------------------------
  Starting TPA DIIS iterations ... 
------------------------------------ 
   It     Res. Norm  Remark
------------------------------------
                       Guess.
    1     4.184e+00  
    2     5.540e+00  
    3     1.029e+00  
    4     2.555e-01  
    5     6.534e-02  
    6     2.672e-02  
    7     8.115e-03  
    8     1.454e-03  
    9     5.369e-04  
   10     9.052e-05  
   11     2.853e-05  
   12     4.858e-06  
   13     1.725e-06  
   14     7.811e-07  Converged.
   ... Converged in 14 steps (norm: 7.81093e-07)
------------------------------------
  Starting TPA DIIS iterations ... 
------------------------------------ 
   It     Res. Norm  Remark
------------------------------------
                       Guess.
    1     6.883e-01  
    2     4.839e-01  
    3     1.708e-01  
    4     6.623e-02  
    5     1.822e-02  
    6     6.519e-03  
    7     1.039e-03  
    8     4.483e-04  
    9     1.237e-04  
   10     3.000e-05  
   11     5.004e-06  
   12     1.596e-06  
   13     8.855e-07  Converged.
   ... Converged in 13 steps (norm: 8.85534e-07)
------------------------------------
  Starting TPA DIIS iterations ... 
------------------------------------ 
   It     Res. Norm  Remark
------------------------------------
                       Guess.
    1     4.693e+00  
    2     6.357e+00  
    3     1.158e+00  
    4     2.853e-01  
    5     7.408e-02  
    6     3.040e-02  
    7     9.345e-03  
    8     1.634e-03  
    9     6.101e-04  
   10     1.046e-04  
   11     3.302e-05  
   12     6.067e-06  
   13     2.030e-06  
   14     1.080e-06  
   15     2.773e-07  Converged.
   ... Converged in 15 steps (norm: 2.773e-07)
------------------------------------
  Starting TPA DIIS iterations ... 
------------------------------------ 
   It     Res. Norm  Remark
------------------------------------
                       Guess.
    1     4.456e+00  
    2     6.029e+00  
    3     1.106e+00  
    4     2.837e-01  
    5     7.364e-02  
    6     3.038e-02  
    7     9.207e-03  
    8     1.648e-03  
    9     6.126e-04  
   10     1.039e-04  
   11     3.307e-05  
   12     5.761e-06  
   13     2.074e-06  
   14     9.737e-07  Converged.
   ... Converged in 14 steps (norm: 9.7373e-07)
------------------------------------
  Starting TPA DIIS iterations ... 
------------------------------------ 
   It     Res. Norm  Remark
------------------------------------
                       Guess.
    1     7.004e-01  
    2     5.014e-01  
    3     1.807e-01  
    4     7.507e-02  
    5     1.959e-02  
    6     7.141e-03  
    7     1.173e-03  
    8     5.285e-04  
    9     1.496e-04  
   10     3.444e-05  
   11     5.664e-06  
   12     1.881e-06  
   13     1.106e-06  
   14     3.680e-07  Converged.
   ... Converged in 14 steps (norm: 3.67996e-07)
------------------------------------
  Starting TPA DIIS iterations ... 
------------------------------------ 
   It     Res. Norm  Remark
------------------------------------
                       Guess.
    1     4.806e+00  
    2     6.562e+00  
    3     1.190e+00  
    4     2.969e-01  
    5     7.744e-02  
    6     3.188e-02  
    7     9.792e-03  
    8     1.711e-03  
    9     6.407e-04  
   10     1.101e-04  
   11     3.490e-05  
   12     6.479e-06  
   13     2.176e-06  
   14     1.177e-06  
   15     2.999e-07  Converged.
   ... Converged in 15 steps (norm: 2.99861e-07)
------------------------------------
  Starting TPA DIIS iterations ... 
------------------------------------ 
   It     Res. Norm  Remark
------------------------------------
                       Guess.
    1     4.563e+00  
    2     6.223e+00  
    3     1.137e+00  
    4     2.951e-01  
    5     7.699e-02  
    6     3.187e-02  
    7     9.649e-03  
    8     1.726e-03  
    9     6.433e-04  
   10     1.094e-04  
   11     3.494e-05  
   12     6.139e-06  
   13     2.223e-06  
   14     1.057e-06  
   15     3.099e-07  Converged.
   ... Converged in 15 steps (norm: 3.09869e-07)
------------------------------------
  Starting TPA DIIS iterations ... 
------------------------------------ 
   It     Res. Norm  Remark
------------------------------------
                       Guess.
    1     7.049e-01  
    2     5.081e-01  
    3     1.846e-01  
    4     7.869e-02  
    5     2.012e-02  
    6     7.392e-03  
    7     1.228e-03  
    8     5.619e-04  
    9     1.604e-04  
   10     3.591e-05  
   11     5.925e-06  
   12     2.000e-06  
   13     1.202e-06  
   14     3.947e-07  Converged.
   ... Converged in 14 steps (norm: 3.94745e-07)
------------------------------------
  Starting TPA DIIS iterations ... 
------------------------------------ 
   It     Res. Norm  Remark
------------------------------------
                       Guess.
    1     5.546e+00  
    2     7.942e+00  
    3     1.397e+00  
    4     3.770e-01  
    5     1.008e-01  
    6     4.226e-02  
    7     1.290e-02  
    8     2.245e-03  
    9     8.552e-04  
   10     1.490e-04  
   11     4.841e-05  
   12     9.591e-06  
   13     3.303e-06  
   14     1.966e-06  
   15     4.823e-07  Converged.
   ... Converged in 15 steps (norm: 4.82271e-07)
------------------------------------
  Starting TPA DIIS iterations ... 
------------------------------------ 
   It     Res. Norm  Remark
------------------------------------
                       Guess.
    1     5.263e+00  
    2     7.531e+00  
    3     1.334e+00  
    4     3.740e-01  
    5     1.002e-01  
    6     4.231e-02  
    7     1.272e-02  
    8     2.267e-03  
    9     8.583e-04  
   10     1.478e-04  
   11     4.828e-05  
   12     8.965e-06  
   13     3.352e-06  
   14     1.733e-06  
   15     4.703e-07  Converged.
   ... Converged in 15 steps (norm: 4.70304e-07)
------------------------------------
  Starting TPA DIIS iterations ... 
------------------------------------ 
   It     Res. Norm  Remark
------------------------------------
                       Guess.
    1     7.320e-01  
    2     5.499e-01  
    3     2.092e-01  
    4     1.044e-01  
    5     2.366e-02  
    6     9.144e-03  
    7     1.627e-03  
    8     8.005e-04  
    9     2.360e-04  
   10     4.176e-05  
   11     7.687e-06  
   12     2.872e-06  
   13     1.953e-06  
   14     5.945e-07  Converged.
   ... Converged in 14 steps (norm: 5.94493e-07)
------------------------------------
  Starting TPA DIIS iterations ... 
------------------------------------ 
   It     Res. Norm  Remark
------------------------------------
                       Guess.
    1     6.057e+00  
    2     8.928e+00  
    3     1.540e+00  
    4     4.364e-01  
    5     1.181e-01  
    6     5.005e-02  
    7     1.520e-02  
    8     2.640e-03  
    9     1.016e-03  
   10     1.783e-04  
   11     5.888e-05  
   12     1.218e-05  
   13     4.266e-06  
   14     2.689e-06  
   15     6.512e-07  Converged.
   ... Converged in 15 steps (norm: 6.5119e-07)
------------------------------------
  Starting TPA DIIS iterations ... 
------------------------------------ 
   It     Res. Norm  Remark
------------------------------------
                       Guess.
    1     5.746e+00  
    2     8.465e+00  
    3     1.469e+00  
    4     4.325e-01  
    5     1.175e-01  
    6     5.016e-02  
    7     1.499e-02  
    8     2.668e-03  
    9     1.019e-03  
   10     1.768e-04  
   11     5.853e-05  
   12     1.128e-05  
   13     4.298e-06  
   14     2.340e-06  
   15     5.984e-07  Converged.
   ... Converged in 15 steps (norm: 5.98402e-07)
------------------------------------
  Starting TPA DIIS iterations ... 
------------------------------------ 
   It     Res. Norm  Remark
------------------------------------
                       Guess.
    1     7.484e-01  
    2     5.768e-01  
    3     2.256e-01  
    4     1.240e-01  
    5     2.617e-02  
    6     1.045e-02  
    7     1.940e-03  
    8     9.732e-04  
    9     2.897e-04  
   10     4.306e-05  
   11     8.989e-06  
   12     3.555e-06  
   13     2.590e-06  
   14     7.565e-07  Converged.
   ... Converged in 14 steps (norm: 7.56528e-07)
------------------------------------
  Starting TPA DIIS iterations ... 
------------------------------------ 
   It     Res. Norm  Remark
------------------------------------
                       Guess.
    1     6.557e+00  
    2     9.917e+00  
    3     1.678e+00  
    4     4.976e-01  
    5     1.359e-01  
    6     5.814e-02  
    7     1.757e-02  
    8     3.045e-03  
    9     1.183e-03  
   10     2.089e-04  
   11     6.993e-05  
   12     1.508e-05  
   13     5.368e-06  
   14     3.558e-06  
   15     8.603e-07  Converged.
   ... Converged in 15 steps (norm: 8.603e-07)
------------------------------------
  Starting TPA DIIS iterations ... 
------------------------------------ 
   It     Res. Norm  Remark
------------------------------------
                       Guess.
    1     6.220e+00  
    2     9.403e+00  
    3     1.601e+00  
    4     4.926e-01  
    5     1.352e-01  
    6     5.832e-02  
    7     1.734e-02  
    8     3.078e-03  
    9     1.186e-03  
   10     2.069e-04  
   11     6.931e-05  
   12     1.383e-05  
   13     5.356e-06  
   14     3.061e-06  
   15     7.376e-07  Converged.
   ... Converged in 15 steps (norm: 7.37584e-07)
------------------------------------
  Starting TPA DIIS iterations ... 
------------------------------------ 
   It     Res. Norm  Remark
------------------------------------
                       Guess.
    1     7.630e-01  
    2     6.019e-01  
    3     2.412e-01  
    4     1.442e-01  
    5     2.870e-02  
    6     1.180e-02  
    7     2.274e-03  
    8     1.138e-03  
    9     3.413e-04  
   10     4.357e-05  
   11     1.035e-05  
   12     4.278e-06  
   13     3.299e-06  
   14     9.340e-07  Converged.
   ... Converged in 14 steps (norm: 9.33958e-07)
------------------------------------
  Starting TPA DIIS iterations ... 
------------------------------------ 
   It     Res. Norm  Remark
------------------------------------
                       Guess.
    1     8.662e+00  
    2     1.432e+01  
    3     2.251e+00  
    4     7.827e-01  
    5     2.190e-01  
    6     9.664e-02  
    7     2.864e-02  
    8     4.929e-03  
    9     1.978e-03  
   10     3.557e-04  
   11     1.238e-04  
   12     3.169e-05  
   13     1.209e-05  
   14     9.327e-06  
   15     2.425e-06  
   16     1.861e-06  
   17     4.229e-07  Converged.
   ... Converged in 17 steps (norm: 4.22947e-07)
------------------------------------
  Starting TPA DIIS iterations ... 
------------------------------------ 
   It     Res. Norm  Remark
------------------------------------
                       Guess.
    1     8.214e+00  
    2     1.358e+01  
    3     2.146e+00  
    4     7.718e-01  
    5     2.181e-01  
    6     9.720e-02  
    7     2.828e-02  
    8     4.985e-03  
    9     1.977e-03  
   10     3.506e-04  
   11     1.209e-04  
   12     2.810e-05  
   13     1.126e-05  
   14     7.753e-06  
   15     1.539e-06  
   16     1.427e-06  
   17     2.744e-07  Converged.
   ... Converged in 17 steps (norm: 2.7442e-07)
------------------------------------
  Starting TPA DIIS iterations ... 
------------------------------------ 
   It     Res. Norm  Remark
------------------------------------
                       Guess.
    1     8.136e-01  
    2     6.970e-01  
    3     3.035e-01  
    4     2.372e-01  
    5     4.017e-02  
    6     1.804e-02  
    7     3.946e-03  
    8     1.662e-03  
    9     5.399e-04  
   10     5.205e-05  
   11     1.715e-05  
   12     7.710e-06  
   13     7.077e-06  
   14     1.887e-06  
   15     6.446e-07  Converged.
   ... Converged in 15 steps (norm: 6.44613e-07)
------------------------------------
  Starting TPA DIIS iterations ... 
------------------------------------ 
   It     Res. Norm  Remark
------------------------------------
                       Guess.
    1     1.049e+01  
    2     1.843e+01  
    3     2.734e+00  
    4     1.058e+00  
    5     2.999e-01  
    6     1.350e-01  
    7     3.941e-02  
    8     6.755e-03  
    9     2.769e-03  
   10     5.032e-04  
   11     1.777e-04  
   12     5.260e-05  
   13     2.162e-05  
   14     1.762e-05  
   15     4.981e-06  
   16     3.385e-06  
   17     8.349e-07  Converged.
   ... Converged in 17 steps (norm: 8.34913e-07)
------------------------------------
  Starting TPA DIIS iterations ... 
------------------------------------ 
   It     Res. Norm  Remark
------------------------------------
                       Guess.
    1     9.942e+00  
    2     1.747e+01  
    3     2.605e+00  
    4     1.040e+00  
    5     2.988e-01  
    6     1.360e-01  
    7     3.892e-02  
    8     6.827e-03  
    9     2.761e-03  
   10     4.937e-04  
   11     1.713e-04  
   12     4.558e-05  
   13     1.844e-05  
   14     1.450e-05  
   15     2.746e-06  
   16     2.762e-06  
   17     5.025e-07  Converged.
   ... Converged in 17 steps (norm: 5.02505e-07)
------------------------------------
  Starting TPA DIIS iterations ... 
------------------------------------ 
   It     Res. Norm  Remark
------------------------------------
                       Guess.
    1     8.476e-01  
    2     7.697e-01  
    3     3.534e-01  
    4     3.185e-01  
    5     5.093e-02  
    6     2.375e-02  
    7     5.637e-03  
    8     1.879e-03  
    9     6.925e-04  
   10     6.979e-05  
   11     2.427e-05  
   12     1.102e-05  
   13     1.124e-05  
   14     3.001e-06  
   15     1.102e-06  
   16     9.109e-07  Converged.
   ... Converged in 16 steps (norm: 9.1088e-07)
------------------------------------
  Starting TPA DIIS iterations ... 
------------------------------------ 
   It     Res. Norm  Remark
------------------------------------
                       Guess.
    1     1.143e+01  
    2     2.062e+01  
    3     2.978e+00  
    4     1.206e+00  
    5     3.441e-01  
    6     1.563e-01  
    7     4.530e-02  
    8     7.752e-03  
    9     3.208e-03  
   10     5.854e-04  
   11     2.077e-04  
   12     6.595e-05  
   13     2.837e-05  
   14     2.317e-05  
   15     6.765e-06  
   16     4.342e-06  
   17     1.082e-06  
   18     3.897e-07  Converged.
   ... Converged in 18 steps (norm: 3.89668e-07)
------------------------------------
  Starting TPA DIIS iterations ... 
------------------------------------ 
   It     Res. Norm  Remark
------------------------------------
                       Guess.
    1     1.083e+01  
    2     1.955e+01  
    3     2.837e+00  
    4     1.185e+00  
    5     3.430e-01  
    6     1.575e-01  
    7     4.474e-02  
    8     7.832e-03  
    9     3.193e-03  
   10     5.730e-04  
   11     1.989e-04  
   12     5.662e-05  
   13     2.309e-05  
   14     1.909e-05  
   15     3.656e-06  
   16     3.674e-06  
   17     6.483e-07  Converged.
   ... Converged in 17 steps (norm: 6.4828e-07)
------------------------------------
  Starting TPA DIIS iterations ... 
------------------------------------ 
   It     Res. Norm  Remark
------------------------------------
                       Guess.
    1     8.628e-01  
    2     8.046e-01  
    3     3.780e-01  
    4     3.577e-01  
    5     5.667e-02  
    6     2.665e-02  
    7     6.559e-03  
    8     1.938e-03  
    9     7.667e-04  
   10     8.059e-05  
   11     2.832e-05  
   12     1.285e-05  
   13     1.372e-05  
   14     3.692e-06  
   15     1.455e-06  
   16     1.204e-06  
   17     5.793e-07  Converged.
   ... Converged in 17 steps (norm: 5.79322e-07)
------------------------------------
  Starting TPA DIIS iterations ... 
------------------------------------ 
   It     Res. Norm  Remark
------------------------------------
                       Guess.
    1     1.239e+01  
    2     2.296e+01  
    3     3.228e+00  
    4     1.364e+00  
    5     3.916e-01  
    6     1.793e-01  
    7     5.161e-02  
    8     8.821e-03  
    9     3.682e-03  
   10     6.746e-04  
   11     2.404e-04  
   12     8.169e-05  
   13     3.686e-05  
   14     2.981e-05  
   15     8.899e-06  
   16     5.465e-06  
   17     1.348e-06  
   18     4.927e-07  Converged.
   ... Converged in 18 steps (norm: 4.92688e-07)
------------------------------------
  Starting TPA DIIS iterations ... 
------------------------------------ 
   It     Res. Norm  Remark
------------------------------------
                       Guess.
    1     1.175e+01  
    2     2.176e+01  
    3     3.074e+00  
    4     1.339e+00  
    5     3.903e-01  
    6     1.808e-01  
    7     5.098e-02  
    8     8.907e-03  
    9     3.660e-03  
   10     6.586e-04  
   11     2.285e-04  
   12     6.956e-05  
   13     2.873e-05  
   14     2.464e-05  
   15     4.846e-06  
   16     4.804e-06  
   17     8.098e-07  Converged.
   ... Converged in 17 steps (norm: 8.09816e-07)
------------------------------------
  Starting TPA DIIS iterations ... 
------------------------------------ 
   It     Res. Norm  Remark
------------------------------------
                       Guess.
    1     8.771e-01  
    2     8.393e-01  
    3     4.025e-01  
    4     3.954e-01  
    5     6.272e-02  
    6     2.954e-02  
    7     7.534e-03  
    8     1.981e-03  
    9     8.412e-04  
   10     9.219e-05  
   11     3.276e-05  
   12     1.489e-05  
   13     1.658e-05  
   14     4.502e-06  
   15     1.928e-06  
   16     1.554e-06  
   17     7.794e-07  Converged.
   ... Converged in 17 steps (norm: 7.79437e-07)
------------------------------------
  Two-photon absorbption ...  CPU 161.72 s  wall 44.43 s
  Transition density matrix of state singlet_A_1 printed to ASCII file 'State_singlet_A_1_Transition.txt'
  Transition density matrix of state singlet_A_2 printed to ASCII file 'State_singlet_A_2_Transition.txt'
  Transition density matrix of state singlet_A_3 printed to ASCII file 'State_singlet_A_3_Transition.txt'
  Transition density matrix of state singlet_A_4 printed to ASCII file 'State_singlet_A_4_Transition.txt'
  Transition density matrix of state singlet_A_5 printed to ASCII file 'State_singlet_A_5_Transition.txt'
  Transition density matrix of state singlet_A_6 printed to ASCII file 'State_singlet_A_6_Transition.txt'
  Transition density matrix of state singlet_A_7 printed to ASCII file 'State_singlet_A_7_Transition.txt'
  Transition density matrix of state singlet_A_8 printed to ASCII file 'State_singlet_A_8_Transition.txt'
  Transition density matrix of state singlet_A_9 printed to ASCII file 'State_singlet_A_9_Transition.txt'
  Transition density matrix of state singlet_A_10 printed to ASCII file 'State_singlet_A_10_Transition.txt'
  Transition properties ...  CPU 0.15 s  wall 0.29 s
  Difference density matrix of state singlet_A_1 printed to ASCII file 'State_singlet_A_1_Difference.txt'
  Total density matrix of state singlet_A_1 printed to ASCII file 'State_singlet_A_1_Total.txt'
  Difference density matrix of state singlet_A_2 printed to ASCII file 'State_singlet_A_2_Difference.txt'
  Total density matrix of state singlet_A_2 printed to ASCII file 'State_singlet_A_2_Total.txt'
  Difference density matrix of state singlet_A_3 printed to ASCII file 'State_singlet_A_3_Difference.txt'
  Total density matrix of state singlet_A_3 printed to ASCII file 'State_singlet_A_3_Total.txt'
  Difference density matrix of state singlet_A_4 printed to ASCII file 'State_singlet_A_4_Difference.txt'
  Total density matrix of state singlet_A_4 printed to ASCII file 'State_singlet_A_4_Total.txt'
  Difference density matrix of state singlet_A_5 printed to ASCII file 'State_singlet_A_5_Difference.txt'
  Total density matrix of state singlet_A_5 printed to ASCII file 'State_singlet_A_5_Total.txt'
  Difference density matrix of state singlet_A_6 printed to ASCII file 'State_singlet_A_6_Difference.txt'
  Total density matrix of state singlet_A_6 printed to ASCII file 'State_singlet_A_6_Total.txt'
  Difference density matrix of state singlet_A_7 printed to ASCII file 'State_singlet_A_7_Difference.txt'
  Total density matrix of state singlet_A_7 printed to ASCII file 'State_singlet_A_7_Total.txt'
  Difference density matrix of state singlet_A_8 printed to ASCII file 'State_singlet_A_8_Difference.txt'
  Total density matrix of state singlet_A_8 printed to ASCII file 'State_singlet_A_8_Total.txt'
  Difference density matrix of state singlet_A_9 printed to ASCII file 'State_singlet_A_9_Difference.txt'
  Total density matrix of state singlet_A_9 printed to ASCII file 'State_singlet_A_9_Total.txt'
  Difference density matrix of state singlet_A_10 printed to ASCII file 'State_singlet_A_10_Difference.txt'
  Total density matrix of state singlet_A_10 printed to ASCII file 'State_singlet_A_10_Total.txt'
  Properties ...  CPU 0.55 s  wall 0.58 s
  ISR TDMS ...  CPU 51.14 s  wall 15.25 s
  ISR transition properties ...  CPU 0.24 s  wall 0.12 s
  Sum-over-states TPA ...  CPU 0.00 s  wall 0.00 s

--------------------------------------------------------------------------------
                   State-averaged natural transition orbitals
--------------------------------------------------------------------------------
--------------------------------------------------------------------------------
  SA-NTO decomposition ...  CPU 0.01 s  wall 0.02 s

--------------------------------------------------------------------------------
                             Excited State Summary
--------------------------------------------------------------------------------
--------------------------------------------------------------------------------

  Excited state 1 (singlet, A)                                     [converged]
  ----------------------------------------------------------------------------
  Term symbol:  2 (1) A                                     R^2 =  5.31288e-14

  Total energy:                                            -77.9985586115 a.u.
  Excitation energy:                                               8.736968 eV

  Osc. strength:                                                      0.445405
  Trans. dip. moment [a.u.]:           [  -1.045383,    0.993937,    0.009545]
  <i|r^2|0> [a.u.]:                    [  -6.166752,    0.246615,    0.003038]
  Two-photon absorption cross-section (SoS) [a.u.]:                   0.000451
  Two-photon absorption matrix (SoS) [a.u.]:
                                       |   -0.005530    0.001222   -0.000537 |
                                       |    0.001222   -0.001409    0.000708 |
                                       |   -0.000537    0.000708   -0.003991 |
  Two-photon absorption cross-section [a.u.]:                         0.002308
  Two-photon absorption matrix [a.u.]:
                                       |    0.000762    0.003549   -0.012039 |
                                       |    0.003549    0.007197   -0.009438 |
                                       |   -0.012039   -0.009438   -0.005261 |

  Dip. moment [a.u.]:                  [  -0.000470,    0.000468,   -0.001105]
  Total dipole [Debye]:                                               0.003277
  <r^2> [a.u.]:                        [ 176.121645,   35.648537,   11.870426]
  Total <r^2> [a.u.]:                                               223.640608

  V1^2 = 0.9715, V2^2 = 0.0285

  Important amplitudes:
      occ i     occ j     vir a      vir b          v   
    -----------------------------------------------------
     8 (A) A              9 (A) A                 0.6810
     6 (A) A             14 (A) A                 0.0623
     4 (A) A             10 (A) A                 0.0607
     7 (A) A             16 (A) A                -0.0569
     5 (A) A             13 (A) A                 0.0513
     6 (A) A             23 (A) A                 0.0486
     8 (A) A             20 (A) A                -0.0350
     6 (A) A             19 (A) A                 0.0308
     3 (A) A             12 (A) A                -0.0281
     5 (A) A             22 (A) A                -0.0215
     7 (A) A             11 (A) A                -0.0209
     4 (A) A             24 (A) A                 0.0187
     3 (A) A             26 (A) A                 0.0185
     8 (A) A   8 (A) B   17 (A) A   20 (A) B      0.0184
     8 (A) A   8 (A) B    9 (A) A   28 (A) B      0.0168
     6 (A) A             26 (A) A                 0.0163
     7 (A) A             21 (A) A                -0.0148
     3 (A) A             14 (A) A                 0.0139
     7 (A) A              9 (A) A                -0.0134
     6 (A) A             12 (A) A                 0.0132
     3 (A) A   4 (A) B    9 (A) A    9 (A) B     -0.0129
     3 (A) A             19 (A) A                 0.0119
     8 (A) A   8 (A) B   18 (A) A   19 (A) B     -0.0113
     7 (A) A             32 (A) A                -0.0096
     7 (A) A             36 (A) A                -0.0086
     3 (A) A             23 (A) A                 0.0080
     8 (A) A   8 (A) B   25 (A) A   29 (A) B     -0.0076
     6 (A) A             35 (A) A                 0.0072
     6 (A) A             40 (A) A                 0.0068
     3 (A) A   6 (A) B    9 (A) A   28 (A) B      0.0065
     6 (A) A   8 (A) A   19 (A) A   28 (A) A     -0.0061
     5 (A) A   7 (A) B    9 (A) A    9 (A) B      0.0060
     5 (A) A   8 (A) B   11 (A) A   20 (A) B      0.0059
     7 (A) A   8 (A) B   13 (A) A   20 (A) B     -0.0059
     5 (A) A   8 (A) B   16 (A) A    9 (A) B     -0.0059
     5 (A) A   8 (A) B   11 (A) A    9 (A) B      0.0059
     3 (A) A   5 (A) B    9 (A) A   25 (A) B     -0.0058
     3 (A) A             40 (A) A                 0.0057
     7 (A) A   8 (A) B   22 (A) A   20 (A) B      0.0057
     6 (A) A   8 (A) A    9 (A) A   18 (A) A     -0.0057
    -----------------------------------------------------

  Density matrix analysis:
  ------------------------
  NOs
    Occupation of frontier NOs:
       0.9495   1.0217
    Number of electrons: 16.000000
    Number of unpaired electrons: n_u =  2.31343, n_u,nl =  2.03264
    NO participation ratio (PR_NO):  2.863927
  
  
  Mulliken Population Analysis
  Atom      Charge (e)              h+              e-           Del q
  --------------------------------------------------------------------
   1 H        0.058751        0.020338       -0.012537        0.007801
   2 C       -0.116042        0.490767       -0.506088       -0.015321
   3 H        0.058167        0.020218       -0.012595        0.007623
   4 C       -0.117214        0.490611       -0.506265       -0.015654
   5 H        0.057845        0.020253       -0.012556        0.007697
   6 H        0.058493        0.020369       -0.012515        0.007854
  --------------------------------------------------------------------
  Sum:       -0.000000        1.062557       -1.062557       -0.000000
  
  Multipole moment analysis of the density matrix
    Molecular charge:                      -0.000000
    Number of electrons:                   16.000000
      Center of electronic charge [Ang]: [ -1.560561,  -0.065618,   0.001702]
    Total nuclear charge:                  16.000000
      Center of nuclear charge [Ang]:    [ -1.560576,  -0.065602,   0.001666]
    Dipole moment [D]:                     0.003277
      Cartesian components [D]:          [ -0.001194,   0.001190,  -0.002809]
    RMS size of the density [Ang]:         1.214270
      Cartesian components [Ang]:        [  0.804421,   0.787151,   0.455797]
  
  Exciton analysis of the difference density matrix
    <r_h> [Ang]:                  [ -1.560250,  -0.065809,   0.002153]
    <r_e> [Ang]:                  [ -1.560297,  -0.065726,   0.002257]
    |<r_e - r_h>| [Ang]:            0.000141
    Hole size [Ang]:                1.285549
      Cartesian components [Ang]: [  0.728685,   0.712801,   0.783307]
    Electron size [Ang]:            1.463172
      Cartesian components [Ang]: [  0.854036,   0.830499,   0.849569]

  Transition density matrix analysis:
  -----------------------------------
  
  CT numbers (Mulliken)
    omega =     0.9535
    <Phe> =    -0.1606
  
  Exciton analysis of the transition density matrix
    Trans. dipole moment [D]:             1.833244
      Cartesian components [D]:         [ -1.328550,   1.263168,   0.012130]
    <r_h> [Ang]:                        [ -1.560092,  -0.065922,   0.002085]
    <r_e> [Ang]:                        [ -1.560326,  -0.065725,   0.002332]
    |<r_e - r_h>| [Ang]:                  0.000393
    Hole size [Ang]:                      1.214316
      Cartesian components [Ang]:       [  0.649901,   0.636680,   0.804257]
    Electron size [Ang]:                  1.486001
      Cartesian components [Ang]:       [  0.864476,   0.839382,   0.869666]
    RMS electron-hole separation [Ang]:   1.936764
      Cartesian components [Ang]:       [  1.106931,   1.075246,   1.170301]
    Covariance(r_h, r_e) [Ang^2]:        -0.034146
    Correlation coefficient:             -0.018923
    Center-of-mass size [Ang]:            0.950588
      Cartesian components [Ang]:       [  0.527751,   0.515677,   0.599311]

  Decomposition into state-averaged NTOs
    H- 0 -> L+ 0: -0.6698 ( 89.7%)
    H- 2 -> L+ 5:  0.0836 (  1.4%)
                   omega =  95.4%
  ----------------------------------------------------------------------------


  Excited state 2 (singlet, A)                                     [converged]
  ----------------------------------------------------------------------------
  Term symbol:  3 (1) A                                     R^2 =  7.76463e-14

  Total energy:                                            -77.9868943695 a.u.
  Excitation energy:                                               9.054368 eV

  Osc. strength:                                                      0.000227
  Trans. dip. moment [a.u.]:           [   0.023342,   -0.021664,    0.002933]
  <i|r^2|0> [a.u.]:                    [   0.074004,   -0.094823,    0.153074]
  Two-photon absorption cross-section (SoS) [a.u.]:                   4.898833
  Two-photon absorption matrix (SoS) [a.u.]:
                                       |   -0.050009   -0.059663    0.541225 |
                                       |   -0.059663   -0.069312    0.552289 |
                                       |    0.541225    0.552289    0.119958 |
  Two-photon absorption cross-section [a.u.]:                         0.077088
  Two-photon absorption matrix [a.u.]:
                                       |    0.014855    0.007598   -0.058423 |
                                       |    0.007598    0.000225   -0.077094 |
                                       |   -0.058423   -0.077094   -0.014911 |

  Dip. moment [a.u.]:                  [  -0.003387,    0.010387,   -0.001611]
  Total dipole [Debye]:                                               0.028069
  <r^2> [a.u.]:                        [ 174.525001,   33.974520,   13.173494]
  Total <r^2> [a.u.]:                                               221.673016

  V1^2 = 0.9542, V2^2 = 0.0458

  Important amplitudes:
      occ i     occ j     vir a      vir b          v   
    -----------------------------------------------------
     7 (A) A              9 (A) A                -0.6691
     8 (A) A             11 (A) A                 0.1483
     7 (A) A             20 (A) A                 0.0759
     5 (A) A   8 (A) B    9 (A) A    9 (A) B     -0.0316
     8 (A) A             16 (A) A                -0.0273
     8 (A) A             21 (A) A                 0.0176
     5 (A) A             28 (A) A                 0.0150
     4 (A) A   7 (A) B    9 (A) A   19 (A) B      0.0135
     5 (A) A   7 (A) B    9 (A) A   16 (A) B     -0.0134
     8 (A) A              9 (A) A                -0.0131
     7 (A) A   8 (A) B   20 (A) A   17 (A) B     -0.0105
     7 (A) A   8 (A) A    9 (A) A   28 (A) A      0.0097
     5 (A) A   8 (A) B    9 (A) A   20 (A) B      0.0096
     4 (A) A   6 (A) B    9 (A) A   16 (A) B     -0.0091
     5 (A) A   6 (A) A    9 (A) A   23 (A) A      0.0091
     5 (A) A   6 (A) A    9 (A) A   14 (A) A      0.0089
     5 (A) A   6 (A) B    9 (A) A   19 (A) B      0.0087
     8 (A) A   7 (A) B    9 (A) A   28 (A) B     -0.0085
     4 (A) A   5 (A) A    9 (A) A   10 (A) A     -0.0085
     6 (A) A   7 (A) B    9 (A) A   18 (A) B      0.0083
     5 (A) A   6 (A) B    9 (A) A   23 (A) B      0.0080
     3 (A) A   7 (A) B    9 (A) A   18 (A) B     -0.0080
     5 (A) A   7 (A) A    9 (A) A   16 (A) A     -0.0079
     4 (A) A   8 (A) B    9 (A) A   25 (A) B     -0.0077
     7 (A) A   8 (A) B   17 (A) A   20 (A) B     -0.0074
     4 (A) A   7 (A) B   19 (A) A    9 (A) B      0.0074
     5 (A) A   5 (A) B    9 (A) A   13 (A) B      0.0072
     7 (A) A   8 (A) B   19 (A) A   18 (A) B      0.0072
     5 (A) A   8 (A) A    9 (A) A   20 (A) A      0.0069
     4 (A) A   5 (A) B    9 (A) A   18 (A) B      0.0068
     7 (A) A   7 (A) B   20 (A) A   22 (A) B     -0.0065
     7 (A) A   8 (A) B   17 (A) A    9 (A) B      0.0065
     5 (A) A   6 (A) B    9 (A) A   14 (A) B      0.0063
     8 (A) A             10 (A) A                -0.0062
     4 (A) A   7 (A) A    9 (A) A   19 (A) A      0.0061
     4 (A) A   5 (A) B   10 (A) A    9 (A) B      0.0061
     5 (A) A             38 (A) A                -0.0060
     5 (A) A   7 (A) B   11 (A) A   20 (A) B     -0.0060
     4 (A) A   7 (A) B    9 (A) A   14 (A) B     -0.0060
     4 (A) A   8 (A) A    9 (A) A   25 (A) A     -0.0057
    -----------------------------------------------------

  Density matrix analysis:
  ------------------------
  NOs
    Occupation of frontier NOs:
       0.9579   1.0538
    Number of electrons: 16.000000
    Number of unpaired electrons: n_u =  2.35532, n_u,nl =  2.06281
    NO participation ratio (PR_NO):  3.027864
  
  
  Mulliken Population Analysis
  Atom      Charge (e)              h+              e-           Del q
  --------------------------------------------------------------------
   1 H        0.149063        0.121490       -0.023377        0.098113
   2 C       -0.301752        0.270908       -0.471939       -0.201031
   3 H        0.151845        0.126988       -0.025686        0.101301
   4 C       -0.302467        0.273221       -0.474129       -0.200907
   5 H        0.154502        0.127753       -0.023400        0.104353
   6 H        0.148810        0.123549       -0.025378        0.098171
  --------------------------------------------------------------------
  Sum:       -0.000000        1.043909       -1.043909       -0.000000
  
  Multipole moment analysis of the density matrix
    Molecular charge:                      -0.000000
    Number of electrons:                   16.000000
      Center of electronic charge [Ang]: [ -1.560464,  -0.065946,   0.001719]
    Total nuclear charge:                  16.000000
      Center of nuclear charge [Ang]:    [ -1.560576,  -0.065602,   0.001666]
    Dipole moment [D]:                     0.028069
      Cartesian components [D]:          [ -0.008608,   0.026400,  -0.004096]
    RMS size of the density [Ang]:         1.200114
      Cartesian components [Ang]:        [  0.787051,   0.768288,   0.480163]
  
  Exciton analysis of the difference density matrix
    <r_h> [Ang]:                  [ -1.565315,  -0.063069,   0.001501]
    <r_e> [Ang]:                  [ -1.563885,  -0.068013,   0.001863]
    |<r_e - r_h>| [Ang]:            0.005159
    Hole size [Ang]:                1.486260
      Cartesian components [Ang]: [  0.999417,   1.001644,   0.454802]
    Electron size [Ang]:            1.477189
      Cartesian components [Ang]: [  0.881533,   0.859340,   0.816408]

  Transition density matrix analysis:
  -----------------------------------
  
  CT numbers (Mulliken)
    omega =     0.9218
    <Phe> =    -0.0122
  
  Exciton analysis of the transition density matrix
    Trans. dipole moment [D]:             0.040643
      Cartesian components [D]:         [  0.029664,  -0.027532,   0.003728]
    <r_h> [Ang]:                        [ -1.565972,  -0.062453,   0.001356]
    <r_e> [Ang]:                        [ -1.563500,  -0.068655,   0.001978]
    |<r_e - r_h>| [Ang]:                  0.006706
    Hole size [Ang]:                      1.514854
      Cartesian components [Ang]:       [  1.022013,   1.026024,   0.444464]
    Electron size [Ang]:                  1.474265
      Cartesian components [Ang]:       [  0.872170,   0.848664,   0.832193]
    RMS electron-hole separation [Ang]:   2.094025
      Cartesian components [Ang]:       [  1.327721,   1.316597,   0.942692]
    Covariance(r_h, r_e) [Ang^2]:         0.041673
    Correlation coefficient:              0.018660
    Center-of-mass size [Ang]:            1.066722
      Cartesian components [Ang]:       [  0.679623,   0.673149,   0.472101]

  Decomposition into state-averaged NTOs
    H- 1 -> L+ 0:  0.6614 ( 87.5%)
    H- 0 -> L+ 2: -0.1482 (  4.4%)
                   omega =  92.2%
  ----------------------------------------------------------------------------


  Excited state 3 (singlet, A)                                     [converged]
  ----------------------------------------------------------------------------
  Term symbol:  4 (1) A                                     R^2 =  6.73601e-14

  Total energy:                                            -77.9826341471 a.u.
  Excitation energy:                                               9.170295 eV

  Osc. strength:                                                      0.025173
  Trans. dip. moment [a.u.]:           [  -0.018069,   -0.018324,    0.333742]
  <i|r^2|0> [a.u.]:                    [  -0.118773,    0.007526,   -0.002952]
  Two-photon absorption cross-section (SoS) [a.u.]:                   0.053636
  Two-photon absorption matrix (SoS) [a.u.]:
                                       |   -0.079922   -0.004775    0.007850 |
                                       |   -0.004775    0.080249    0.011048 |
                                       |    0.007850    0.011048    0.010488 |
  Two-photon absorption cross-section [a.u.]:                         0.029845
  Two-photon absorption matrix [a.u.]:
                                       |   -0.055276   -0.005169    0.012493 |
                                       |   -0.005169    0.061255    0.008462 |
                                       |    0.012493    0.008462    0.007423 |

  Dip. moment [a.u.]:                  [   0.004552,    0.012780,    0.002205]
  Total dipole [Debye]:                                               0.034936
  <r^2> [a.u.]:                        [ 180.890003,   40.606728,   11.031414]
  Total <r^2> [a.u.]:                                               232.528145

  V1^2 = 0.9587, V2^2 = 0.0413

  Important amplitudes:
      occ i     occ j     vir a      vir b          v   
    -----------------------------------------------------
     8 (A) A             10 (A) A                -0.6891
     8 (A) A             24 (A) A                -0.0507
     8 (A) A             18 (A) A                 0.0313
     4 (A) A              9 (A) A                -0.0238
     8 (A) A   8 (A) B    9 (A) A   12 (A) B      0.0219
     8 (A) A   8 (A) B   10 (A) A   17 (A) B     -0.0173
     8 (A) A             15 (A) A                -0.0169
     5 (A) A   8 (A) B   11 (A) A   10 (A) B     -0.0165
     7 (A) A   8 (A) B   13 (A) A   10 (A) B      0.0141
     4 (A) A   8 (A) B   12 (A) A   10 (A) B      0.0111
     6 (A) A   8 (A) A   10 (A) A   15 (A) A      0.0110
     7 (A) A   8 (A) B   22 (A) A   10 (A) B     -0.0108
     6 (A) A   8 (A) B   15 (A) A   10 (A) B     -0.0108
     4 (A) A   8 (A) A   10 (A) A   12 (A) A     -0.0106
     7 (A) A   8 (A) A   10 (A) A   22 (A) A      0.0099
     7 (A) A   8 (A) A   10 (A) A   13 (A) A     -0.0097
     5 (A) A   8 (A) B   21 (A) A   10 (A) B     -0.0094
     5 (A) A   8 (A) A   10 (A) A   11 (A) A      0.0094
     6 (A) A   8 (A) A   10 (A) A   18 (A) A      0.0088
     6 (A) A   8 (A) B   10 (A) A   10 (A) B      0.0087
     7 (A) A   8 (A) A   12 (A) A   16 (A) A     -0.0082
     5 (A) A   8 (A) A   10 (A) A   21 (A) A      0.0080
     3 (A) A   4 (A) B   10 (A) A    9 (A) B      0.0079
     4 (A) A   8 (A) B   19 (A) A   10 (A) B     -0.0075
     8 (A) A   8 (A) B    9 (A) A   23 (A) B      0.0075
     8 (A) A   8 (A) B   10 (A) A   28 (A) B     -0.0073
     3 (A) A   8 (A) B   10 (A) A   10 (A) B     -0.0072
     5 (A) A   8 (A) B   10 (A) A   11 (A) B     -0.0071
     3 (A) A   8 (A) A   10 (A) A   24 (A) A      0.0071
     7 (A) A   8 (A) B   16 (A) A   12 (A) B      0.0070
     3 (A) A   8 (A) B   10 (A) A   18 (A) B      0.0069
     8 (A) A   8 (A) B    9 (A) A   19 (A) B     -0.0068
     6 (A) A   8 (A) B   18 (A) A   10 (A) B     -0.0067
     7 (A) A              9 (A) A                 0.0064
     3 (A) A   6 (A) B   10 (A) A   28 (A) B     -0.0062
     7 (A) A   8 (A) B   12 (A) A   11 (A) B     -0.0058
     6 (A) A             28 (A) A                 0.0057
     3 (A) A   5 (A) B   10 (A) A   25 (A) B      0.0056
     5 (A) A   8 (A) A   10 (A) A   16 (A) A     -0.0056
     3 (A) A   8 (A) A   10 (A) A   18 (A) A      0.0056
    -----------------------------------------------------

  Density matrix analysis:
  ------------------------
  NOs
    Occupation of frontier NOs:
       0.9815   0.9849
    Number of electrons: 16.000000
    Number of unpaired electrons: n_u =  2.28539, n_u,nl =  2.02443
    NO participation ratio (PR_NO):  2.692219
  
  
  Mulliken Population Analysis
  Atom      Charge (e)              h+              e-           Del q
  --------------------------------------------------------------------
   1 H       -0.162107        0.053924       -0.266981       -0.213057
   2 C        0.327564        0.538712       -0.110428        0.428285
   3 H       -0.166122        0.053724       -0.270390       -0.216665
   4 C        0.326584        0.537637       -0.109494        0.428144
   5 H       -0.162263        0.053992       -0.266404       -0.212412
   6 H       -0.163656        0.053859       -0.268154       -0.214295
  --------------------------------------------------------------------
  Sum:       -0.000000        1.291849       -1.291849       -0.000000
  
  Multipole moment analysis of the density matrix
    Molecular charge:                      -0.000000
    Number of electrons:                   16.000000
      Center of electronic charge [Ang]: [ -1.560727,  -0.066025,   0.001593]
    Total nuclear charge:                  16.000000
      Center of nuclear charge [Ang]:    [ -1.560576,  -0.065602,   0.001666]
    Dipole moment [D]:                     0.034936
      Cartesian components [D]:          [  0.011570,   0.032485,   0.005603]
    RMS size of the density [Ang]:         1.276490
      Cartesian components [Ang]:        [  0.854418,   0.840435,   0.439394]
  
  Exciton analysis of the difference density matrix
    <r_h> [Ang]:                  [ -1.560182,  -0.066004,   0.001943]
    <r_e> [Ang]:                  [ -1.562279,  -0.070980,   0.000672]
    |<r_e - r_h>| [Ang]:            0.005547
    Hole size [Ang]:                1.410260
      Cartesian components [Ang]: [  0.834042,   0.819806,   0.788116]
    Electron size [Ang]:            2.076010
      Cartesian components [Ang]: [  1.373318,   1.376794,   0.726811]

  Transition density matrix analysis:
  -----------------------------------
  
  CT numbers (Mulliken)
    omega =     0.9259
    <Phe> =    -0.0109
  
  Exciton analysis of the transition density matrix
    Trans. dipole moment [D]:             0.425402
      Cartesian components [D]:         [ -0.022963,  -0.023287,   0.424143]
    <r_h> [Ang]:                        [ -1.559721,  -0.065646,   0.002236]
    <r_e> [Ang]:                        [ -1.562747,  -0.072819,   0.000309]
    |<r_e - r_h>| [Ang]:                  0.008021
    Hole size [Ang]:                      1.212957
      Cartesian components [Ang]:       [  0.636567,   0.623538,   0.822950]
    Electron size [Ang]:                  2.296371
      Cartesian components [Ang]:       [  1.517942,   1.524295,   0.803554]
    RMS electron-hole separation [Ang]:   2.587138
      Cartesian components [Ang]:       [  1.638522,   1.639929,   1.148548]
    Covariance(r_h, r_e) [Ang^2]:         0.025683
    Correlation coefficient:              0.009221
    Center-of-mass size [Ang]:            1.303452
      Cartesian components [Ang]:       [  0.826738,   0.826927,   0.575919]

  Decomposition into state-averaged NTOs
    H- 0 -> L+ 1: -0.6797 ( 92.4%)
                   omega =  92.6%
  ----------------------------------------------------------------------------


  Excited state 4 (singlet, A)                                     [converged]
  ----------------------------------------------------------------------------
  Term symbol:  5 (1) A                                     R^2 =  1.62147e-13

  Total energy:                                            -77.9582853828 a.u.
  Excitation energy:                                               9.832858 eV

  Osc. strength:                                                      0.000037
  Trans. dip. moment [a.u.]:           [  -0.008886,    0.008482,   -0.001723]
  <i|r^2|0> [a.u.]:                    [  -0.069997,   -0.017180,    0.036908]
  Two-photon absorption cross-section (SoS) [a.u.]:                 149.506753
  Two-photon absorption matrix (SoS) [a.u.]:
                                       |   -0.282899   -0.329906    3.013610 |
                                       |   -0.329906   -0.377876    3.027830 |
                                       |    3.013610    3.027830    0.661054 |
  Two-photon absorption cross-section [a.u.]:                        91.824995
  Two-photon absorption matrix [a.u.]:
                                       |   -0.214181   -0.258048    2.357662 |
                                       |   -0.258048   -0.303463    2.376920 |
                                       |    2.357662    2.376920    0.518144 |

  Dip. moment [a.u.]:                  [  -0.016106,   -0.011395,   -0.000078]
  Total dipole [Debye]:                                               0.050148
  <r^2> [a.u.]:                        [ 181.219949,   40.514327,   10.768610]
  Total <r^2> [a.u.]:                                               232.502886

  V1^2 = 0.9635, V2^2 = 0.0365

  Important amplitudes:
      occ i     occ j     vir a      vir b          v   
    -----------------------------------------------------
     8 (A) A             11 (A) A                 0.6697
     7 (A) A              9 (A) A                 0.1503
     8 (A) A             21 (A) A                 0.0781
     8 (A) A             16 (A) A                -0.0646
     8 (A) A   8 (A) B    9 (A) A   13 (A) B      0.0167
     5 (A) A   8 (A) B   11 (A) A   11 (A) B      0.0155
     8 (A) A   8 (A) B   11 (A) A   17 (A) B      0.0140
     7 (A) A             20 (A) A                -0.0137
     7 (A) A   8 (A) B   13 (A) A   11 (A) B     -0.0127
     8 (A) A             12 (A) A                 0.0119
     5 (A) A   8 (A) A   11 (A) A   21 (A) A     -0.0110
     4 (A) A   8 (A) B   12 (A) A   11 (A) B     -0.0110
     8 (A) A   8 (A) B    9 (A) A   22 (A) B     -0.0107
     7 (A) A   8 (A) A   11 (A) A   22 (A) A     -0.0096
     6 (A) A   8 (A) B   15 (A) A   11 (A) B      0.0090
     6 (A) A   8 (A) B   10 (A) A   11 (A) B     -0.0090
     7 (A) A   8 (A) B   22 (A) A   11 (A) B      0.0089
     3 (A) A   4 (A) B   11 (A) A    9 (A) B     -0.0083
     3 (A) A   8 (A) B   11 (A) A   18 (A) B     -0.0081
     6 (A) A   8 (A) A   11 (A) A   15 (A) A     -0.0080
     7 (A) A   8 (A) A   13 (A) A   16 (A) A     -0.0078
     6 (A) A              9 (A) A                -0.0077
     7 (A) A   8 (A) A   11 (A) A   13 (A) A      0.0077
     5 (A) A   8 (A) B   21 (A) A   11 (A) B      0.0071
     4 (A) A   8 (A) B   19 (A) A   11 (A) B      0.0070
     5 (A) A   8 (A) B    9 (A) A    9 (A) B      0.0068
     4 (A) A   8 (A) A   11 (A) A   12 (A) A      0.0062
     6 (A) A   8 (A) A   11 (A) A   18 (A) A     -0.0062
     3 (A) A   6 (A) B   11 (A) A   28 (A) B      0.0060
     6 (A) A   8 (A) B   18 (A) A   11 (A) B      0.0060
     7 (A) A   8 (A) B   16 (A) A   13 (A) B      0.0057
     3 (A) A   8 (A) A   11 (A) A   18 (A) A     -0.0056
     5 (A) A   8 (A) B   10 (A) A   10 (A) B      0.0056
     3 (A) A   8 (A) B   11 (A) A   30 (A) B     -0.0055
     3 (A) A   5 (A) B   11 (A) A   25 (A) B     -0.0055
     6 (A) A   8 (A) B   11 (A) A   10 (A) B     -0.0054
     7 (A) A   8 (A) B   12 (A) A   10 (A) B      0.0054
     8 (A) A   8 (A) B   20 (A) A   22 (A) B      0.0053
     3 (A) A   8 (A) A   11 (A) A   24 (A) A     -0.0053
     5 (A) A   8 (A) A   11 (A) A   16 (A) A      0.0048
    -----------------------------------------------------

  Density matrix analysis:
  ------------------------
  NOs
    Occupation of frontier NOs:
       0.9407   1.0278
    Number of electrons: 16.000000
    Number of unpaired electrons: n_u =  2.31916, n_u,nl =  2.04914
    NO participation ratio (PR_NO):  2.914729
  
  
  Mulliken Population Analysis
  Atom      Charge (e)              h+              e-           Del q
  --------------------------------------------------------------------
   1 H       -0.147832        0.045775       -0.244557       -0.198782
   2 C        0.274904        0.497098       -0.121474        0.375625
   3 H       -0.127203        0.046948       -0.224695       -0.177747
   4 C        0.272994        0.496816       -0.122262        0.374553
   5 H       -0.131203        0.047085       -0.228437       -0.181352
   6 H       -0.141658        0.045827       -0.238124       -0.192297
  --------------------------------------------------------------------
  Sum:       -0.000000        1.179548       -1.179548       -0.000000
  
  Multipole moment analysis of the density matrix
    Molecular charge:                      -0.000000
    Number of electrons:                   16.000000
      Center of electronic charge [Ang]: [ -1.560044,  -0.065225,   0.001668]
    Total nuclear charge:                  16.000000
      Center of nuclear charge [Ang]:    [ -1.560576,  -0.065602,   0.001666]
    Dipole moment [D]:                     0.050148
      Cartesian components [D]:          [ -0.040938,  -0.028963,  -0.000198]
    RMS size of the density [Ang]:         1.277193
      Cartesian components [Ang]:        [  0.859032,   0.839535,   0.434128]
  
  Exciton analysis of the difference density matrix
    <r_h> [Ang]:                  [ -1.560022,  -0.065316,   0.002035]
    <r_e> [Ang]:                  [ -1.553051,  -0.059919,   0.001668]
    |<r_e - r_h>| [Ang]:            0.008824
    Hole size [Ang]:                1.394853
      Cartesian components [Ang]: [  0.818346,   0.806854,   0.790513]
    Electron size [Ang]:            2.124115
      Cartesian components [Ang]: [  1.442429,   1.403731,   0.678826]

  Transition density matrix analysis:
  -----------------------------------
  
  CT numbers (Mulliken)
    omega =     0.9298
    <Phe> =    -0.0135
  
  Exciton analysis of the transition density matrix
    Trans. dipole moment [D]:             0.015764
      Cartesian components [D]:         [ -0.011293,   0.010779,  -0.002189]
    <r_h> [Ang]:                        [ -1.560457,  -0.065672,   0.002169]
    <r_e> [Ang]:                        [ -1.551767,  -0.058711,   0.001651]
    |<r_e - r_h>| [Ang]:                  0.011147
    Hole size [Ang]:                      1.227965
      Cartesian components [Ang]:       [  0.657921,   0.650320,   0.807540]
    Electron size [Ang]:                  2.262161
      Cartesian components [Ang]:       [  1.536834,   1.495151,   0.721136]
    RMS electron-hole separation [Ang]:   2.563295
      Cartesian components [Ang]:       [  1.663199,   1.622687,   1.082191]
    Covariance(r_h, r_e) [Ang^2]:         0.027457
    Correlation coefficient:              0.009884
    Center-of-mass size [Ang]:            1.292303
      Cartesian components [Ang]:       [  0.840132,   0.819103,   0.541567]

  Decomposition into state-averaged NTOs
    H- 0 -> L+ 2: -0.6650 ( 88.4%)
    H- 1 -> L+ 0: -0.1483 (  4.4%)
                   omega =  93.0%
  ----------------------------------------------------------------------------


  Excited state 5 (singlet, A)                                     [converged]
  ----------------------------------------------------------------------------
  Term symbol:  6 (1) A                                     R^2 =  2.96678e-13

  Total energy:                                            -77.9443628978 a.u.
  Excitation energy:                                              10.211709 eV

  Osc. strength:                                                      0.000001
  Trans. dip. moment [a.u.]:           [   0.000906,    0.001405,    0.000506]
  <i|r^2|0> [a.u.]:                    [   0.095265,   -0.104643,    0.014368]
  Two-photon absorption cross-section (SoS) [a.u.]:                 178.140840
  Two-photon absorption matrix (SoS) [a.u.]:
                                       |    0.316839    0.044205   -3.345110 |
                                       |    0.044205   -0.407019    3.307607 |
                                       |   -3.345110    3.307607    0.070857 |
[...]
    16   -1.492929584344e-03
    17   -1.709774288804e-03
    18   -1.051400161701e-04
    19   -3.315011820732e-03
    20    1.084867022568e-02
    21    9.352769442770e-01
    22   -2.675095958251e-04
    23    1.399107141690e-02
    24    7.930901701995e-04
    25    7.027911768838e-02
    26   -5.229129627463e-02
    27   -1.399094285957e+00
    28    9.799475847913e-02
    29   -9.266347760882e-02
    30   -2.625067973727e-04
    31    3.849418490762e-01
    32   -3.625101659471e-01
    33   -9.091163308048e-04
    34    1.561027269165e-02
    35   -1.623675840516e-03
    36   -1.788266905822e-03
    37   -2.724908957728e-05
    38   -3.129033400513e-03
    39    9.891485132905e-03
    40    9.318058247830e-01
    41    2.500093361022e-04
    42   -1.392892398972e-02
    43   -8.192643242607e-04
    44    1.014575210156e-02
    45    9.401425874179e-01
    46    1.411610221210e-02
    47    3.688441366953e-04
    48    7.641404787589e-04
Sym=X
Ene= 0.232950
Spin=Alpha
Occup=0
     1    2.621948165367e-02
     2    1.236062941315e+00
     3   -1.435330133179e-02
     4   -3.836809747641e-03
     5   -8.917484702851e-04
     6    3.219043853343e-03
     7   -3.608971542114e-03
     8   -5.152039486290e-02
     9   -1.549875490468e-01
    10   -1.584460252389e-01
    11   -1.627307617000e-02
    12   -5.570199445077e-01
    13   -5.576066954031e-01
    14   -5.734257907345e-02
    15    5.653466929026e-04
    16   -6.220157528934e-05
    17   -1.231114099794e-04
    18   -2.073665610607e-04
    19   -3.705106598209e-04
    20   -2.503726109531e-02
    21   -1.157857121600e+00
    22   -2.482134027975e-03
    23   -1.353166191466e-02
    24   -8.824228740541e-04
    25   -2.856985238404e-03
    26    3.311444343705e-03
    27    4.180685125752e-02
    28   -1.539768941056e-01
    29   -1.589383864290e-01
    30   -1.784304306743e-02
    31   -5.479596268653e-01
    32   -5.551927366005e-01
    33   -6.331653940867e-02
    34   -4.941309200882e-04
    35    1.661305541457e-04
    36    5.711505420579e-05
    37    3.777931181375e-04
    38    3.455084133312e-04
    39    2.500718612871e-02
    40    1.157215564079e+00
    41   -2.451761045020e-03
    42   -1.360460841882e-02
    43   -9.696532372888e-04
    44   -2.628164809852e-02
    45   -1.223148116271e+00
    46   -1.423734642914e-02
    47   -3.771207736687e-03
    48   -9.769444512231e-04
Sym=X
Ene= 0.239404
Spin=Alpha
Occup=0
     1   -1.596910281885e-02
     2   -1.049404581402e+00
     3    1.649989698400e-02
     4    9.097901235495e-03
     5    1.325097529110e-03
     6   -8.651583339405e-02
     7    7.974834881209e-02
     8    1.593349863899e+00
     9    5.295397562054e-02
    10   -6.089971743086e-02
    11   -1.254229532721e-03
    12    2.103281232397e-01
    13   -2.366182239597e-01
    14   -4.865454618671e-03
    15   -2.254747814995e-02
    16    2.602251817208e-03
    17    3.016855591449e-03
    18   -5.123957433206e-04
    19    1.286867569417e-02
    20   -1.702531658559e-02
    21   -1.126873914802e+00
    22   -8.543364890820e-03
    23   -1.779270986396e-02
    24   -1.478990313523e-03
    25    8.642476965587e-02
    26   -7.930577462556e-02
    27   -1.595559389354e+00
    28    5.311606313162e-02
    29   -6.144256276348e-02
    30   -5.703271546884e-04
    31    2.099487169290e-01
    32   -2.418691156451e-01
    33   -2.240699993012e-03
    34    2.258485358907e-02
    35   -2.720278738431e-03
    36   -3.027832638526e-03
    37    7.463658426749e-04
    38   -1.278011320077e-02
    39    1.688758277208e-02
    40    1.132484056438e+00
    41   -8.619074390537e-03
    42   -1.792049220196e-02
    43   -1.472044416866e-03
    44    1.562789331300e-02
    45    1.046151327712e+00
    46    1.638763677880e-02
    47    9.254337361918e-03
    48    1.406717195944e-03
Sym=X
Ene= 0.303258
Spin=Alpha
Occup=0
     1   -2.077035207552e-02
     2    1.691457640233e+00
     3   -2.291397938229e-02
     4    2.751445154231e-04
     5   -1.046776809408e-03
     6   -2.135453632567e-04
     7    1.811398066243e-04
     8    2.366916039179e-03
     9   -1.339168178254e-01
    10   -1.396153471555e-01
    11   -1.446277698745e-02
    12   -1.144275689450e+00
    13   -1.193707089855e+00
    14   -1.259186141677e-01
    15   -1.225767033913e-04
    16   -1.617428358387e-03
    17    1.914270202183e-03
    18   -3.265829603883e-02
    19   -1.584069492605e-03
    20    1.998056344104e-02
    21   -1.690143765723e+00
    22    1.428049465537e-03
    23   -2.290973732609e-02
    24   -1.294252787850e-03
    25    8.777117568026e-05
    26    2.651500061680e-04
    27   -8.316250166987e-03
    28    1.346557364489e-01
    29    1.402108694297e-01
    30    1.542948991879e-02
    31    1.139427767892e+00
    32    1.197464625593e+00
    33    1.289217412687e-01
    34    3.391506163271e-05
    35   -1.799967841616e-03
    36    1.792718875440e-03
    37   -3.249593113117e-02
    38   -1.667514780915e-03
    39    1.960784762234e-02
    40   -1.691949240085e+00
    41   -1.607578024914e-03
    42    2.283527505468e-02
    43    1.308385419607e-03
    44   -2.008618593670e-02
    45    1.697909504718e+00
    46    2.304057417144e-02
    47   -3.598555248147e-04
    48    1.150330894745e-03
Sym=X
Ene= 0.462030
Spin=Alpha
Occup=0
     1   -1.155305817833e-01
     2   -7.144039351830e-01
     3   -1.567568024119e-02
     4   -1.032299957598e-02
     5   -1.337098527743e-03
     6    6.079815583113e-02
     7    1.738359971680e-02
     8   -3.591804400600e+00
     9    1.030113010244e-01
    10   -9.903045644227e-02
    11   -8.179605516806e-04
    12    2.426085344947e+00
    13   -2.302862459006e+00
    14   -2.211817736464e-02
    15    5.366023776077e-02
    16   -3.405314135289e-03
    17   -4.503378620535e-03
    18   -7.664607504708e-04
    19    1.800950305573e-02
    20   -1.211176883638e-01
    21   -7.022309820131e-01
    22    8.720331451614e-03
    23    1.637878842735e-02
    24    1.355276207180e-03
    25   -6.094463165751e-02
    26   -1.630233943716e-02
    27    3.591620890284e+00
    28    1.051204162226e-01
    29   -1.004500343246e-01
    30   -3.545748076671e-04
    31    2.422421759120e+00
    32   -2.298512098582e+00
    33   -2.000753409296e-02
    34   -5.269538149297e-02
    35    3.486136152772e-03
    36    4.685312672624e-03
    37    6.683562445354e-04
    38   -1.905134482452e-02
    39    1.152514172661e-01
    40    7.093090287344e-01
    41    8.587501965320e-03
    42    1.624657771476e-02
    43    1.456548888796e-03
    44    1.109962198235e-01
    45    7.173104265098e-01
    46   -1.545631334202e-02
    47   -9.937203919987e-03
    48   -1.385095243410e-03
Sym=X
Ene= 0.577493
Spin=Alpha
Occup=0
     1    2.470427104091e-01
     2    4.101019455215e-02
     3   -1.845815719526e-02
     4    2.571235569673e-02
     5    6.410734110874e-04
     6   -4.459143136865e-03
     7   -1.571547760048e-01
     8   -4.656166389026e-01
     9    2.987535687572e-01
    10   -2.878857961534e-01
    11   -2.815456243795e-03
    12   -7.200624392330e-01
    13    6.966577933101e-01
    14    6.477528365642e-03
    15   -5.886587628485e-03
    16    3.900106443933e-03
    17    3.832575836754e-03
    18   -4.340073472674e-03
    19    6.023492724886e-02
    20    2.553758847544e-01
    21    2.940087986892e-02
    22   -2.642495134571e-02
    23    1.645416376235e-02
    24   -2.873074816465e-04
    25   -5.623983074906e-03
    26   -1.578560714750e-01
    27   -4.098823884913e-01
    28   -2.973962950434e-01
    29    2.851885075915e-01
    30    2.809825005876e-03
    31    7.619832958175e-01
    32   -7.328214446636e-01
    33   -6.173384803062e-03
    34   -5.877544579826e-03
    35    3.954627510407e-03
    36    3.808976944049e-03
    37   -3.749918162139e-03
    38    6.019081785897e-02
    39    2.507920044449e-01
    40    4.989921608646e-02
    41    2.721331700459e-02
    42   -1.700616403811e-02
    43    3.518546166845e-04
    44    2.491670915616e-01
    45    5.545478988603e-02
    46    1.843658357345e-02
    47   -2.589671348037e-02
    48   -6.257885163555e-04
Sym=X
Ene= 0.615166
Spin=Alpha
Occup=0
     1   -5.222419907086e-01
     2    2.001332911581e-01
     3   -6.134831883174e-02
     4    3.762399339306e-02
     5   -7.563482907061e-04
     6   -5.908978120896e-04
     7    1.054959476565e-04
     8   -1.615934541687e-02
     9   -4.038848070989e-02
    10   -3.852562719974e-02
    11   -4.504415160291e-03
    12    3.048435749591e-01
    13    2.796494501065e-01
    14    2.971369807274e-02
    15    1.882631615156e-03
    16   -7.633449989515e-03
    17    8.426641565753e-03
    18   -1.479875928595e-01
    19   -6.451898262494e-03
    20    5.082076640652e-01
    21   -2.047944466507e-01
    22    4.178387005682e-02
    23   -5.846315145480e-02
    24   -1.553569281672e-03
    25    4.130463894962e-04
    26   -1.116731144799e-03
    27    2.471203987266e-02
    28   -3.986889491437e-02
    29   -4.023959470094e-02
    30   -4.125552025282e-03
    31    3.026877545290e-01
    32    2.897558762019e-01
    33    3.404959357888e-02
    34   -1.404507633852e-03
    35    8.068160685339e-03
    36   -8.265355942368e-03
    37    1.491492621046e-01
    38    6.309655603437e-03
    39   -5.147939111494e-01
    40    2.071634304408e-01
    41    4.092823109318e-02
    42   -5.859942850060e-02
    43   -1.381963654583e-03
    44    5.219972313554e-01
    45   -2.049905771403e-01
    46   -6.148827276922e-02
    47    3.763140778053e-02
    48   -7.738245526700e-04
Sym=X
Ene= 0.689149
Spin=Alpha
Occup=0
     1   -1.092106808158e-03
     2    4.693888117992e-04
     3    8.127135981514e-04
     4    1.019449303665e-03
     5   -2.103258893371e-02
     6   -6.021540450874e-05
     7   -5.035463868012e-04
     8   -2.913811382436e-04
     9    3.211007506032e-02
    10    3.918155077879e-02
    11   -6.703625378589e-01
    12   -2.766284726534e-02
    13   -3.682817459591e-02
    14    6.136155120835e-01
    15   -1.010615688027e-03
    16    8.261065610335e-02
    17   -7.835731884084e-02
    18   -8.999885724537e-03
    19   -1.386652201219e-03
    20   -7.491609963133e-04
    21   -1.055232963725e-03
    22    9.875415529158e-04
    23    1.307985445604e-03
    24   -2.092324560558e-02
    25   -1.131586816290e-05
    26   -9.817517456593e-04
    27    1.170911790058e-03
    28    3.337471647589e-02
    29    4.109804814670e-02
    30   -6.699847408171e-01
    31   -2.946632115967e-02
    32   -3.929772978170e-02
    33    6.130563129246e-01
    34    1.497171297239e-03
    35   -8.277743403675e-02
    36    7.842892845657e-02
    37    8.456551108688e-03
    38    1.180999662415e-03
    39    6.402570556142e-05
    40    3.930963859906e-04
    41    1.174835136656e-03
    42    1.106848431143e-03
    43   -2.107546629155e-02
    44   -2.711908906648e-04
    45    1.938909226737e-03
    46    1.349168384261e-03
    47    1.390922163199e-03
    48   -2.096498837935e-02
Sym=X
Ene= 0.708860
Spin=Alpha
Occup=0
     1   -4.754762163432e-01
     2    1.579819228069e-01
     3   -8.068955119762e-02
     4   -4.423957995364e-02
     5   -6.381342819833e-03
     6   -4.776595722024e-02
     7   -3.200118145380e-01
     8    5.083205496072e-01
     9    2.036458936827e-01
    10   -1.924800508481e-01
    11   -7.704168754757e-04
    12   -9.728546615404e-02
    13    8.085821306035e-02
    14    1.280836411014e-04
    15    1.939470175355e-01
    16   -2.064833847707e-02
    17   -2.398074939405e-02
    18    3.122240348586e-03
    19   -7.739057271549e-02
    20   -4.780092359247e-01
    21    1.498033324501e-01
    22    4.095119783180e-02
    23    8.164672645051e-02
    24    6.870517980939e-03
    25   -4.675120727245e-02
    26   -3.208742137362e-01
    27    4.633620940037e-01
    28   -2.044446910774e-01
    29    1.916688705002e-01
    30    2.414011402547e-03
    31    6.642836199747e-02
    32   -5.185676244097e-02
    33   -1.931123923947e-03
    34    1.935515812415e-01
    35   -2.117757193067e-02
    36   -2.440941565107e-02
    37    2.424236647734e-03
    38   -7.553119649306e-02
    39   -4.725319802598e-01
    40    1.353864555285e-01
    41   -4.063432872505e-02
    42   -8.101076640735e-02
    43   -6.972811083851e-03
    44   -4.746900251870e-01
    45    1.474705247559e-01
    46    8.053620390887e-02
    47    4.399872996931e-02
    48    6.666191729734e-03
Sym=X
Ene= 0.784503
Spin=Alpha
Occup=0
     1    5.266777886561e-01
     2   -4.693210422364e-01
     3    1.103221703939e-01
     4    2.605400763622e-02
     5    6.722511152521e-03
     6    9.098654769411e-02
     7   -2.155507279791e-01
     8   -6.430538761143e-01
     9    1.104774410983e-01
    10   -1.058655750392e-01
    11   -2.697382032697e-03
    12    3.178128371138e-01
    13   -2.934929390438e-01
    14    7.148884862262e-04
    15   -2.064088907666e-01
    16    1.738287427652e-02
    17    2.162067984998e-02
    18   -1.045348407548e-03
    19    9.318769494827e-03
    20    5.364052057303e-01
    21   -4.683996083404e-01
    22   -2.027962411863e-02
    23   -1.123050459598e-01
    24   -7.595683312989e-03
    25   -9.134810347169e-02
    26    2.133206012798e-01
    27    6.561035154926e-01
    28    1.112462237754e-01
    29   -1.059757830463e-01
    30    2.958933829881e-04
    31    3.113102525530e-01
    32   -2.876419883824e-01
    33   -5.069038321372e-03
    34    2.073938165377e-01
    35   -1.893681475864e-02
    36   -2.249352302328e-02
    37    1.810506864468e-03
    38   -8.794727686286e-03
    39   -5.414697375794e-01
    40    4.663012245592e-01
    41   -2.043747549388e-02
    42   -1.127882619968e-01
    43   -7.902451729136e-03
    44   -5.314355127787e-01
    45    4.660924205062e-01
    46    1.100058463441e-01
    47    2.677842286173e-02
    48    7.178396119551e-03
Sym=X
Ene= 0.807967
Spin=Alpha
Occup=0
     1   -8.783508619903e-04
     2   -1.053856398513e-03
     3    1.612381364535e-03
     4    2.195054032817e-03
     5   -3.380047876048e-02
     6   -1.957715200308e-04
     7    7.724879426817e-04
     8    1.078396757205e-04
     9    3.518403680820e-02
    10    4.496530441394e-02
    11   -7.630697539856e-01
    12   -5.277584394358e-02
    13   -6.517306360203e-02
    14    1.127080582728e+00
    15    1.497762392741e-03
    16   -6.524317776629e-02
    17    6.177187555568e-02
    18    7.437210958880e-03
    19    1.109899646552e-03
    20   -9.966809579375e-04
    21    3.109548844588e-03
    22    1.790830312558e-03
    23    2.511338505635e-03
    24   -3.444788606006e-02
    25    1.596776443007e-04
    26    4.340709525892e-05
    27   -5.596719207055e-04
    28   -3.910359198951e-02
    29   -4.673957079696e-02
    30    7.630253870774e-01
    31    5.680397210348e-02
    32    7.045089398116e-02
    33   -1.126657038432e+00
    34    4.256802393687e-04
    35   -6.518978619715e-02
    36    6.192604989167e-02
    37    6.334649838389e-03
    38    8.196205226020e-04
    39    9.819220689494e-04
    40   -3.355251671608e-03
    41   -1.630043062539e-03
    42   -1.411003560080e-03
    43    3.429766056335e-02
    44    8.860864356534e-04
    45    8.610318805317e-04
    46   -1.871825436295e-03
    47   -1.801187000195e-03
    48    3.369906626346e-02
Sym=X
Ene= 0.862240
Spin=Alpha
Occup=0
     1    1.328759922723e-02
     2   -1.095529051220e+00
     3    1.483083583262e-01
     4    5.642874298963e-02
     5    1.048816524802e-02
     6    1.659769868336e-04
     7    8.561076419055e-06
     8    1.347922647461e-03
     9   -4.069124766797e-01
    10   -4.287986143867e-01
    11   -4.324893225327e-02
    12    9.477660917224e-01
    13    9.985140060395e-01
    14    1.009449384969e-01
    15   -6.422604956016e-04
    16    1.214826390048e-02
    17   -1.350633661442e-02
    18    2.352343281302e-01
    19    9.499826860124e-03
    20   -1.361659137370e-02
    21    1.103034486722e+00
    22    5.036399488969e-02
    23    1.513459054005e-01
    24    1.132383755168e-02
    25   -4.008075513279e-05
    26    2.096995076297e-03
    27   -2.474339700293e-03
    28   -4.067825405728e-01
    29   -4.294834899485e-01
    30   -4.791449159961e-02
    31    9.468313564231e-01
    32    1.002222828124e+00
    33    1.114607388727e-01
    34    1.077246626515e-04
    35   -1.228684668680e-02
    36    1.354078832074e-02
    37   -2.363387706699e-01
    38   -1.025256260107e-02
    39    1.221213309016e-02
    40   -1.102536539591e+00
    41    4.894747414386e-02
    42    1.516697068223e-01
    43    1.148523585197e-02
    44   -1.136219907936e-02
    45    1.094985095672e+00
    46    1.486797122656e-01
    47    5.570350056141e-02
    48    1.093241771396e-02
Sym=X
Ene= 0.935898
Spin=Alpha
Occup=0
     1   -1.135243071075e-01
     2    1.278571258349e+00
     3   -1.812191073952e-01
     4    5.504912343867e-03
     5   -8.111828370028e-03
     6   -6.906452286498e-05
     7   -2.521193447259e-03
     8   -2.229442413342e-03
     9    4.721773538582e-01
    10    5.002511335656e-01
    11    5.228401033385e-02
    12   -1.463467887365e+00
    13   -1.542518794632e+00
    14   -1.617626480488e-01
    15   -7.248071718416e-04
    16   -5.318635201219e-03
    17    7.160346242631e-03
    18   -1.204634077910e-01
    19   -1.886122969102e-03
    20    1.173544424893e-01
    21   -1.288100805950e+00
    22    1.144651082649e-02
    23   -1.830368801737e-01
    24   -1.035689701598e-02
    25    1.309259124145e-04
    26   -1.301894781679e-04
    27    1.629160900559e-03
    28   -4.754377507237e-01
    29   -4.962878444304e-01
    30   -5.373540299240e-02
    31    1.471696451639e+00
    32    1.528683378479e+00
    33    1.656601148345e-01
    34   -9.006958707653e-04
    35   -6.604233855782e-03
    36    7.246577717803e-03
    37   -1.204931862315e-01
    38   -5.326588599572e-03
    39    1.168659261633e-01
    40   -1.279270504521e+00
    41   -1.359116446839e-02
    42    1.817957718185e-01
    43    1.043641302170e-02
    44   -1.153421719308e-01
    45    1.287238506237e+00
    46    1.819933245126e-01
    47   -5.267836322858e-03
    48    8.823113410458e-03
Sym=X
Ene= 0.972438
Spin=Alpha
Occup=0
     1   -6.441376366041e-02
     2    9.290496354471e-01
     3   -9.129693003122e-02
     4   -9.847703017720e-02
     5   -1.030715949561e-02
     6    2.534029248492e-02
     7    2.529640775576e-01
     8    5.186875042906e-01
     9    4.822647075334e-01
    10   -4.533286664001e-01
    11   -4.162554735509e-03
    12   -1.498982414825e+00
    13    1.403029531569e+00
    14    1.259858181442e-02
    15   -5.390524814858e-02
    16   -1.315251886267e-02
    17   -9.798874597170e-03
    18    1.325812588668e-02
    19   -3.015521613762e-01
    20   -6.254954124708e-02
    21    9.061719245659e-01
    22    9.529311950787e-02
    23    9.254105457670e-02
    24    1.011787169391e-02
    25   -2.517406865315e-02
    26   -2.378092621713e-01
    27   -5.438585872844e-01
    28    4.767903998094e-01
    29   -4.564314153458e-01
    30   -3.476924920764e-03
    31   -1.479399548741e+00
    32    1.420930364561e+00
    33    1.150682308795e-02
    34    5.290815426107e-02
    35    1.307158798104e-02
    36    9.767723351835e-03
    37   -1.457108699968e-02
    38    2.990318138448e-01
    39    6.218525241535e-02
    40   -9.130346244638e-01
    41    9.419642929733e-02
    42    9.333760384549e-02
    43    1.002013466842e-02
    44    6.584621291782e-02
    45   -9.067905388691e-01
    46   -8.836146837110e-02
    47   -9.781673147248e-02
    48   -1.047708156678e-02
[5D]

======= END OF MOLDEN-FORMATTED INPUT FILE =======


        *************************************************************
        *                                                           *
        *  Thank you very much for using Q-Chem.  Have a nice day.  *
        *                                                           *
        *************************************************************


