                  Welcome to Q-Chem
     A Quantum Leap Into The Future Of Chemistry


 Q-Chem 5.4 (devel), Q-Chem, Inc., Pleasanton, CA (2021)

 E. Epifanovsky,  A. T. B. Gilbert,  Xintian Feng,  Joonho Lee,  Yuezhi Mao,  
 N. Mardirossian,  P. Pokhilko,  A. White,  M. Wormit,  M. P. Coons,  
 A. L. Dempwolff,  Zhengting Gan,  D. Hait,  P. R. Horn,  L. D. Jacobson,  
 I. Kaliman,  J. Kussmann,  A. W. Lange,  Ka Un Lao,  D. S. Levine,  Jie Liu,  
 S. C. McKenzie,  A. F. Morrison,  K. Nanda,  F. Plasser,  D. R. Rehn,  
 M. L. Vidal,  Zhi-Qiang You,  Ying Zhu,  B. Alam,  B. Albrecht,  
 A. Aldossary,  E. Alguire,  J. H. Andersen,  D. Barton,  K. Begam,  A. Behn,  
 Y. A. Bernard,  E. J. Berquist,  H. Burton,  A. Carreras,  K. Carter-Fenk,  
 R. Chakraborty,  A. D. Chien,  K. D. Closser,  V. Cofer-Shabica,  
 S. Dasgupta,  Jia Deng,  M. de Wergifosse,  M. Diedenhofen,  Hainam Do,  
 S. Ehlert,  Po-Tung Fang,  S. Fatehi,  Qingguo Feng,  T. Friedhoff,  
 J. Gayvert,  Qinghui Ge,  G. Gidofalvi,  M. Goldey,  J. Gomes,  
 C. Gonzalez-Espinoza,  S. Gulania,  A. Gunina,  M. W. D. Hanson-Heine,  
 P. H. P. Harbach,  A. W. Hauser,  M. F. Herbst,  M. Hernandez Vera,  
 M. Hodecker,  Z. C. Holden,  S. Houck,  Xunkun Huang,  Kerwin Hui,  
 B. C. Huynh,  M. Ivanov,  Hyunjun Ji,  Hanjie Jiang,  B. Kaduk,  S. Kaehler,  
 K. Khistyaev,  Jaehoon Kim,  P. Klunzinger,  Z. Koczor-Benda,  
 Joong Hoon Koh,  D. Kosenkov,  L. Koulias,  T. Kowalczyk,  C. M. Krauter,  
 K. Kue,  A. Kunitsa,  T. Kus,  A. Landau,  K. V. Lawler,  D. Lefrancois,  
 S. Lehtola,  Rain Li,  Yi-Pei Li,  Jiashu Liang,  M. Liebenthal,  
 Hung-Hsuan Lin,  You-Sheng Lin,  Fenglai Liu,  Kuan-Yu Liu,  
 M. Loipersberger,  A. Luenser,  A. Manjanath,  P. Manohar,  E. Mansoor,  
 S. F. Manzer,  Shan-Ping Mao,  A. V. Marenich,  T. Markovich,  S. Mason,  
 S. A. Maurer,  P. F. McLaughlin,  M. F. S. J. Menger,  J.-M. Mewes,  
 S. A. Mewes,  P. Morgante,  J. W. Mullinax,  K. J. Oosterbaan,  G. Paran,  
 Alexander C. Paul,  Suranjan K. Paul,  F. Pavosevic,  Zheng Pei,  S. Prager,  
 E. I. Proynov,  E. Ramos,  B. Rana,  A. E. Rask,  A. Rettig,  R. M. Richard,  
 F. Rob,  E. Rossomme,  T. Scheele,  M. Scheurer,  M. Schneider,  
 N. Sergueev,  S. M. Sharada,  W. Skomorowski,  D. W. Small,  C. J. Stein,  
 Yu-Chuan Su,  E. J. Sundstrom,  Zhen Tao,  J. Thirman,  T. Tsuchimochi,  
 N. M. Tubman,  S. P. Veccham,  O. Vydrov,  J. Wenzel,  J. Witte,  A. Yamada,  
 Kun Yao,  S. Yeganeh,  S. R. Yost,  A. Zech,  Igor Ying Zhang,  Xing Zhang,  
 Yu Zhang,  D. Zuev,  A. Aspuru-Guzik,  A. T. Bell,  N. A. Besley,  
 K. B. Bravaya,  B. R. Brooks,  D. Casanova,  Jeng-Da Chai,  S. Coriani,  
 C. J. Cramer,  A. E. DePrince, III,  R. A. DiStasio Jr.,  A. Dreuw,  
 B. D. Dunietz,  T. R. Furlani,  W. A. Goddard III,  S. Grimme,  
 S. Hammes-Schiffer,  T. Head-Gordon,  W. J. Hehre,  Chao-Ping Hsu,  
 T.-C. Jagau,  Yousung Jung,  A. Klamt,  Jing Kong,  D. S. Lambrecht,  
 WanZhen Liang,  N. J. Mayhall,  C. W. McCurdy,  J. B. Neaton,  
 C. Ochsenfeld,  J. A. Parkhill,  R. Peverati,  V. A. Rassolov,  Yihan Shao,  
 L. V. Slipchenko,  T. Stauch,  R. P. Steele,  J. E. Subotnik,  
 A. J. W. Thom,  A. Tkatchenko,  D. G. Truhlar,  T. Van Voorhis,  
 T. A. Wesolowski,  K. B. Whaley,  H. L. Woodcock III,  P. M. Zimmerman,  
 S. Faraji,  P. M. W. Gill,  M. Head-Gordon,  J. M. Herbert,  A. I. Krylov

 Additional authors for Version 5.4.1: 
 S. Kotaru,  Shaozhi Li,  Xiangyuan Li,  F. Matz,  A. Molle,  Haisheng Ren,  
 Yingli Su,  Hung-Yi Tsai,  C. Utku,  Fang Wang

 Contributors to earlier versions of Q-Chem not listed above: 
 R. D. Adamson,  B. Austin,  R. Baer,  J. Baker,  G. J. O. Beran,  
 K. Brandhorst,  S. T. Brown,  E. F. C. Byrd,  A. K. Chakraborty,  
 G. K. L. Chan,  Chun-Min Chang,  Yunqing Chen,  C.-L. Cheng,  
 Siu Hung Chien,  D. M. Chipman,  D. L. Crittenden,  H. Dachsel,  
 R. J. Doerksen,  A. D. Dutoi,  R. G. Edgar,  J. Fosso-Tande,  
 L. Fusti-Molnar,  D. Ghosh,  A. Ghysels,  A. Golubeva-Zadorozhnaya,  
 J. Gonthier,  M. S. Gordon,  S. R. Gwaltney,  G. Hawkins,  J. E. Herr,  
 A. Heyden,  S. Hirata,  E. G. Hohenstein,  G. Kedziora,  F. J. Keil,  
 C. Kelley,  Jihan Kim,  R. A. King,  R. Z. Khaliullin,  P. P. Korambath,  
 W. Kurlancheek,  A. Laurent,  A. M. Lee,  M. S. Lee,  S. V. Levchenko,  
 Ching Yeh Lin,  D. Liotard,  E. Livshits,  R. C. Lochan,  I. Lotan,  
 L. A. Martinez-Martinez,  P. E. Maslen,  N. Nair,  D. P. O'Neill,  
 D. Neuhauser,  E. Neuscamman,  C. M. Oana,  R. Olivares-Amaya,  R. Olson,  
 T. M. Perrine,  B. Peters,  P. A. Pieniazek,  A. Prociuk,  Y. M. Rhee,  
 J. Ritchie,  M. A. Rohrdanz,  E. Rosta,  N. J. Russ,  H. F. Schaefer III,  
 M. W. Schmidt,  N. E. Schultz,  S. Sharma,  N. Shenvi,  C. D. Sherrill,  
 A. C. Simmonett,  A. Sodt,  T. Stein,  D. Stuck,  K. S. Thanthiriwatte,  
 V. Vanovschi,  L. Vogt,  Tao Wang,  A. Warshel,  M. A. Watson,  
 C. F. Williams,  Q. Wu,  X. Xu,  Jun Yang,  W. Zhang,  Yan Zhao

 Please cite Q-Chem as follows:
 Y. Shao et al., Mol. Phys. 113, 184-215 (2015)
 DOI: 10.1080/00268976.2014.952696

 Q-Chem 5.4.1 for Intel X86 EM64T Linux

 Parts of Q-Chem use Armadillo 9.800.1 (Horizon Scraper).
 http://arma.sourceforge.net/

 Q-Chem begins on Thu Nov 17 15:39:40 2022  

 Host: cpu184.baobab
0

     Scratch files written to /scratch/fum/qchem27408//
 Processing $rem in /home/share/wesolowski/qc5.aug2021.FDE/config/preferences:
 Processing $rem in /home/fum/.qchemrc:

 Checking the input file for inconsistencies... 	...done.

--------------------------------------------------------------
User input:
--------------------------------------------------------------
$comment
generated from CCJob.Templates
$end

$rem
sym_ignore = true
method = adc(2)
ee_states = 10
basis = cc-pVDZ
mem_static = 1024
mem_total = 40000
adc_davidson_maxiter = 900
adc_davidson_conv = 6
adc_print = 3
adc_prop_es = true
adc_prop_es2es = true
adc_prop_tpa = true
molden_format = True
state_analysis = true
print_orbitals = 15
gen_scfman = false
fde_export_density = true
fde_details = 3
$end

$molecule
0 1
H -0.0348278765 -0.2442097827 0.0736489606
C -1.0765972949 -0.5242748755 -0.0023551776
H -1.313264467 -1.5767591607 -0.0757276926
C -2.043634118 0.3926884087 0.0061254933
H -1.8137616575 1.4459188338 0.0804456828
H -3.085977293 0.114931858 -0.0593381042                     
$end
--------------------------------------------------------------
 ----------------------------------------------------------------
             Standard Nuclear Orientation (Angstroms)
    I     Atom           X                Y                Z
 ----------------------------------------------------------------
    1      H      -0.0348278765    -0.2442097827     0.0736489606
    2      C      -1.0765972949    -0.5242748755    -0.0023551776
    3      H      -1.3132644670    -1.5767591607    -0.0757276926
    4      C      -2.0436341180     0.3926884087     0.0061254933
    5      H      -1.8137616575     1.4459188338     0.0804456828
    6      H      -3.0859772930     0.1149318580    -0.0593381042
 ----------------------------------------------------------------
 Nuclear Repulsion Energy =          33.42151583 hartrees
 There are        8 alpha and        8 beta electrons
 Requested basis set is cc-pVDZ
 There are 24 shells and 48 basis functions
 Total memory of 40000 MB is distributed as follows: 
   MEM_STATIC is set to 1024 MB
   QALLOC/CCMAN JOB total memory use is  38976 MB
 Warning: actual memory use might exceed 40000 MB

 Total QAlloc Memory Limit  40000 MB
 Mega-Array Size      1001 MB
 MEM_STATIC part      1024 MB

                       Distance Matrix (Angstroms)
             H (  1)   C (  2)   H (  3)   C (  4)   H (  5)
   C (  2)  1.081433
   H (  3)  1.852674  1.081258
   C (  4)  2.108436  1.332687  2.102109
   H (  5)  2.453811  2.105215  3.067812  1.080583
   H (  6)  3.075090  2.109370  2.450428  1.080700  1.846510

 A cutoff of  1.0D-11 yielded    300 shell pairs
 There are      1220 function pairs (      1329 Cartesian)
 Smallest overlap matrix eigenvalue = 4.80E-03

 Scale SEOQF with 1.000000e-01/1.000000e-01/1.000000e+00

 Standard Electronic Orientation quadrupole field applied
 Nucleus-field energy     =     0.0000000022 hartrees
 Guess from superposition of atomic densities
 Warning:  Energy on first SCF cycle will be non-variational
 SAD guess density has 16.000000 electrons
 A restricted Hartree-Fock SCF calculation will be
 performed using Pulay DIIS extrapolation
 SCF converges when DIIS error is below 1.0E-08
 using 10 threads for integral computing
 -------------------------------------------------------
 OpenMP Integral computing Module                
 Release: version 1.0, May 2013, Q-Chem Inc. Pittsburgh 
 -------------------------------------------------------
 ---------------------------------------
  Cycle       Energy         DIIS Error
 ---------------------------------------
    1     -78.4383792109      1.01E-01
    2     -78.0176866203      7.21E-03
    3     -78.0383170776      1.84E-03
    4     -78.0397999764      5.73E-04
    5     -78.0399216067      5.80E-05
    6     -78.0399234827      9.41E-06
    7     -78.0399235436      2.42E-06
    8     -78.0399235466      1.03E-06
    9     -78.0399235470      9.22E-08
   10     -78.0399235470      1.29E-08
   11     -78.0399235470      3.62E-09 Convergence criterion met
 ---------------------------------------
 SCF time:  CPU 1.56 s  wall 2.21 s
 SCF   energy in the final basis set = -78.03992355
 Total energy in the final basis set = -78.03992355
Exporting Density Matrix to file 'Densmat_SCF.txt'.
Export successful
================================================================================
|                                                                              |
|                                 A D C  M A N                                 |
|                                                                              |
 ------------------------------------------------------------------------------ 
|                                                                              |
| Components:                                                                  |
|                                                                              |
| - libvmm - 1.3-trunk                                                         |
|   Authors:                                                                   |
|   Evgeny Epifanovsky, Ilya Kaliman                                           |
|                                                                              |
| - libtensor - 2.5-trunk                                                      |
|   Authors:                                                                   |
|   Evgeny Epifanovsky, Michael Wormit, Dmitry Zuev, Sam Manzer,               |
|   Ilya Kaliman                                                               |
|                                                                              |
| - libwfa - 1.1-trunk                                                         |
|   Authors:                                                                   |
|   Felix Plasser, Stefanie Mewes (Baeppler), Benjamin Thomitzni,              |
|   Michael Wormit, Feng Chen, Anna I. Krylov, Pavel Pokhilko                  |
|                                                                              |
| - libadc - 1.1-trunk                                                         |
|   Authors:                                                                   |
|   Michael Wormit, Adrian L. Dempwolff, Philipp H. P. Harbach,                |
|   Caroline Krauter, Dirk Rehn, Matthias Schneider, Jan Wenzel                |
|                                                                              |
| - adcman - 2.6-trunk                                                         |
|   Authors:                                                                   |
|   Michael Wormit, Adrian L. Dempwolff, Philipp H. P. Harbach,                |
|   Caroline Krauter, Daniel Lefrancois, Jan-Michael Mewes, Dirk Rehn,         |
|   Matthias Schneider, Jan Wenzel, Andreas Dreuw                              |
|                                                                              |
| Authors of earlier versions of ADCMAN:                                       |
| Andreas Dreuw, Jan Hendrik Starcke, Dirk Rehn, Michael Wormit                |
|                                                                              |
================================================================================

 Created directory /scratch/fum/qchem27408/plots
  Import QC data ...  CPU 0.00 s  wall 0.00 s

 Alpha MOs, Restricted
 -- Occupied --                  
-11.235 -11.233  -1.032  -0.790  -0.641  -0.582  -0.505  -0.374
  1 A     2 A     3 A     4 A     5 A     6 A     7 A     8 A                  
 -- Virtual --                   
  0.168   0.204   0.233   0.239   0.303   0.462   0.577   0.615
  9 A    10 A    11 A    12 A    13 A    14 A    15 A    16 A                  
  0.689   0.709   0.784   0.808   0.862   0.936   0.972   1.010
 17 A    18 A    19 A    20 A    21 A    22 A    23 A    24 A                  
  1.130   1.235   1.254   1.266   1.294   1.601   1.726   1.750
 25 A    26 A    27 A    28 A    29 A    30 A    31 A    32 A                  
  1.819   1.859   1.867   1.921   1.977   1.978   2.221   2.257
 33 A    34 A    35 A    36 A    37 A    38 A    39 A    40 A                  
  2.376   2.454   2.506   2.633   2.721   2.821   3.140   3.398
 41 A    42 A    43 A    44 A    45 A    46 A    47 A    48 A                  

 Beta MOs, Restricted
 -- Occupied --                  
-11.235 -11.233  -1.032  -0.790  -0.641  -0.582  -0.505  -0.374
  1 A     2 A     3 A     4 A     5 A     6 A     7 A     8 A                  
 -- Virtual --                   
  0.168   0.204   0.233   0.239   0.303   0.462   0.577   0.615
  9 A    10 A    11 A    12 A    13 A    14 A    15 A    16 A                  
  0.689   0.709   0.784   0.808   0.862   0.936   0.972   1.010
 17 A    18 A    19 A    20 A    21 A    22 A    23 A    24 A                  
  1.130   1.235   1.254   1.266   1.294   1.601   1.726   1.750
 25 A    26 A    27 A    28 A    29 A    30 A    31 A    32 A                  
  1.819   1.859   1.867   1.921   1.977   1.978   2.221   2.257
 33 A    34 A    35 A    36 A    37 A    38 A    39 A    40 A                  
  2.376   2.454   2.506   2.633   2.721   2.821   3.140   3.398
 41 A    42 A    43 A    44 A    45 A    46 A    47 A    48 A                  
  Import AO data ...  CPU 0.00 s  wall 0.01 s
  Using point group: C1
  Irreducible representations in point group: A
  Molecular orbitals: 
  Occupied MOs:
  Block   0:   1 (  A) A   2 (  A) A   3 (  A) A   4 (  A) A   5 (  A) A
                  -11.24      -11.23      -1.032     -0.7897     -0.6411
               6 (  A) A   7 (  A) A   8 (  A) A
                 -0.5819     -0.5046      -0.374
  Block   1:   1 (  A) B   2 (  A) B   3 (  A) B   4 (  A) B   5 (  A) B
                  -11.24      -11.23      -1.032     -0.7897     -0.6411
               6 (  A) B   7 (  A) B   8 (  A) B
                 -0.5819     -0.5046      -0.374
  Virtual MOs:
  Block   0:   9 (  A) A  10 (  A) A  11 (  A) A  12 (  A) A  13 (  A) A
                  0.1684      0.2037      0.2329      0.2394      0.3033
              14 (  A) A  15 (  A) A  16 (  A) A  17 (  A) A  18 (  A) A
                   0.462      0.5775      0.6152      0.6891      0.7088
              19 (  A) A  20 (  A) A  21 (  A) A  22 (  A) A
                  0.7845       0.808      0.8622      0.9359
  Block   1:  23 (  A) A  24 (  A) A  25 (  A) A  26 (  A) A  27 (  A) A
                  0.9724        1.01        1.13       1.235       1.254
              28 (  A) A  29 (  A) A  30 (  A) A  31 (  A) A  32 (  A) A
                   1.266       1.294       1.601       1.726        1.75
              33 (  A) A  34 (  A) A  35 (  A) A  36 (  A) A
                   1.819       1.859       1.867       1.921
  Block   2:  37 (  A) A  38 (  A) A  39 (  A) A  40 (  A) A  41 (  A) A
                   1.977       1.978       2.221       2.257       2.376
              42 (  A) A  43 (  A) A  44 (  A) A  45 (  A) A  46 (  A) A
                   2.454       2.506       2.633       2.721       2.821
              47 (  A) A  48 (  A) A
                    3.14       3.398
  Block   3:   9 (  A) B  10 (  A) B  11 (  A) B  12 (  A) B  13 (  A) B
                  0.1684      0.2037      0.2329      0.2394      0.3033
              14 (  A) B  15 (  A) B  16 (  A) B  17 (  A) B  18 (  A) B
                   0.462      0.5775      0.6152      0.6891      0.7088
              19 (  A) B  20 (  A) B  21 (  A) B  22 (  A) B
                  0.7845       0.808      0.8622      0.9359
  Block   4:  23 (  A) B  24 (  A) B  25 (  A) B  26 (  A) B  27 (  A) B
                  0.9724        1.01        1.13       1.235       1.254
              28 (  A) B  29 (  A) B  30 (  A) B  31 (  A) B  32 (  A) B
                   1.266       1.294       1.601       1.726        1.75
              33 (  A) B  34 (  A) B  35 (  A) B  36 (  A) B
                   1.819       1.859       1.867       1.921
  Block   5:  37 (  A) B  38 (  A) B  39 (  A) B  40 (  A) B  41 (  A) B
                   1.977       1.978       2.221       2.257       2.376
              42 (  A) B  43 (  A) B  44 (  A) B  45 (  A) B  46 (  A) B
                   2.454       2.506       2.633       2.721       2.821
              47 (  A) B  48 (  A) B
                    3.14       3.398
  Import MO data ...  CPU 0.01 s  wall 0.02 s
  Import HF data ...  CPU 0.08 s  wall 0.04 s
  Import 2e integrals ...  CPU 0.66 s  wall 0.13 s

--------------------------------------------------------------------------------
                                   HF Summary                                   
--------------------------------------------------------------------------------
  Energy:                                                  -78.0399235470 a.u.
  Dip. moment [a.u.]:                  [  -0.001018,    0.000547,    0.003199]
  Total dipole [Debye]:                                               0.008645
  <r^2> [a.u.]:                        [ 175.319929,   34.918692,   11.630484]
  Total <r^2> [a.u.]:                                               221.869106
--------------------------------------------------------------------------------
  HF properties ...  CPU 0.01 s  wall 0.01 s
  MP(1) calculation ...  CPU 0.01 s  wall 0.01 s
  N^6 prerequesite intermediates ...  CPU 0.51 s  wall 0.09 s
  Difference density matrix of state mp2_gs printed to ASCII file 'State_mp2_gs_Difference.txt'
Exporting MP density matrix to file 'Densmat_MP.txt'.
Export successful
  Total density matrix of state mp2_gs printed to ASCII file 'State_mp2_gs_Total.txt'
Exporting MP density matrix to file 'Densmat_MP.txt'.
Export successful

--------------------------------------------------------------------------------
                                 MP(2) Summary                                  
--------------------------------------------------------------------------------
  MP energy contribution:                                   -0.2797145435 a.u.
  Total energy:                                            -78.3196380905 a.u.
  Dip. moment [a.u.]:                  [  -0.000980,    0.000454,    0.003154]
  Total dipole [Debye]:                                               0.008473
  <r^2> [a.u.]:                        [ 175.366626,   34.959264,   11.462349]
  Total <r^2> [a.u.]:                                               221.788240

  Density matrix analysis:
  ------------------------
  NOs
    Occupation of frontier NOs:
       0.0453   1.9383
    Number of electrons: 16.000000
    Number of unpaired electrons: n_u =  0.40347, n_u,nl =  0.04509
    NO participation ratio (PR_NO): 13.858048
  
  
  Mulliken Population Analysis
  Atom      Charge (e)              h+              e-           Del q
  --------------------------------------------------------------------
   1 H        0.051126        0.014020       -0.011205        0.002815
   2 C       -0.101039        0.093275       -0.098863       -0.005589
   3 H        0.050581        0.014070       -0.011194        0.002876
   4 C       -0.101355        0.092969       -0.098901       -0.005933
   5 H        0.050132        0.014122       -0.011185        0.002938
   6 H        0.050555        0.014084       -0.011192        0.002892
  --------------------------------------------------------------------
  Sum:        0.000000        0.242540       -0.242540       -0.000000
  
  Multipole moment analysis of the density matrix
    Molecular charge:                      -0.000000
    Number of electrons:                   16.000000
      Center of electronic charge [Ang]: [ -1.560544,  -0.065617,   0.002499]
    Total nuclear charge:                  16.000000
      Center of nuclear charge [Ang]:    [ -1.560576,  -0.065602,   0.002603]
    Dipole moment [D]:                     0.008473
      Cartesian components [D]:          [ -0.002492,   0.001155,   0.008016]
    RMS size of the density [Ang]:         1.200867
      Cartesian components [Ang]:        [  0.796198,   0.779451,   0.447890]
  
  Exciton analysis of the difference density matrix
    <r_h> [Ang]:                  [ -1.560269,  -0.065886,   0.001980]
    <r_e> [Ang]:                  [ -1.560351,  -0.065683,   0.002079]
    |<r_e - r_h>| [Ang]:            0.000240
    Hole size [Ang]:                1.393767
      Cartesian components [Ang]: [  0.846776,   0.834141,   0.727850]
    Electron size [Ang]:            1.359776
      Cartesian components [Ang]: [  0.877889,   0.861777,   0.579347]
--------------------------------------------------------------------------------
  MP(2) calculation ...  CPU 0.12 s  wall 0.17 s
  Start ADC(2)-s ...  CPU 0.01 s  wall 0.00 s
  ADC(2) intermediates ...  CPU 0.02 s  wall 0.01 s
  Starting Davidson for singlet states of irrep A ... 
--------------------------------------------------------------------------------
   It NVec Conv  Avg. Norm  Max. Norm  Conv. states           Remark
--------------------------------------------------------------------------------
        10    0  1.330e-01  4.687e-01  0.4119 n n n n n n n n Guess.
    1   20    0  2.304e-02  1.109e-01  0.3262 n n n n n n n n 
    2   30    0  5.869e-03  2.530e-02  0.3215 n n n n n n n n 
    3   40    0  2.014e-03  1.258e-02  0.3211 n n n n n n n n 
    4   50    0  5.528e-04  3.460e-03  0.3211 n n n n n n n n 
    5   20    0  2.631e-04  1.762e-03  0.3211 n n n n n n n n Subspace collapsed.
    6   30    0  1.517e-04  1.201e-03  0.3211 n n n n n n n n 
    7   40    0  1.372e-04  1.092e-03  0.3211 n n n n n n n n 
    8   50    0  1.085e-04  1.013e-03  0.3211 n n n n n n n n 
    9   20    1  5.536e-05  5.134e-04  0.3211 n y n n n n n n Subspace collapsed.
   10   30    2  4.525e-05  4.097e-04  0.3211 n y y n n n n n 
   11   40    4  2.151e-05  1.992e-04  0.3211 n y y y y n n n 
   12   50    5  2.448e-05  2.404e-04  0.3211 n y y y y y n n 
   13   20    6  1.465e-05  1.443e-04  0.3211 y y y y y y n n Subspace collapsed.
   14   30    6  1.968e-05  1.945e-04  0.3211 y y y y y y n n 
   15   40    6  2.073e-05  2.060e-04  0.3211 y y y y y y n n 
   16   50    6  1.999e-05  1.993e-04  0.3211 y y y y y y n n 
   17   20    6  9.614e-06  9.588e-05  0.3211 y y y y y y n n Subspace collapsed.
   18   30    6  7.451e-06  7.433e-05  0.3211 y y y y y y n n 
   19   40    8  4.709e-06  4.699e-05  0.3211 y y y y y y y y 
   20   50    8  3.956e-06  3.950e-05  0.3211 y y y y y y y y 
   21   20    8  2.916e-06  2.911e-05  0.3211 y y y y y y y y Subspace collapsed.
   22   30    8  4.862e-06  4.857e-05  0.3211 y y y y y y y y 
   23   40    8  4.179e-06  4.177e-05  0.3211 y y y y y y y y 
   24   41    8  4.297e-06  4.294e-05  0.3211 y y y y y y y y 
   25   48    8  4.208e-06  4.207e-05  0.3211 y y y y y y y y 
   26   50    9  3.813e-06  3.812e-05  0.3211 y y y y y y y y 
   27   16    9  2.057e-06  2.056e-05  0.3211 y y y y y y y y Subspace collapsed.
   28   22    9  1.473e-06  1.472e-05  0.3211 y y y y y y y y 
   29   27    9  8.798e-07  8.796e-06  0.3211 y y y y y y y y 
   30   27    9  8.798e-07  8.796e-06  0.3211 y y y y y y y y 
   31   37    9  7.070e-07  7.068e-06  0.3211 y y y y y y y y 
   32   41    9  9.287e-07  9.286e-06  0.3211 y y y y y y y y 
   33   45    9  9.527e-07  9.526e-06  0.3211 y y y y y y y y 
   34   49    9  6.885e-07  6.885e-06  0.3211 y y y y y y y y 
   35   50    9  6.275e-07  6.275e-06  0.3211 y y y y y y y y 
   36   14    9  3.730e-07  3.730e-06  0.3211 y y y y y y y y Subspace collapsed.
   37   18    9  3.093e-07  3.093e-06  0.3211 y y y y y y y y 
   38   22    9  2.016e-07  2.016e-06  0.3211 y y y y y y y y 
   39   26    9  1.451e-07  1.451e-06  0.3211 y y y y y y y y 
   40   30    9  1.362e-07  1.362e-06  0.3211 y y y y y y y y 
   41   34    9  1.044e-07  1.044e-06  0.3211 y y y y y y y y 
   42   38   10  9.270e-08  9.270e-07  0.3211 y y y y y y y y Converged.
--------------------------------------------------------------------------------
  Davidson Summary: 
 ------------------------------------------------------------
  State  0: excitation energy =   0.3211 a.u.   (converged)
  State  1: excitation energy =   0.3327 a.u.   (converged)
  State  2: excitation energy =   0.3370 a.u.   (converged)
  State  3: excitation energy =   0.3613 a.u.   (converged)
  State  4: excitation energy =   0.3753 a.u.   (converged)
  State  5: excitation energy =   0.3872 a.u.   (converged)
  State  6: excitation energy =   0.4247 a.u.   (converged)
  State  7: excitation energy =   0.4471 a.u.   (converged)
  State  8: excitation energy =   0.4563 a.u.   (converged)
  State  9: excitation energy =   0.4647 a.u.   (converged)
 ------------------------------------------------------------

  Singlet states of irrep A ...  CPU 89.87 s  wall 32.46 s
  TDMs ...  CPU 0.66 s  wall 0.27 s
  SDMs ...  CPU 1.45 s  wall 0.52 s
  Starting TPA DIIS iterations ... 
------------------------------------ 
   It     Res. Norm  Remark
------------------------------------
                       Guess.
    1     4.406e+00  
    2     5.841e+00  
    3     1.077e+00  
    4     2.568e-01  
    5     6.575e-02  
    6     2.677e-02  
    7     8.240e-03  
    8     1.449e-03  
    9     5.364e-04  
   10     9.313e-05  
   11     2.904e-05  
   12     6.169e-06  
   13     2.051e-06  
   14     1.265e-06  
   15     2.767e-07  Converged.
   ... Converged in 15 steps (norm: 2.76734e-07)
------------------------------------
  Starting TPA DIIS iterations ... 
------------------------------------ 
   It     Res. Norm  Remark
------------------------------------
                       Guess.
    1     4.183e+00  
    2     5.539e+00  
    3     1.029e+00  
    4     2.555e-01  
    5     6.534e-02  
    6     2.671e-02  
    7     8.114e-03  
    8     1.453e-03  
    9     5.360e-04  
   10     9.115e-05  
   11     2.883e-05  
   12     5.409e-06  
   13     2.178e-06  
   14     9.931e-07  Converged.
   ... Converged in 14 steps (norm: 9.93106e-07)
------------------------------------
  Starting TPA DIIS iterations ... 
------------------------------------ 
   It     Res. Norm  Remark
------------------------------------
                       Guess.
    1     6.887e-01  
    2     4.849e-01  
    3     1.712e-01  
    4     7.243e-02  
    5     1.806e-02  
    6     6.435e-03  
    7     1.041e-03  
    8     4.488e-04  
    9     1.238e-04  
   10     2.978e-05  
   11     4.947e-06  
   12     1.633e-06  
   13     9.157e-07  Converged.
   ... Converged in 13 steps (norm: 9.15723e-07)
------------------------------------
  Starting TPA DIIS iterations ... 
------------------------------------ 
   It     Res. Norm  Remark
------------------------------------
                       Guess.
    1     4.693e+00  
    2     6.357e+00  
    3     1.158e+00  
    4     2.854e-01  
    5     7.408e-02  
    6     3.043e-02  
    7     9.346e-03  
    8     1.642e-03  
    9     6.124e-04  
   10     1.072e-04  
   11     3.384e-05  
   12     7.486e-06  
   13     2.533e-06  
   14     1.609e-06  
   15     3.515e-07  Converged.
   ... Converged in 15 steps (norm: 3.515e-07)
------------------------------------
  Starting TPA DIIS iterations ... 
------------------------------------ 
   It     Res. Norm  Remark
------------------------------------
                       Guess.
    1     4.456e+00  
    2     6.028e+00  
    3     1.106e+00  
    4     2.837e-01  
    5     7.364e-02  
    6     3.038e-02  
    7     9.207e-03  
    8     1.646e-03  
    9     6.115e-04  
   10     1.048e-04  
   11     3.345e-05  
   12     6.480e-06  
   13     2.658e-06  
   14     1.235e-06  
   15     3.434e-07  Converged.
   ... Converged in 15 steps (norm: 3.43412e-07)
------------------------------------
  Starting TPA DIIS iterations ... 
------------------------------------ 
   It     Res. Norm  Remark
------------------------------------
                       Guess.
    1     7.009e-01  
    2     5.026e-01  
    3     1.812e-01  
    4     8.215e-02  
    5     1.942e-02  
    6     7.062e-03  
    7     1.176e-03  
    8     5.291e-04  
    9     1.496e-04  
   10     3.415e-05  
   11     5.588e-06  
   12     1.921e-06  
   13     1.133e-06  
   14     3.370e-07  Converged.
   ... Converged in 14 steps (norm: 3.36957e-07)
------------------------------------
  Starting TPA DIIS iterations ... 
------------------------------------ 
   It     Res. Norm  Remark
------------------------------------
                       Guess.
    1     4.806e+00  
    2     6.562e+00  
    3     1.190e+00  
    4     2.970e-01  
    5     7.744e-02  
    6     3.190e-02  
    7     9.792e-03  
    8     1.719e-03  
    9     6.432e-04  
   10     1.130e-04  
   11     3.581e-05  
   12     8.047e-06  
   13     2.744e-06  
   14     1.760e-06  
   15     3.847e-07  Converged.
   ... Converged in 15 steps (norm: 3.84652e-07)
------------------------------------
  Starting TPA DIIS iterations ... 
------------------------------------ 
   It     Res. Norm  Remark
------------------------------------
                       Guess.
    1     4.562e+00  
    2     6.222e+00  
    3     1.136e+00  
    4     2.951e-01  
    5     7.698e-02  
    6     3.187e-02  
    7     9.647e-03  
    8     1.724e-03  
    9     6.421e-04  
   10     1.103e-04  
   11     3.535e-05  
   12     6.931e-06  
   13     2.863e-06  
   14     1.339e-06  
   15     3.678e-07  Converged.
   ... Converged in 15 steps (norm: 3.67803e-07)
------------------------------------
  Starting TPA DIIS iterations ... 
------------------------------------ 
   It     Res. Norm  Remark
------------------------------------
                       Guess.
    1     7.054e-01  
    2     5.094e-01  
    3     1.851e-01  
    4     8.610e-02  
    5     1.995e-02  
    6     7.315e-03  
    7     1.231e-03  
    8     5.624e-04  
    9     1.603e-04  
   10     3.560e-05  
   11     5.840e-06  
   12     2.041e-06  
   13     1.225e-06  
   14     3.602e-07  Converged.
   ... Converged in 14 steps (norm: 3.60193e-07)
------------------------------------
  Starting TPA DIIS iterations ... 
------------------------------------ 
   It     Res. Norm  Remark
------------------------------------
                       Guess.
    1     5.546e+00  
    2     7.942e+00  
    3     1.397e+00  
    4     3.771e-01  
    5     1.008e-01  
    6     4.229e-02  
    7     1.290e-02  
    8     2.258e-03  
    9     8.598e-04  
   10     1.538e-04  
   11     5.024e-05  
   12     1.243e-05  
   13     4.475e-06  
   14     2.998e-06  
   15     6.658e-07  Converged.
   ... Converged in 15 steps (norm: 6.65837e-07)
------------------------------------
  Starting TPA DIIS iterations ... 
------------------------------------ 
   It     Res. Norm  Remark
------------------------------------
                       Guess.
    1     5.262e+00  
    2     7.529e+00  
    3     1.334e+00  
    4     3.740e-01  
    5     1.002e-01  
    6     4.230e-02  
    7     1.271e-02  
    8     2.264e-03  
    9     8.562e-04  
   10     1.493e-04  
   11     4.900e-05  
   12     1.037e-05  
   13     4.450e-06  
   14     2.166e-06  
   15     5.459e-07  Converged.
   ... Converged in 15 steps (norm: 5.45899e-07)
------------------------------------
  Starting TPA DIIS iterations ... 
------------------------------------ 
   It     Res. Norm  Remark
------------------------------------
                       Guess.
    1     7.326e-01  
    2     5.515e-01  
    3     2.098e-01  
    4     1.140e-01  
    5     2.350e-02  
    6     9.077e-03  
    7     1.631e-03  
    8     8.008e-04  
    9     2.356e-04  
   10     4.148e-05  
   11     7.545e-06  
   12     2.916e-06  
   13     1.940e-06  
   14     5.297e-07  Converged.
   ... Converged in 14 steps (norm: 5.29673e-07)
------------------------------------
  Starting TPA DIIS iterations ... 
------------------------------------ 
   It     Res. Norm  Remark
------------------------------------
                       Guess.
    1     6.056e+00  
    2     8.927e+00  
    3     1.540e+00  
    4     4.366e-01  
    5     1.181e-01  
    6     5.009e-02  
    7     1.520e-02  
    8     2.658e-03  
    9     1.023e-03  
   10     1.850e-04  
   11     6.164e-05  
   12     1.620e-05  
   13     6.082e-06  
   14     4.130e-06  
   15     9.334e-07  Converged.
   ... Converged in 15 steps (norm: 9.33375e-07)
------------------------------------
  Starting TPA DIIS iterations ... 
------------------------------------ 
   It     Res. Norm  Remark
------------------------------------
                       Guess.
    1     5.745e+00  
    2     8.464e+00  
    3     1.469e+00  
    4     4.325e-01  
    5     1.175e-01  
    6     5.015e-02  
    7     1.499e-02  
    8     2.664e-03  
    9     1.017e-03  
   10     1.788e-04  
   11     5.954e-05  
   12     1.324e-05  
   13     5.796e-06  
   14     2.890e-06  
   15     6.859e-07  Converged.
   ... Converged in 15 steps (norm: 6.85898e-07)
------------------------------------
  Starting TPA DIIS iterations ... 
------------------------------------ 
   It     Res. Norm  Remark
------------------------------------
                       Guess.
    1     7.491e-01  
    2     5.787e-01  
    3     2.264e-01  
    4     1.349e-01  
    5     2.605e-02  
    6     1.039e-02  
    7     1.945e-03  
    8     9.735e-04  
    9     2.891e-04  
   10     4.290e-05  
   11     8.797e-06  
   12     3.592e-06  
   13     2.529e-06  
   14     6.616e-07  Converged.
   ... Converged in 14 steps (norm: 6.61616e-07)
------------------------------------
  Starting TPA DIIS iterations ... 
------------------------------------ 
   It     Res. Norm  Remark
------------------------------------
                       Guess.
    1     6.556e+00  
    2     9.917e+00  
    3     1.678e+00  
    4     4.978e-01  
    5     1.359e-01  
    6     5.818e-02  
    7     1.757e-02  
    8     3.069e-03  
    9     1.193e-03  
   10     2.177e-04  
   11     7.392e-05  
   12     2.053e-05  
   13     8.040e-06  
   14     5.482e-06  
   15     1.262e-06  
   16     8.438e-07  Converged.
   ... Converged in 16 steps (norm: 8.43834e-07)
------------------------------------
  Starting TPA DIIS iterations ... 
------------------------------------ 
   It     Res. Norm  Remark
------------------------------------
                       Guess.
    1     6.219e+00  
    2     9.401e+00  
    3     1.601e+00  
    4     4.926e-01  
    5     1.352e-01  
    6     5.830e-02  
    7     1.733e-02  
    8     3.074e-03  
    9     1.183e-03  
   10     2.096e-04  
   11     7.067e-05  
   12     1.646e-05  
   13     7.312e-06  
   14     3.732e-06  
   15     8.368e-07  Converged.
   ... Converged in 15 steps (norm: 8.36765e-07)
------------------------------------
  Starting TPA DIIS iterations ... 
------------------------------------ 
   It     Res. Norm  Remark
------------------------------------
                       Guess.
    1     7.639e-01  
    2     6.041e-01  
    3     2.422e-01  
    4     1.564e-01  
    5     2.861e-02  
    6     1.175e-02  
    7     2.280e-03  
    8     1.138e-03  
    9     3.406e-04  
   10     4.357e-05  
   11     1.010e-05  
   12     4.297e-06  
   13     3.170e-06  
   14     8.008e-07  Converged.
   ... Converged in 14 steps (norm: 8.00761e-07)
------------------------------------
  Starting TPA DIIS iterations ... 
------------------------------------ 
   It     Res. Norm  Remark
------------------------------------
                       Guess.
    1     8.661e+00  
    2     1.432e+01  
    3     2.251e+00  
    4     7.828e-01  
    5     2.189e-01  
    6     9.671e-02  
    7     2.864e-02  
    8     4.988e-03  
    9     2.005e-03  
   10     3.781e-04  
   11     1.370e-04  
   12     4.643e-05  
   13     2.161e-05  
   14     1.423e-05  
   15     3.554e-06  
   16     1.959e-06  
   17     5.098e-07  Converged.
   ... Converged in 17 steps (norm: 5.0976e-07)
------------------------------------
  Starting TPA DIIS iterations ... 
------------------------------------ 
   It     Res. Norm  Remark
------------------------------------
                       Guess.
    1     8.212e+00  
    2     1.358e+01  
    3     2.145e+00  
    4     7.716e-01  
    5     2.181e-01  
    6     9.715e-02  
    7     2.826e-02  
    8     4.973e-03  
    9     1.968e-03  
   10     3.572e-04  
   11     1.248e-04  
   12     3.488e-05  
   13     1.576e-05  
   14     8.953e-06  
   15     1.687e-06  
   16     1.094e-06  
   17     3.345e-07  Converged.
   ... Converged in 17 steps (norm: 3.34468e-07)
------------------------------------
  Starting TPA DIIS iterations ... 
------------------------------------ 
   It     Res. Norm  Remark
------------------------------------
                       Guess.
    1     8.150e-01  
    2     7.010e-01  
    3     3.051e-01  
    4     2.513e-01  
    5     4.019e-02  
    6     1.800e-02  
    7     3.956e-03  
    8     1.663e-03  
    9     5.388e-04  
   10     5.243e-05  
   11     1.651e-05  
   12     7.548e-06  
   13     6.416e-06  
   14     1.466e-06  
   15     5.312e-07  Converged.
   ... Converged in 15 steps (norm: 5.31246e-07)
------------------------------------
  Starting TPA DIIS iterations ... 
------------------------------------ 
   It     Res. Norm  Remark
------------------------------------
                       Guess.
    1     1.049e+01  
    2     1.842e+01  
    3     2.734e+00  
    4     1.058e+00  
    5     2.999e-01  
    6     1.351e-01  
    7     3.942e-02  
    8     6.865e-03  
    9     2.824e-03  
   10     5.445e-04  
   11     2.060e-04  
   12     7.996e-05  
   13     4.205e-05  
   14     2.635e-05  
   15     6.909e-06  
   16     3.235e-06  
   17     8.965e-07  Converged.
   ... Converged in 17 steps (norm: 8.96547e-07)
------------------------------------
  Starting TPA DIIS iterations ... 
------------------------------------ 
   It     Res. Norm  Remark
------------------------------------
                       Guess.
    1     9.941e+00  
    2     1.746e+01  
    3     2.605e+00  
    4     1.040e+00  
    5     2.988e-01  
    6     1.360e-01  
    7     3.891e-02  
    8     6.809e-03  
    9     2.745e-03  
   10     5.060e-04  
   11     1.792e-04  
   12     5.780e-05  
   13     2.566e-05  
   14     1.621e-05  
   15     2.919e-06  
   16     2.279e-06  
   17     7.336e-07  Converged.
   ... Converged in 17 steps (norm: 7.33637e-07)
------------------------------------
  Starting TPA DIIS iterations ... 
------------------------------------ 
   It     Res. Norm  Remark
------------------------------------
                       Guess.
    1     8.496e-01  
    2     7.757e-01  
    3     3.559e-01  
    4     3.301e-01  
    5     5.100e-02  
    6     2.371e-02  
    7     5.653e-03  
    8     1.882e-03  
    9     6.914e-04  
   10     7.014e-05  
   11     2.308e-05  
   12     1.060e-05  
   13     9.807e-06  
   14     2.102e-06  
   15     7.462e-07  Converged.
   ... Converged in 15 steps (norm: 7.46234e-07)
------------------------------------
  Starting TPA DIIS iterations ... 
------------------------------------ 
   It     Res. Norm  Remark
------------------------------------
                       Guess.
    1     1.142e+01  
    2     2.062e+01  
    3     2.979e+00  
    4     1.207e+00  
    5     3.441e-01  
    6     1.564e-01  
    7     4.532e-02  
    8     7.895e-03  
    9     3.282e-03  
   10     6.392e-04  
   11     2.467e-04  
   12     1.015e-04  
   13     5.591e-05  
   14     3.426e-05  
   15     9.032e-06  
   16     3.985e-06  
   17     1.099e-06  
   18     4.397e-07  Converged.
   ... Converged in 18 steps (norm: 4.39663e-07)
------------------------------------
  Starting TPA DIIS iterations ... 
------------------------------------ 
   It     Res. Norm  Remark
------------------------------------
                       Guess.
    1     1.083e+01  
    2     1.955e+01  
    3     2.837e+00  
    4     1.185e+00  
    5     3.430e-01  
    6     1.575e-01  
    7     4.473e-02  
    8     7.809e-03  
    9     3.174e-03  
   10     5.890e-04  
   11     2.095e-04  
   12     7.228e-05  
   13     3.171e-05  
   14     2.113e-05  
   15     3.833e-06  
   16     3.222e-06  
   17     9.884e-07  Converged.
   ... Converged in 17 steps (norm: 9.8845e-07)
------------------------------------
  Starting TPA DIIS iterations ... 
------------------------------------ 
   It     Res. Norm  Remark
------------------------------------
                       Guess.
    1     8.650e-01  
    2     8.117e-01  
    3     3.808e-01  
    4     3.668e-01  
    5     5.675e-02  
    6     2.661e-02  
    7     6.578e-03  
    8     1.941e-03  
    9     7.655e-04  
   10     8.085e-05  
   11     2.675e-05  
   12     1.228e-05  
   13     1.179e-05  
   14     2.436e-06  
   15     8.714e-07  Converged.
   ... Converged in 15 steps (norm: 8.71403e-07)
------------------------------------
  Starting TPA DIIS iterations ... 
------------------------------------ 
   It     Res. Norm  Remark
------------------------------------
                       Guess.
    1     1.239e+01  
    2     2.295e+01  
    3     3.227e+00  
    4     1.365e+00  
    5     3.914e-01  
    6     1.794e-01  
    7     5.162e-02  
    8     9.001e-03  
    9     3.778e-03  
   10     7.428e-04  
   11     2.926e-04  
   12     1.267e-04  
   13     7.234e-05  
   14     4.351e-05  
   15     1.139e-05  
   16     4.862e-06  
   17     1.300e-06  
   18     5.335e-07  Converged.
   ... Converged in 18 steps (norm: 5.33495e-07)
------------------------------------
  Starting TPA DIIS iterations ... 
------------------------------------ 
   It     Res. Norm  Remark
------------------------------------
                       Guess.
    1     1.175e+01  
    2     2.175e+01  
    3     3.073e+00  
    4     1.338e+00  
    5     3.902e-01  
    6     1.807e-01  
    7     5.095e-02  
    8     8.875e-03  
    9     3.634e-03  
   10     6.788e-04  
   11     2.424e-04  
   12     8.919e-05  
   13     3.869e-05  
   14     2.713e-05  
   15     5.021e-06  
   16     4.487e-06  
   17     1.281e-06  
   18     3.407e-07  Converged.
   ... Converged in 18 steps (norm: 3.40702e-07)
------------------------------------
  Starting TPA DIIS iterations ... 
------------------------------------ 
   It     Res. Norm  Remark
------------------------------------
                       Guess.
    1     8.797e-01  
    2     8.476e-01  
    3     4.058e-01  
    4     4.014e-01  
    5     6.278e-02  
    6     2.949e-02  
    7     7.553e-03  
    8     1.985e-03  
    9     8.396e-04  
   10     9.231e-05  
   11     3.073e-05  
   12     1.414e-05  
   13     1.407e-05  
   14     2.780e-06  
   15     1.021e-06  
   16     3.956e-07  Converged.
   ... Converged in 16 steps (norm: 3.95613e-07)
------------------------------------
  Two-photon absorbption ...  CPU 74.09 s  wall 18.44 s
  Transition density matrix of state singlet_A_1 printed to ASCII file 'State_singlet_A_1_Transition.txt'
  Transition density matrix of state singlet_A_2 printed to ASCII file 'State_singlet_A_2_Transition.txt'
  Transition density matrix of state singlet_A_3 printed to ASCII file 'State_singlet_A_3_Transition.txt'
  Transition density matrix of state singlet_A_4 printed to ASCII file 'State_singlet_A_4_Transition.txt'
  Transition density matrix of state singlet_A_5 printed to ASCII file 'State_singlet_A_5_Transition.txt'
  Transition density matrix of state singlet_A_6 printed to ASCII file 'State_singlet_A_6_Transition.txt'
  Transition density matrix of state singlet_A_7 printed to ASCII file 'State_singlet_A_7_Transition.txt'
  Transition density matrix of state singlet_A_8 printed to ASCII file 'State_singlet_A_8_Transition.txt'
  Transition density matrix of state singlet_A_9 printed to ASCII file 'State_singlet_A_9_Transition.txt'
  Transition density matrix of state singlet_A_10 printed to ASCII file 'State_singlet_A_10_Transition.txt'
  Transition properties ...  CPU 0.16 s  wall 0.72 s
  Difference density matrix of state singlet_A_1 printed to ASCII file 'State_singlet_A_1_Difference.txt'
  Total density matrix of state singlet_A_1 printed to ASCII file 'State_singlet_A_1_Total.txt'
  Difference density matrix of state singlet_A_2 printed to ASCII file 'State_singlet_A_2_Difference.txt'
  Total density matrix of state singlet_A_2 printed to ASCII file 'State_singlet_A_2_Total.txt'
  Difference density matrix of state singlet_A_3 printed to ASCII file 'State_singlet_A_3_Difference.txt'
  Total density matrix of state singlet_A_3 printed to ASCII file 'State_singlet_A_3_Total.txt'
  Difference density matrix of state singlet_A_4 printed to ASCII file 'State_singlet_A_4_Difference.txt'
  Total density matrix of state singlet_A_4 printed to ASCII file 'State_singlet_A_4_Total.txt'
  Difference density matrix of state singlet_A_5 printed to ASCII file 'State_singlet_A_5_Difference.txt'
  Total density matrix of state singlet_A_5 printed to ASCII file 'State_singlet_A_5_Total.txt'
  Difference density matrix of state singlet_A_6 printed to ASCII file 'State_singlet_A_6_Difference.txt'
  Total density matrix of state singlet_A_6 printed to ASCII file 'State_singlet_A_6_Total.txt'
  Difference density matrix of state singlet_A_7 printed to ASCII file 'State_singlet_A_7_Difference.txt'
  Total density matrix of state singlet_A_7 printed to ASCII file 'State_singlet_A_7_Total.txt'
  Difference density matrix of state singlet_A_8 printed to ASCII file 'State_singlet_A_8_Difference.txt'
  Total density matrix of state singlet_A_8 printed to ASCII file 'State_singlet_A_8_Total.txt'
  Difference density matrix of state singlet_A_9 printed to ASCII file 'State_singlet_A_9_Difference.txt'
  Total density matrix of state singlet_A_9 printed to ASCII file 'State_singlet_A_9_Total.txt'
  Difference density matrix of state singlet_A_10 printed to ASCII file 'State_singlet_A_10_Difference.txt'
  Total density matrix of state singlet_A_10 printed to ASCII file 'State_singlet_A_10_Total.txt'
  Properties ...  CPU 0.30 s  wall 0.64 s
  ISR TDMS ...  CPU 8.79 s  wall 3.13 s
  ISR transition properties ...  CPU 0.17 s  wall 0.08 s
  Sum-over-states TPA ...  CPU 0.00 s  wall 0.00 s

--------------------------------------------------------------------------------
                   State-averaged natural transition orbitals
--------------------------------------------------------------------------------
--------------------------------------------------------------------------------
  SA-NTO decomposition ...  CPU 0.01 s  wall 0.02 s

--------------------------------------------------------------------------------
                             Excited State Summary
--------------------------------------------------------------------------------
--------------------------------------------------------------------------------

  Excited state 1 (singlet, A)                                     [converged]
  ----------------------------------------------------------------------------
  Term symbol:  2 (1) A                                     R^2 =  1.91178e-13

  Total energy:                                            -77.9985726405 a.u.
  Excitation energy:                                               8.736635 eV

  Osc. strength:                                                      0.445022
  Trans. dip. moment [a.u.]:           [  -1.044981,    0.993497,    0.009791]
  <i|r^2|0> [a.u.]:                    [  -6.159173,    0.250427,   -0.005406]
  Two-photon absorption cross-section (SoS) [a.u.]:                   0.000605
  Two-photon absorption matrix (SoS) [a.u.]:
                                       |   -0.005451    0.002528    0.002229 |
                                       |    0.002528   -0.000983   -0.001327 |
                                       |    0.002229   -0.001327   -0.005179 |
  Two-photon absorption cross-section [a.u.]:                         0.005804
  Two-photon absorption matrix [a.u.]:
                                       |   -0.002212    0.001261    0.022567 |
                                       |    0.001261    0.004775    0.014122 |
                                       |    0.022567    0.014122   -0.000272 |

  Dip. moment [a.u.]:                  [  -0.000988,    0.000237,    0.003882]
  Total dipole [Debye]:                                               0.010200
  <r^2> [a.u.]:                        [ 176.117643,   35.647451,   11.873888]
  Total <r^2> [a.u.]:                                               223.638982

  V1^2 = 0.9714, V2^2 = 0.0286

  Important amplitudes:
      occ i     occ j     vir a      vir b          v   
    -----------------------------------------------------
     8 (A) A              9 (A) A                -0.6808
     6 (A) A             14 (A) A                 0.0623
     4 (A) A             10 (A) A                 0.0606
     7 (A) A             16 (A) A                -0.0569
     5 (A) A             13 (A) A                 0.0513
     6 (A) A             23 (A) A                 0.0486
     8 (A) A             20 (A) A                -0.0349
     6 (A) A             19 (A) A                 0.0308
     3 (A) A             12 (A) A                -0.0281
     5 (A) A             22 (A) A                -0.0215
     7 (A) A              9 (A) A                -0.0211
     7 (A) A             11 (A) A                -0.0209
     4 (A) A             24 (A) A                 0.0187
     3 (A) A             26 (A) A                 0.0185
     8 (A) A   8 (A) B   17 (A) A   20 (A) B      0.0184
     8 (A) A   8 (A) B    9 (A) A   28 (A) B      0.0167
     6 (A) A             26 (A) A                 0.0163
     7 (A) A             21 (A) A                -0.0148
     3 (A) A             14 (A) A                 0.0139
     6 (A) A             12 (A) A                 0.0132
     3 (A) A   4 (A) B    9 (A) A    9 (A) B     -0.0129
     3 (A) A             19 (A) A                 0.0119
     8 (A) A   8 (A) B   18 (A) A   19 (A) B     -0.0113
     7 (A) A             32 (A) A                -0.0096
     7 (A) A             36 (A) A                -0.0086
     3 (A) A             23 (A) A                 0.0081
     8 (A) A   8 (A) B   25 (A) A   29 (A) B     -0.0076
     6 (A) A             35 (A) A                 0.0072
     6 (A) A             40 (A) A                 0.0068
     3 (A) A   6 (A) B    9 (A) A   28 (A) B      0.0064
     6 (A) A   8 (A) A   19 (A) A   28 (A) A      0.0060
     5 (A) A   7 (A) B    9 (A) A    9 (A) B      0.0060
     5 (A) A   8 (A) B   11 (A) A   20 (A) B      0.0059
     7 (A) A   8 (A) B   13 (A) A   20 (A) B     -0.0059
     5 (A) A   8 (A) B   16 (A) A    9 (A) B      0.0059
     5 (A) A   8 (A) B   11 (A) A    9 (A) B     -0.0059
     3 (A) A   5 (A) B    9 (A) A   25 (A) B      0.0058
     3 (A) A             40 (A) A                 0.0057
     7 (A) A   8 (A) B   22 (A) A   20 (A) B      0.0057
     6 (A) A   8 (A) A    9 (A) A   18 (A) A      0.0057
    -----------------------------------------------------

  Density matrix analysis:
  ------------------------
  NOs
    Occupation of frontier NOs:
       0.9496   1.0217
    Number of electrons: 16.000000
    Number of unpaired electrons: n_u =  2.31347, n_u,nl =  2.03265
    NO participation ratio (PR_NO):  2.863877
  
  
  Mulliken Population Analysis
  Atom      Charge (e)              h+              e-           Del q
  --------------------------------------------------------------------
   1 H        0.058984        0.020400       -0.012542        0.007858
   2 C       -0.116493        0.490596       -0.506050       -0.015454
   3 H        0.058271        0.020299       -0.012609        0.007690
   4 C       -0.117160        0.490420       -0.506224       -0.015805
   5 H        0.057889        0.020307       -0.012550        0.007757
   6 H        0.058509        0.020465       -0.012511        0.007954
  --------------------------------------------------------------------
  Sum:        0.000000        1.062487       -1.062487       -0.000000
  
  Multipole moment analysis of the density matrix
    Molecular charge:                      0.000000
    Number of electrons:                   16.000000
      Center of electronic charge [Ang]: [ -1.560544,  -0.065610,   0.002475]
    Total nuclear charge:                  16.000000
      Center of nuclear charge [Ang]:    [ -1.560576,  -0.065602,   0.002603]
    Dipole moment [D]:                     0.010200
      Cartesian components [D]:          [ -0.002512,   0.000603,   0.009867]
    RMS size of the density [Ang]:         1.214279
      Cartesian components [Ang]:        [  0.804411,   0.787140,   0.455860]
  
  Exciton analysis of the difference density matrix
    <r_h> [Ang]:                  [ -1.560186,  -0.065751,   0.000914]
    <r_e> [Ang]:                  [ -1.560182,  -0.065643,   0.000551]
    |<r_e - r_h>| [Ang]:            0.000379
    Hole size [Ang]:                1.285720
      Cartesian components [Ang]: [  0.729037,   0.712997,   0.783081]
    Electron size [Ang]:            1.463176
      Cartesian components [Ang]: [  0.854076,   0.830517,   0.849518]

  Transition density matrix analysis:
  -----------------------------------
  
  CT numbers (Mulliken)
    omega =     0.9535
    <Phe> =    -0.1605
  
  Exciton analysis of the transition density matrix
    Trans. dipole moment [D]:             1.832490
      Cartesian components [D]:         [ -1.328038,   1.262608,   0.012443]
    <r_h> [Ang]:                        [ -1.560055,  -0.065882,   0.001185]
    <r_e> [Ang]:                        [ -1.560178,  -0.065609,   0.000295]
    |<r_e - r_h>| [Ang]:                  0.000939
    Hole size [Ang]:                      1.214569
      Cartesian components [Ang]:       [  0.650406,   0.636983,   0.803992]
    Electron size [Ang]:                  1.485975
      Cartesian components [Ang]:       [  0.864513,   0.839377,   0.869589]
    RMS electron-hole separation [Ang]:   1.936875
      Cartesian components [Ang]:       [  1.107235,   1.075380,   1.170074]
    Covariance(r_h, r_e) [Ang^2]:        -0.034092
    Correlation coefficient:             -0.018889
    Center-of-mass size [Ang]:            0.950673
      Cartesian components [Ang]:       [  0.527933,   0.515791,   0.599188]

  Decomposition into state-averaged NTOs
    H- 0 -> L+ 0:  0.6696 ( 89.7%)
    H- 2 -> L+ 5:  0.0836 (  1.4%)
                   omega =  95.3%
  ----------------------------------------------------------------------------


  Excited state 2 (singlet, A)                                     [converged]
  ----------------------------------------------------------------------------
  Term symbol:  3 (1) A                                     R^2 =  2.13839e-13

  Total energy:                                            -77.9869016218 a.u.
  Excitation energy:                                               9.054220 eV

  Osc. strength:                                                      0.000557
  Trans. dip. moment [a.u.]:           [  -0.037851,    0.032800,    0.001548]
  <i|r^2|0> [a.u.]:                    [  -0.285917,   -0.084716,    0.155634]
  Two-photon absorption cross-section (SoS) [a.u.]:                   4.906415
  Two-photon absorption matrix (SoS) [a.u.]:
                                       |   -0.045959   -0.060348    0.542424 |
                                       |   -0.060348   -0.075644    0.551468 |
                                       |    0.542424    0.551468    0.121674 |
  Two-photon absorption cross-section [a.u.]:                         0.079685
  Two-photon absorption matrix [a.u.]:
                                       |    0.028048    0.008665   -0.057746 |
                                       |    0.008665   -0.012922   -0.077170 |
                                       |   -0.057746   -0.077170   -0.015417 |

  Dip. moment [a.u.]:                  [  -0.005591,    0.007519,    0.007408]
  Total dipole [Debye]:                                               0.030361
  <r^2> [a.u.]:                        [ 174.514065,   33.976066,   13.174208]
  Total <r^2> [a.u.]:                                               221.664339

  V1^2 = 0.9542, V2^2 = 0.0458

  Important amplitudes:
      occ i     occ j     vir a      vir b          v   
    -----------------------------------------------------
     7 (A) A              9 (A) A                 0.6689
     8 (A) A             11 (A) A                 0.1484
     7 (A) A             20 (A) A                 0.0758
     5 (A) A   8 (A) B    9 (A) A    9 (A) B     -0.0316
     8 (A) A             16 (A) A                -0.0274
     8 (A) A              9 (A) A                -0.0206
     8 (A) A             21 (A) A                 0.0176
     5 (A) A             28 (A) A                -0.0149
     4 (A) A   7 (A) B    9 (A) A   19 (A) B     -0.0135
     5 (A) A   7 (A) B    9 (A) A   16 (A) B      0.0134
     7 (A) A   8 (A) B   20 (A) A   17 (A) B     -0.0105
     7 (A) A   8 (A) A    9 (A) A   28 (A) A      0.0097
     5 (A) A   8 (A) B    9 (A) A   20 (A) B     -0.0095
     4 (A) A   6 (A) B    9 (A) A   16 (A) B      0.0091
     5 (A) A   6 (A) A    9 (A) A   23 (A) A     -0.0091
     5 (A) A   6 (A) A    9 (A) A   14 (A) A     -0.0089
     5 (A) A   6 (A) B    9 (A) A   19 (A) B     -0.0087
     4 (A) A   5 (A) A    9 (A) A   10 (A) A      0.0085
     8 (A) A   7 (A) B    9 (A) A   28 (A) B     -0.0084
     6 (A) A   7 (A) B    9 (A) A   18 (A) B     -0.0083
     5 (A) A   6 (A) B    9 (A) A   23 (A) B     -0.0080
     3 (A) A   7 (A) B    9 (A) A   18 (A) B      0.0080
     5 (A) A   7 (A) A    9 (A) A   16 (A) A      0.0079
     4 (A) A   8 (A) B    9 (A) A   25 (A) B      0.0077
     7 (A) A   8 (A) B   17 (A) A   20 (A) B     -0.0074
     4 (A) A   7 (A) B   19 (A) A    9 (A) B     -0.0074
     5 (A) A   5 (A) B    9 (A) A   13 (A) B     -0.0072
     7 (A) A   8 (A) B   19 (A) A   18 (A) B      0.0072
     5 (A) A   8 (A) A    9 (A) A   20 (A) A     -0.0069
     4 (A) A   5 (A) B    9 (A) A   18 (A) B     -0.0068
     7 (A) A   7 (A) B   20 (A) A   22 (A) B     -0.0065
     7 (A) A   8 (A) B   17 (A) A    9 (A) B     -0.0065
     5 (A) A   6 (A) B    9 (A) A   14 (A) B     -0.0063
     4 (A) A   7 (A) A    9 (A) A   19 (A) A     -0.0061
     4 (A) A   5 (A) B   10 (A) A    9 (A) B     -0.0061
     5 (A) A             38 (A) A                -0.0060
     5 (A) A   7 (A) B   11 (A) A   20 (A) B     -0.0060
     4 (A) A   7 (A) B    9 (A) A   14 (A) B      0.0060
     4 (A) A   8 (A) A    9 (A) A   25 (A) A      0.0057
     6 (A) A   7 (A) A   19 (A) A   28 (A) A     -0.0056
    -----------------------------------------------------

  Density matrix analysis:
  ------------------------
  NOs
    Occupation of frontier NOs:
       0.9579   1.0538
    Number of electrons: 16.000000
    Number of unpaired electrons: n_u =  2.35531, n_u,nl =  2.06279
    NO participation ratio (PR_NO):  3.027924
  
  
  Mulliken Population Analysis
  Atom      Charge (e)              h+              e-           Del q
  --------------------------------------------------------------------
   1 H        0.148857        0.121732       -0.024002        0.097731
   2 C       -0.301858        0.271096       -0.471915       -0.200819
   3 H        0.152198        0.126700       -0.025083        0.101617
   4 C       -0.302146        0.273250       -0.474041       -0.200791
   5 H        0.153917        0.127733       -0.023949        0.103784
   6 H        0.149033        0.123300       -0.024822        0.098478
  --------------------------------------------------------------------
  Sum:        0.000000        1.043811       -1.043811       -0.000000
  
  Multipole moment analysis of the density matrix
    Molecular charge:                      0.000000
    Number of electrons:                   16.000000
      Center of electronic charge [Ang]: [ -1.560391,  -0.065851,   0.002358]
    Total nuclear charge:                  16.000000
      Center of nuclear charge [Ang]:    [ -1.560576,  -0.065602,   0.002603]
    Dipole moment [D]:                     0.030361
      Cartesian components [D]:          [ -0.014211,   0.019112,   0.018830]
    RMS size of the density [Ang]:         1.200149
      Cartesian components [Ang]:        [  0.787074,   0.768313,   0.480173]
  
  Exciton analysis of the difference density matrix
    <r_h> [Ang]:                  [ -1.564530,  -0.062758,   0.002917]
    <r_e> [Ang]:                  [ -1.562193,  -0.066340,   0.000760]
    |<r_e - r_h>| [Ang]:            0.004790
    Hole size [Ang]:                1.486171
      Cartesian components [Ang]: [  0.999450,   1.001263,   0.455275]
    Electron size [Ang]:            1.477267
      Cartesian components [Ang]: [  0.881752,   0.859243,   0.816414]

  Transition density matrix analysis:
  -----------------------------------
  
  CT numbers (Mulliken)
    omega =     0.9218
    <Phe> =    -0.0123
  
  Exciton analysis of the transition density matrix
    Trans. dipole moment [D]:             0.063683
      Cartesian components [D]:         [ -0.048104,   0.041685,   0.001968]
    <r_h> [Ang]:                        [ -1.565201,  -0.062220,   0.003402]
    <r_e> [Ang]:                        [ -1.561717,  -0.066827,   0.000274]
    |<r_e - r_h>| [Ang]:                  0.006569
    Hole size [Ang]:                      1.514695
      Cartesian components [Ang]:       [  1.022000,   1.025567,   0.445003]
    Electron size [Ang]:                  1.474350
      Cartesian components [Ang]:       [  0.872420,   0.848582,   0.832165]
    RMS electron-hole separation [Ang]:   2.093989
      Cartesian components [Ang]:       [  1.327885,   1.316217,   0.942912]
    Covariance(r_h, r_e) [Ang^2]:         0.041631
    Correlation coefficient:              0.018642
    Center-of-mass size [Ang]:            1.066685
      Cartesian components [Ang]:       [  0.679694,   0.672933,   0.472223]

  Decomposition into state-averaged NTOs
    H- 1 -> L+ 0:  0.6612 ( 87.4%)
    H- 0 -> L+ 2:  0.1484 (  4.4%)
                   omega =  92.2%
  ----------------------------------------------------------------------------


  Excited state 3 (singlet, A)                                     [converged]
  ----------------------------------------------------------------------------
  Term symbol:  4 (1) A                                     R^2 =  9.41063e-14

  Total energy:                                            -77.9826542923 a.u.
  Excitation energy:                                               9.169796 eV

  Osc. strength:                                                      0.025162
  Trans. dip. moment [a.u.]:           [  -0.020260,   -0.016835,    0.333631]
  <i|r^2|0> [a.u.]:                    [  -0.097973,   -0.020421,   -0.005053]
  Two-photon absorption cross-section (SoS) [a.u.]:                   0.135546
  Two-photon absorption matrix (SoS) [a.u.]:
                                       |    0.120739    0.004752    0.018192 |
                                       |    0.004752   -0.130792   -0.000447 |
                                       |    0.018192   -0.000447   -0.027855 |
  Two-photon absorption cross-section [a.u.]:                         0.075886
  Two-photon absorption matrix [a.u.]:
                                       |    0.075303    0.007464    0.018308 |
                                       |    0.007464   -0.105450   -0.002818 |
                                       |    0.018308   -0.002818   -0.016792 |

  Dip. moment [a.u.]:                  [  -0.001607,    0.012401,   -0.003626]
  Total dipole [Debye]:                                               0.033094
  <r^2> [a.u.]:                        [ 180.853840,   40.605456,   11.035240]
  Total <r^2> [a.u.]:                                               232.494535

  V1^2 = 0.9587, V2^2 = 0.0413

  Important amplitudes:
      occ i     occ j     vir a      vir b          v   
    -----------------------------------------------------
     8 (A) A             10 (A) A                -0.6891
     8 (A) A             24 (A) A                -0.0507
     8 (A) A             18 (A) A                 0.0313
     4 (A) A              9 (A) A                 0.0238
     8 (A) A   8 (A) B    9 (A) A   12 (A) B     -0.0219
     8 (A) A   8 (A) B   10 (A) A   17 (A) B     -0.0173
     8 (A) A             15 (A) A                -0.0169
     5 (A) A   8 (A) B   11 (A) A   10 (A) B     -0.0165
     7 (A) A   8 (A) B   13 (A) A   10 (A) B      0.0141
     4 (A) A   8 (A) B   12 (A) A   10 (A) B      0.0111
     6 (A) A   8 (A) A   10 (A) A   15 (A) A      0.0110
     7 (A) A   8 (A) B   22 (A) A   10 (A) B     -0.0108
     6 (A) A   8 (A) B   15 (A) A   10 (A) B     -0.0108
     4 (A) A   8 (A) A   10 (A) A   12 (A) A     -0.0106
     7 (A) A   8 (A) A   10 (A) A   22 (A) A      0.0099
     7 (A) A   8 (A) A   10 (A) A   13 (A) A     -0.0097
     5 (A) A   8 (A) B   21 (A) A   10 (A) B     -0.0094
     5 (A) A   8 (A) A   10 (A) A   11 (A) A      0.0094
     6 (A) A   8 (A) A   10 (A) A   18 (A) A      0.0088
     6 (A) A   8 (A) B   10 (A) A   10 (A) B      0.0087
     7 (A) A   8 (A) A   12 (A) A   16 (A) A     -0.0082
     5 (A) A   8 (A) A   10 (A) A   21 (A) A      0.0080
     3 (A) A   4 (A) B   10 (A) A    9 (A) B     -0.0079
     4 (A) A   8 (A) B   19 (A) A   10 (A) B     -0.0075
     8 (A) A   8 (A) B    9 (A) A   23 (A) B     -0.0075
     8 (A) A   8 (A) B   10 (A) A   28 (A) B      0.0072
     3 (A) A   8 (A) B   10 (A) A   10 (A) B     -0.0072
     5 (A) A   8 (A) B   10 (A) A   11 (A) B     -0.0071
     3 (A) A   8 (A) A   10 (A) A   24 (A) A      0.0071
     7 (A) A   8 (A) B   16 (A) A   12 (A) B      0.0070
     3 (A) A   8 (A) B   10 (A) A   18 (A) B      0.0069
     8 (A) A   8 (A) B    9 (A) A   19 (A) B      0.0068
     6 (A) A   8 (A) B   18 (A) A   10 (A) B     -0.0067
     3 (A) A   6 (A) B   10 (A) A   28 (A) B      0.0062
     7 (A) A   8 (A) B   12 (A) A   11 (A) B     -0.0058
     6 (A) A             28 (A) A                -0.0057
     3 (A) A   5 (A) B   10 (A) A   25 (A) B      0.0056
     5 (A) A   8 (A) A   10 (A) A   16 (A) A     -0.0056
     3 (A) A   8 (A) A   10 (A) A   18 (A) A      0.0056
     4 (A) A   8 (A) A   10 (A) A   23 (A) A     -0.0055
    -----------------------------------------------------

  Density matrix analysis:
  ------------------------
  NOs
    Occupation of frontier NOs:
       0.9814   0.9850
    Number of electrons: 16.000000
    Number of unpaired electrons: n_u =  2.28528, n_u,nl =  2.02441
    NO participation ratio (PR_NO):  2.691976
  
  
  Mulliken Population Analysis
  Atom      Charge (e)              h+              e-           Del q
  --------------------------------------------------------------------
   1 H       -0.162869        0.053876       -0.267871       -0.213995
   2 C        0.327360        0.539039       -0.110640        0.428399
   3 H       -0.165965        0.053753       -0.270299       -0.216546
   4 C        0.326547        0.537429       -0.109527        0.427902
   5 H       -0.162315        0.053950       -0.266397       -0.212447
   6 H       -0.162758        0.053911       -0.267224       -0.213313
  --------------------------------------------------------------------
  Sum:        0.000000        1.291958       -1.291958       -0.000000
  
  Multipole moment analysis of the density matrix
    Molecular charge:                      0.000000
    Number of electrons:                   16.000000
      Center of electronic charge [Ang]: [ -1.560523,  -0.066012,   0.002723]
    Total nuclear charge:                  16.000000
      Center of nuclear charge [Ang]:    [ -1.560576,  -0.065602,   0.002603]
    Dipole moment [D]:                     0.033094
      Cartesian components [D]:          [ -0.004084,   0.031521,  -0.009217]
    RMS size of the density [Ang]:         1.276507
      Cartesian components [Ang]:        [  0.854419,   0.840423,   0.439464]
  
  Exciton analysis of the difference density matrix
    <r_h> [Ang]:                  [ -1.559937,  -0.066145,   0.001616]
    <r_e> [Ang]:                  [ -1.559681,  -0.071039,   0.004393]
    |<r_e - r_h>| [Ang]:            0.005632
    Hole size [Ang]:                1.410251
      Cartesian components [Ang]: [  0.834077,   0.819774,   0.788095]
    Electron size [Ang]:            2.075929
      Cartesian components [Ang]: [  1.373253,   1.376647,   0.726981]

  Transition density matrix analysis:
  -----------------------------------
  
  CT numbers (Mulliken)
    omega =     0.9259
    <Phe> =    -0.0109
  
  Exciton analysis of the transition density matrix
    Trans. dipole moment [D]:             0.425322
      Cartesian components [D]:         [ -0.025747,  -0.021395,   0.424002]
    <r_h> [Ang]:                        [ -1.559758,  -0.065759,   0.000778]
    <r_e> [Ang]:                        [ -1.559309,  -0.072934,   0.005109]
    |<r_e - r_h>| [Ang]:                  0.008393
    Hole size [Ang]:                      1.212940
      Cartesian components [Ang]:       [  0.636629,   0.623496,   0.822909]
    Electron size [Ang]:                  2.296346
      Cartesian components [Ang]:       [  1.517924,   1.524169,   0.803752]
    RMS electron-hole separation [Ang]:   2.587108
      Cartesian components [Ang]:       [  1.638525,   1.639797,   1.148664]
    Covariance(r_h, r_e) [Ang^2]:         0.025685
    Correlation coefficient:              0.009221
    Center-of-mass size [Ang]:            1.303437
      Cartesian components [Ang]:       [  0.826743,   0.826861,   0.575974]

  Decomposition into state-averaged NTOs
    H- 0 -> L+ 1:  0.6798 ( 92.4%)
                   omega =  92.6%
  ----------------------------------------------------------------------------


  Excited state 4 (singlet, A)                                     [converged]
  ----------------------------------------------------------------------------
  Term symbol:  5 (1) A                                     R^2 =  3.03063e-13

  Total energy:                                            -77.9583078214 a.u.
  Excitation energy:                                               9.832297 eV

  Osc. strength:                                                      0.000091
  Trans. dip. moment [a.u.]:           [  -0.014392,    0.013116,    0.000808]
  <i|r^2|0> [a.u.]:                    [  -0.067087,    0.022987,   -0.037571]
  Two-photon absorption cross-section (SoS) [a.u.]:                 149.400290
  Two-photon absorption matrix (SoS) [a.u.]:
                                       |    0.275674    0.335251   -3.013739 |
                                       |    0.335251    0.395537   -3.022848 |
                                       |   -3.013739   -3.022848   -0.672588 |
  Two-photon absorption cross-section [a.u.]:                        91.766701
  Two-photon absorption matrix [a.u.]:
                                       |    0.199088    0.261688   -2.358825 |
                                       |    0.261688    0.326436   -2.371978 |
                                       |   -2.358825   -2.371978   -0.527113 |

  Dip. moment [a.u.]:                  [  -0.010624,   -0.003116,   -0.005488]
  Total dipole [Debye]:                                               0.031409
  <r^2> [a.u.]:                        [ 181.261175,   40.504707,   10.772837]
  Total <r^2> [a.u.]:                                               232.538719

  V1^2 = 0.9635, V2^2 = 0.0365

  Important amplitudes:
      occ i     occ j     vir a      vir b          v   
    -----------------------------------------------------
     8 (A) A             11 (A) A                -0.6696
     7 (A) A              9 (A) A                 0.1504
     8 (A) A             21 (A) A                -0.0781
     8 (A) A             16 (A) A                 0.0646
     8 (A) A   8 (A) B    9 (A) A   13 (A) B      0.0167
     5 (A) A   8 (A) B   11 (A) A   11 (A) B     -0.0155
     8 (A) A   8 (A) B   11 (A) A   17 (A) B     -0.0140
     7 (A) A             20 (A) A                 0.0137
     7 (A) A   8 (A) B   13 (A) A   11 (A) B      0.0127
     8 (A) A             12 (A) A                -0.0122
     5 (A) A   8 (A) A   11 (A) A   21 (A) A      0.0110
     4 (A) A   8 (A) B   12 (A) A   11 (A) B      0.0110
     8 (A) A   8 (A) B    9 (A) A   22 (A) B     -0.0107
     7 (A) A   8 (A) A   11 (A) A   22 (A) A      0.0096
     6 (A) A   8 (A) B   15 (A) A   11 (A) B     -0.0090
     6 (A) A   8 (A) B   10 (A) A   11 (A) B      0.0090
     7 (A) A   8 (A) B   22 (A) A   11 (A) B     -0.0089
     3 (A) A   4 (A) B   11 (A) A    9 (A) B     -0.0083
     3 (A) A   8 (A) B   11 (A) A   18 (A) B      0.0081
     6 (A) A   8 (A) A   11 (A) A   15 (A) A      0.0080
     6 (A) A              9 (A) A                -0.0079
     7 (A) A   8 (A) A   13 (A) A   16 (A) A      0.0078
     7 (A) A   8 (A) A   11 (A) A   13 (A) A     -0.0077
     5 (A) A   8 (A) B   21 (A) A   11 (A) B     -0.0071
     4 (A) A   8 (A) B   19 (A) A   11 (A) B     -0.0070
     5 (A) A   8 (A) B    9 (A) A    9 (A) B     -0.0068
     4 (A) A   8 (A) A   11 (A) A   12 (A) A     -0.0062
     6 (A) A   8 (A) A   11 (A) A   18 (A) A      0.0062
     3 (A) A   6 (A) B   11 (A) A   28 (A) B      0.0060
     6 (A) A   8 (A) B   18 (A) A   11 (A) B     -0.0060
     7 (A) A   8 (A) B   16 (A) A   13 (A) B     -0.0057
     3 (A) A   8 (A) A   11 (A) A   18 (A) A      0.0056
     5 (A) A   8 (A) B   10 (A) A   10 (A) B     -0.0056
     3 (A) A   8 (A) B   11 (A) A   30 (A) B      0.0055
     3 (A) A   5 (A) B   11 (A) A   25 (A) B      0.0054
     6 (A) A   8 (A) B   11 (A) A   10 (A) B      0.0054
     7 (A) A   8 (A) B   12 (A) A   10 (A) B     -0.0054
     8 (A) A   8 (A) B   20 (A) A   22 (A) B     -0.0053
     3 (A) A   8 (A) A   11 (A) A   24 (A) A      0.0053
     5 (A) A   8 (A) A   11 (A) A   16 (A) A     -0.0049
    -----------------------------------------------------

  Density matrix analysis:
  ------------------------
  NOs
    Occupation of frontier NOs:
       0.9406   1.0279
    Number of electrons: 16.000000
    Number of unpaired electrons: n_u =  2.31919, n_u,nl =  2.04919
    NO participation ratio (PR_NO):  2.915200
  
  
  Mulliken Population Analysis
  Atom      Charge (e)              h+              e-           Del q
  --------------------------------------------------------------------
   1 H       -0.146882        0.045764       -0.243772       -0.198008
   2 C        0.274515        0.497147       -0.121593        0.375554
   3 H       -0.128151        0.046967       -0.225699       -0.178732
   4 C        0.273060        0.496680       -0.122265        0.374415
   5 H       -0.129366        0.047092       -0.226591       -0.179499
   6 H       -0.143176        0.045840       -0.239571       -0.193731
  --------------------------------------------------------------------
  Sum:        0.000000        1.179490       -1.179490       -0.000000
  
  Multipole moment analysis of the density matrix
    Molecular charge:                      0.000000
    Number of electrons:                   16.000000
      Center of electronic charge [Ang]: [ -1.560225,  -0.065499,   0.002785]
    Total nuclear charge:                  16.000000
      Center of nuclear charge [Ang]:    [ -1.560576,  -0.065602,   0.002603]
    Dipole moment [D]:                     0.031409
      Cartesian components [D]:          [ -0.027003,  -0.007921,  -0.013950]
    RMS size of the density [Ang]:         1.277201
      Cartesian components [Ang]:        [  0.859123,   0.839413,   0.434207]
  
  Exciton analysis of the difference density matrix
    <r_h> [Ang]:                  [ -1.560075,  -0.065504,   0.001500]
    <r_e> [Ang]:                  [ -1.555749,  -0.063902,   0.005377]
    |<r_e - r_h>| [Ang]:            0.006026
    Hole size [Ang]:                1.394879
      Cartesian components [Ang]: [  0.818433,   0.806847,   0.790477]
    Electron size [Ang]:            2.124070
      Cartesian components [Ang]: [  1.443179,   1.402776,   0.679063]

  Transition density matrix analysis:
  -----------------------------------
  
  CT numbers (Mulliken)
    omega =     0.9298
    <Phe> =    -0.0135
  
  Exciton analysis of the transition density matrix
    Trans. dipole moment [D]:             0.024767
      Cartesian components [D]:         [ -0.018290,   0.016669,   0.001027]
    <r_h> [Ang]:                        [ -1.560355,  -0.065571,   0.000875]
    <r_e> [Ang]:                        [ -1.554956,  -0.063467,   0.005957]
    |<r_e - r_h>| [Ang]:                  0.007708
    Hole size [Ang]:                      1.227995
      Cartesian components [Ang]:       [  0.658013,   0.650380,   0.807464]
    Electron size [Ang]:                  2.262064
      Cartesian components [Ang]:       [  1.537644,   1.494054,   0.721379]
    RMS electron-hole separation [Ang]:   2.563207
      Cartesian components [Ang]:       [  1.663955,   1.621694,   1.082307]
    Covariance(r_h, r_e) [Ang^2]:         0.027469
    Correlation coefficient:              0.009889
    Center-of-mass size [Ang]:            1.292270
      Cartesian components [Ang]:       [  0.840527,   0.818611,   0.541619]

  Decomposition into state-averaged NTOs
    H- 0 -> L+ 2: -0.6649 ( 88.4%)
    H- 1 -> L+ 0:  0.1484 (  4.4%)
                   omega =  93.0%
  ----------------------------------------------------------------------------


  Excited state 5 (singlet, A)                                     [converged]
  ----------------------------------------------------------------------------
  Term symbol:  6 (1) A                                     R^2 =  1.45123e-13

  Total energy:                                            -77.9443823523 a.u.
  Excitation energy:                                              10.211228 eV

  Osc. strength:                                                      0.000002
  Trans. dip. moment [a.u.]:           [   0.001408,    0.002267,    0.000116]
  <i|r^2|0> [a.u.]:                    [  -0.083648,    0.106684,   -0.012572]
  Two-photon absorption cross-section (SoS) [a.u.]:                 177.887364
  Two-photon absorption matrix (SoS) [a.u.]:
                                       |   -0.311493   -0.047733    3.339045 |
                                       |   -0.047733    0.422079   -3.308195 |
                                       |    3.339045   -3.308195   -0.065989 |
[...]
    16   -1.789445832730e-03
    17   -1.751852495742e-03
    18   -6.346571418950e-05
    19   -3.311497377041e-03
    20    1.086033909300e-02
    21    9.347192203928e-01
    22   -2.835127287134e-04
    23    1.398833126325e-02
    24    7.926625173491e-04
    25    7.020656479825e-02
    26   -5.220916528365e-02
    27   -1.398161787002e+00
    28    9.776475126286e-02
    29   -9.281276423114e-02
    30   -3.232887900744e-04
    31    3.843086829828e-01
    32   -3.630486996757e-01
    33   -1.087805616993e-03
    34    1.562725783909e-02
    35   -1.497426638254e-03
    36   -1.693074615375e-03
    37   -5.070349845433e-05
    38   -3.123567970331e-03
    39    9.932035036219e-03
    40    9.323070597580e-01
    41    2.405088578173e-04
    42   -1.393301399160e-02
    43   -7.835488090269e-04
    44    1.000298347922e-02
    45    9.385073960627e-01
    46    1.410465073362e-02
    47    3.632630489901e-04
    48    6.997467984978e-04
Sym=X
Ene= 0.232933
Spin=Alpha
Occup=0
     1    2.629628457481e-02
     2    1.235944401184e+00
     3   -1.432833895337e-02
     4   -3.831600503752e-03
     5   -1.052305197058e-03
     6    3.258349003978e-03
     7   -3.667212501188e-03
     8   -5.118472881701e-02
     9   -1.549256617884e-01
    10   -1.584068545936e-01
    11   -1.866887933234e-02
    12   -5.564345652881e-01
    13   -5.576391489114e-01
    14   -6.704231508117e-02
    15    5.394518069901e-04
    16   -2.664614020798e-04
    17   -1.294166842467e-04
    18   -1.986576242420e-04
    19   -3.540693078456e-04
    20   -2.495846284355e-02
    21   -1.157911845396e+00
    22   -2.478275252890e-03
    23   -1.352789056672e-02
    24   -9.896151039037e-04
    25   -3.056192915010e-03
    26    3.473804944352e-03
    27    4.618122122566e-02
    28   -1.541729183676e-01
    29   -1.587752868158e-01
    30   -1.606630532114e-02
    31   -5.488292765581e-01
    32   -5.544379305879e-01
    33   -5.580320968391e-02
    34   -5.557312853679e-04
    35    5.999148385879e-05
    36    1.520498488491e-04
    37    3.755971451709e-04
    38    3.791917632658e-04
    39    2.503132689573e-02
    40    1.153984307088e+00
    41   -2.439344549146e-03
    42   -1.355948476813e-02
    43   -8.588276884309e-04
    44   -2.630606919059e-02
    45   -1.225588588532e+00
    46   -1.428825119839e-02
    47   -3.793093487225e-03
    48   -8.870278907997e-04
Sym=X
Ene= 0.239398
Spin=Alpha
Occup=0
     1   -1.598821774939e-02
     2   -1.046178430355e+00
     3    1.642665926827e-02
     4    9.073808418915e-03
     5    1.514964693761e-03
     6   -8.647805153119e-02
     7    7.973737417684e-02
     8    1.591736669664e+00
     9    5.266233202511e-02
    10   -6.114004194536e-02
    11    6.146888878614e-04
    12    2.086297864057e-01
    13   -2.376090520665e-01
    14    2.698157867778e-03
    15   -2.248932729522e-02
    16    2.893371063186e-03
    17    2.979069567117e-03
    18   -5.540396861699e-04
    19    1.284755638640e-02
    20   -1.713517528988e-02
    21   -1.128052711456e+00
    22   -8.530935955266e-03
    23   -1.780894006083e-02
    24   -1.409983110187e-03
    25    8.646295242606e-02
    26   -7.932358897611e-02
    27   -1.596818173558e+00
    28    5.298786210034e-02
    29   -6.165562810258e-02
    30   -1.955403672314e-03
    31    2.099071643388e-01
    32   -2.424286288594e-01
    33   -8.207020527711e-03
    34    2.260978299760e-02
    35   -2.550318743801e-03
    36   -3.134472825499e-03
    37    7.269432784577e-04
    38   -1.279286976732e-02
    39    1.685381979024e-02
    40    1.134536344024e+00
    41   -8.627975767563e-03
    42   -1.794192572143e-02
    43   -1.548243498042e-03
    44    1.559869981474e-02
    45    1.045583525420e+00
    46    1.639831558227e-02
    47    9.259462326975e-03
    48    1.304626100495e-03
Sym=X
Ene= 0.303255
Spin=Alpha
Occup=0
     1   -2.068293790691e-02
     2    1.689809175048e+00
     3   -2.289924221760e-02
     4    2.747769836216e-04
     5   -1.241043974078e-03
     6   -2.023737932220e-04
     7    1.791247732679e-04
     8    2.922771759806e-03
     9   -1.338119332518e-01
    10   -1.394779358264e-01
    11   -1.585926335230e-02
    12   -1.143275637296e+00
    13   -1.193386076721e+00
    14   -1.319492028930e-01
    15   -2.006072503492e-04
    16   -2.033364610938e-03
    17    1.654640971347e-03
    18   -3.263280109582e-02
    19   -1.532578900919e-03
    20    2.002522290378e-02
    21   -1.689474384758e+00
    22    1.411617610538e-03
    23   -2.290179500928e-02
    24   -1.308292330223e-03
    25    7.273146376701e-05
    26    2.695577949176e-04
    27   -8.196715802322e-03
    28    1.347426076907e-01
    29    1.403404836478e-01
    30    1.454234892669e-02
    31    1.139964822001e+00
    32    1.197552989985e+00
    33    1.272828793244e-01
    34    7.769829828082e-05
    35   -1.543153306981e-03
    36    2.011121829904e-03
    37   -3.250686599017e-02
    38   -1.696330717221e-03
    39    1.961050850534e-02
    40   -1.692591839042e+00
    41   -1.615354939810e-03
    42    2.284202015075e-02
    43    1.323247597202e-03
    44   -2.014289836526e-02
    45    1.698822146037e+00
    46    2.304987548498e-02
    47   -3.579057492968e-04
    48    1.009800146898e-03
Sym=X
Ene= 0.462011
Spin=Alpha
Occup=0
     1   -1.159748690578e-01
     2   -7.126323689546e-01
     3   -1.567217512616e-02
     4   -1.031730268448e-02
     5   -1.444675374178e-03
     6    6.080049079704e-02
     7    1.743608123620e-02
     8   -3.592315014535e+00
     9    1.029205701494e-01
    10   -9.905665546011e-02
    11    7.012816825361e-04
    12    2.425203166672e+00
    13   -2.303348614713e+00
    14   -1.718266103623e-02
    15    5.363216869361e-02
    16   -3.794242616660e-03
    17   -4.974008482557e-03
    18   -7.904332169670e-04
    19    1.803150816822e-02
    20   -1.212675503187e-01
    21   -7.025343515921e-01
    22    8.735184405687e-03
    23    1.636986989023e-02
    24    1.552537743076e-03
    25   -6.093545832406e-02
    26   -1.628806662947e-02
    27    3.591001276092e+00
    28    1.051572093398e-01
    29   -1.004748774356e-01
    30   -8.513466480422e-04
    31    2.422629559539e+00
    32   -2.297730209488e+00
    33   -2.411998377296e-02
    34   -5.271310863364e-02
    35    3.366789896493e-03
    36    4.239049348472e-03
    37    6.503485421701e-04
    38   -1.904928127385e-02
    39    1.150756865974e-01
    40    7.090162365243e-01
    41    8.577758742692e-03
    42    1.624944856011e-02
    43    1.318750684106e-03
    44    1.107493988883e-01
    45    7.180979929532e-01
    46   -1.546053578646e-02
    47   -9.933310889130e-03
    48   -1.317533018720e-03
Sym=X
Ene= 0.577484
Spin=Alpha
Occup=0
     1    2.471458948469e-01
     2    3.954160706678e-02
     3   -1.848670439792e-02
     4    2.574686626914e-02
     5    5.327442822172e-04
     6   -4.425529779648e-03
     7   -1.571386078011e-01
     8   -4.669422582256e-01
     9    2.988465622444e-01
    10   -2.878910310442e-01
    11   -2.890138838839e-03
    12   -7.182034737353e-01
    13    6.955719636863e-01
    14    4.334361542230e-03
    15   -5.904139212234e-03
    16    3.974857827323e-03
    17    3.941608638179e-03
    18   -4.320005473495e-03
    19    6.023637948421e-02
    20    2.554261599284e-01
    21    2.900599684422e-02
    22   -2.640539987268e-02
    23    1.644866659802e-02
    24   -4.471895986466e-04
    25   -5.655386884083e-03
    26   -1.578324607938e-01
    27   -4.082394975446e-01
    28   -2.972975895818e-01
    29    2.851237175855e-01
    30    2.606502392011e-03
    31    7.634587404874e-01
    32   -7.340369231183e-01
    33   -6.092092776710e-03
    34   -5.872845542110e-03
    35    3.952998725875e-03
    36    3.882879700673e-03
    37   -3.719601827037e-03
    38    6.019155023752e-02
    39    2.507740586701e-01
    40    5.040804349967e-02
    41    2.722257122634e-02
    42   -1.700593422971e-02
    43    2.809253719265e-04
    44    2.491967057592e-01
    45    5.631465709012e-02
    46    1.840696693040e-02
    47   -2.589017848826e-02
    48   -6.710102850262e-04
Sym=X
Ene= 0.615178
Spin=Alpha
Occup=0
     1   -5.224876546972e-01
     2    2.018617908462e-01
     3   -6.137544462653e-02
     4    3.767649530051e-02
     5   -9.729974803947e-04
     6   -5.853749670455e-04
     7    3.404663703210e-04
     8   -1.684875279631e-02
     9   -4.015893657659e-02
    10   -3.843689708379e-02
    11   -3.937997354975e-03
    12    3.028178057366e-01
    13    2.789794340270e-01
    14    3.511317273718e-02
    15    1.768693528732e-03
    16   -8.834065270866e-03
    17    7.676305264547e-03
    18   -1.480092535841e-01
    19   -6.430803111777e-03
    20    5.080037945389e-01
    21   -2.048625120403e-01
    22    4.178769708777e-02
    23   -5.848687310394e-02
    24   -1.095090964683e-03
    25    4.154984654682e-04
    26   -9.945058738003e-04
    27    2.362274120506e-02
    28   -3.996015053400e-02
    29   -4.027484586342e-02
    30   -4.784589300186e-03
    31    3.034538844674e-01
    32    2.909196166731e-01
    33    2.972394724130e-02
    34   -1.455766997979e-03
    35    7.529341769885e-03
    36   -8.922828399960e-03
    37    1.491429662410e-01
    38    6.333190187772e-03
    39   -5.150021810098e-01
    40    2.068752477027e-01
    41    4.092366050129e-02
    42   -5.859437172355e-02
    43   -1.717318612718e-03
    44    5.218335617609e-01
    45   -2.042589986721e-01
    46   -6.146532113313e-02
    47    3.760579958414e-02
    48   -7.513849391385e-04
Sym=X
Ene= 0.689147
Spin=Alpha
Occup=0
     1    9.755799740613e-04
     2   -4.396190915921e-03
     3    1.935298033748e-03
     4    1.521507013951e-03
     5   -2.082514230024e-02
     6    5.485143384573e-05
     7    3.039990410174e-03
     8   -3.236060694895e-03
     9    3.456206520838e-02
    10    4.214891577413e-02
    11   -6.700806905493e-01
    12   -2.883483781395e-02
    13   -4.231204528800e-02
    14    6.132063590951e-01
    15   -2.031279432759e-03
    16    8.272500725246e-02
    17   -7.826263801468e-02
    18   -8.441985326327e-03
    19   -1.094251857983e-03
    20    4.568738577749e-04
    21   -1.969199043171e-03
    22    1.252884916414e-03
    23    6.355678795617e-04
    24   -2.095512882160e-02
    25    1.655957031980e-04
    26    1.941591635759e-03
    27    3.441023321699e-04
    28    3.293227522155e-02
    29    3.870406312483e-02
    30   -6.701214557090e-01
    31   -2.628771019076e-02
    32   -3.797832356948e-02
    33    6.132916854509e-01
    34    4.591652363804e-04
    35   -8.262863298509e-02
    36    7.852015720618e-02
    37    9.324497152621e-03
    38    1.726501346619e-03
    39    2.320156937766e-03
    40    1.480376222282e-03
    41    1.118866733455e-03
    42    1.649056775940e-03
    43   -2.104339575737e-02
    44    2.902374401196e-03
    45   -9.675233949889e-04
    46    4.227353903523e-04
    47    7.671547350668e-04
    48   -2.110127956187e-02
Sym=X
Ene= 0.708818
Spin=Alpha
Occup=0
     1   -4.763530001657e-01
     2    1.608251962386e-01
     3   -8.077439907005e-02
     4   -4.426996049495e-02
     5   -6.910333570184e-03
     6   -4.789334964782e-02
     7   -3.194616146923e-01
     8    5.102365132128e-01
     9    2.040939164512e-01
    10   -1.919430657585e-01
    11   -4.282451632768e-03
    12   -1.007225969056e-01
    13    8.185457931979e-02
    14    5.753366288433e-03
    15    1.939261864097e-01
    16   -2.201233706972e-02
    17   -2.502781055302e-02
    18    3.142113217584e-03
    19   -7.737095842414e-02
    20   -4.788421993417e-01
    21    1.506331342329e-01
    22    4.090760839091e-02
    23    8.174826695900e-02
    24    7.182414944281e-03
    25   -4.660930972844e-02
    26   -3.211941445527e-01
    27    4.605685360669e-01
    28   -2.042165160557e-01
    29    1.921728707502e-01
    30   -1.335448629299e-03
    31    6.384303734996e-02
    32   -5.067187379485e-02
    33    1.127725632843e-03
    34    1.933724022911e-01
    35   -2.075609529517e-02
    36   -2.398318564780e-02
    37    2.406457345198e-03
    38   -7.546048284647e-02
    39   -4.715093762644e-01
    40    1.343755938368e-01
    41   -4.064025558198e-02
    42   -8.086394974613e-02
    43   -6.995143936870e-03
    44   -4.739787252394e-01
    45    1.455321391491e-01
    46    8.043682106817e-02
    47    4.394035326173e-02
    48    6.261966063794e-03
Sym=X
Ene= 0.784464
Spin=Alpha
Occup=0
     1    5.263008617878e-01
     2   -4.715220502846e-01
     3    1.102288836793e-01
     4    2.599307586050e-02
     5    7.503795270655e-03
     6    9.087860833840e-02
     7   -2.166904441956e-01
     8   -6.410708701866e-01
     9    1.097543354760e-01
    10   -1.068519267378e-01
    11    3.628357321730e-03
    12    3.206282035918e-01
    13   -2.922231220260e-01
    14   -1.196332983904e-02
    15   -2.056725119443e-01
    16    2.033660382128e-02
    17    2.218111988644e-02
    18   -1.068683031943e-03
    19    9.087580283109e-03
    20    5.354296368610e-01
    21   -4.676435664103e-01
    22   -2.016395554020e-02
    23   -1.120551327273e-01
    24   -7.932289297181e-03
    25   -9.143307989405e-02
    26    2.123326350560e-01
    27    6.586393915153e-01
    28    1.114563239338e-01
    29   -1.051709689358e-01
    30   -6.587401439690e-03
    31    3.103684897683e-01
    32   -2.890712281955e-01
    33    8.095361976821e-03
    34    2.079162365932e-01
    35   -1.724548790822e-02
    36   -2.207612607546e-02
    37    1.725969403896e-03
    38   -9.060767276998e-03
    39   -5.424031106651e-01
    40    4.667219613369e-01
    41   -2.050903731091e-02
    42   -1.129241278515e-01
    43   -7.744682395020e-03
    44   -5.318920330146e-01
    45    4.655000732541e-01
    46    1.101231693205e-01
    47    2.689868116255e-02
    48    6.723842028640e-03
Sym=X
Ene= 0.807965
Spin=Alpha
Occup=0
     1    3.173561773654e-03
     2   -9.112872851049e-04
     3    2.776528169140e-03
     4    1.584267156607e-03
     5   -3.368258875434e-02
     6    5.804611000918e-04
     7   -3.631282672881e-04
     8   -1.591264476770e-03
     9    4.229339579666e-02
    10    4.668048906640e-02
    11   -7.625944611829e-01
    12   -5.875272034698e-02
    13   -7.331730303140e-02
    14    1.126207007121e+00
    15   -9.721430572911e-04
    16   -6.511977454133e-02
    17    6.208524732481e-02
    18    6.142662124776e-03
    19    5.698589945875e-04
    20    3.365990008097e-03
    21   -7.598224793247e-03
    22    1.797096736823e-03
    23    3.447113674575e-04
    24   -3.458370438350e-02
    25   -6.664900765801e-04
    26    2.237320936401e-03
    27    6.586539208708e-04
    28   -3.387473527169e-02
    29   -4.602987846462e-02
    30    7.633082944515e-01
    31    5.337836407407e-02
    32    6.404228416970e-02
    33   -1.127174584240e+00
    34    2.803861951276e-03
    35   -6.527206088412e-02
    36    6.162312759376e-02
    37    7.882728266573e-03
    38    1.469783392136e-03
    39   -3.411671987222e-03
    40    7.029076728845e-03
    41   -1.790045640781e-03
    42   -3.357389619331e-03
    43    3.417288612891e-02
    44   -3.180300160300e-03
    45    3.801236673446e-04
    46   -1.073859973361e-03
    47   -2.367548881323e-03
    48    3.375022951191e-02
Sym=X
Ene= 0.862218
Spin=Alpha
Occup=0
     1    1.342647338247e-02
     2   -1.096186656139e+00
     3    1.483304538692e-01
     4    5.647382994164e-02
     5    1.158854635382e-02
     6    8.380312546069e-05
     7   -6.999441442223e-04
     8    1.814692323063e-03
     9   -4.073320964961e-01
    10   -4.288246367802e-01
    11   -5.006852103656e-02
    12    9.480147023278e-01
    13    9.984445014356e-01
    14    1.161871908906e-01
    15   -2.679244963108e-04
    16    1.276382378527e-02
    17   -1.337098411112e-02
    18    2.351670578171e-01
    19    9.539317394639e-03
    20   -1.425025853851e-02
    21    1.103721567935e+00
    22    5.036996359633e-02
    23    1.515208199538e-01
    24    1.150340892551e-02
    25   -3.228571113230e-05
    26    1.332934373268e-03
    27   -1.775593183878e-03
    28   -4.066261943067e-01
    29   -4.291521183399e-01
    30   -4.268971053294e-02
    31    9.466333448660e-01
    32    1.001801547355e+00
    33    9.991277950255e-02
    34    1.391261325660e-04
    35   -1.258782575361e-02
    36    1.362652799497e-02
    37   -2.362352743995e-01
    38   -1.028864991675e-02
    39    1.184535311966e-02
    40   -1.101713421064e+00
    41    4.895492737085e-02
    42    1.515400709793e-01
    43    1.134016447268e-02
    44   -1.087069588107e-02
    45    1.093887671869e+00
    46    1.484924390634e-01
    47    5.569125370625e-02
    48    1.057032761496e-02
Sym=X
Ene= 0.935855
Spin=Alpha
Occup=0
     1   -1.134142930897e-01
     2    1.278941025360e+00
     3   -1.811317677388e-01
     4    5.256717369694e-03
     5   -9.322807082427e-03
     6    8.639751533753e-05
     7   -1.368946245617e-03
     8   -1.667406504770e-03
     9    4.730688833263e-01
    10    4.984211268560e-01
    11    5.511279011182e-02
    12   -1.465401501881e+00
    13   -1.537334129074e+00
    14   -1.699881402995e-01
    15   -1.300449996495e-03
    16   -7.166663582824e-03
    17    7.183131547288e-03
    18   -1.198885155216e-01
    19   -2.593093501379e-03
    20    1.174530759992e-01
    21   -1.284190892320e+00
    22    1.171341004308e-02
    23   -1.826389689034e-01
    24   -1.063150213042e-02
    25    5.687522034574e-06
    26   -2.210042319665e-05
    27   -8.088282926032e-04
    28   -4.746052297327e-01
    29   -4.979152697375e-01
    30   -5.273432742647e-02
    31    1.469318051607e+00
    32    1.532833656289e+00
    33    1.630638344761e-01
    34   -4.326316212702e-04
    35   -4.923958918072e-03
    36    7.511768796174e-03
    37   -1.209849978344e-01
    38   -4.730372083610e-03
    39    1.169389549269e-01
    40   -1.282190487137e+00
    41   -1.337981280943e-02
    42    1.820583358952e-01
    43    1.049712559387e-02
    44   -1.155957042050e-01
    45    1.287067714722e+00
    46    1.821509312492e-01
    47   -5.432075822294e-03
    48    7.937182906826e-03
Sym=X
Ene= 0.972413
Spin=Alpha
Occup=0
     1   -6.439386771768e-02
     2    9.257069263933e-01
     3   -9.083881129773e-02
     4   -9.850077277040e-02
     5   -1.132111937878e-02
     6    2.539012954105e-02
     7    2.552677498419e-01
     8    5.148990368098e-01
     9    4.811900258385e-01
    10   -4.551818277319e-01
    11   -1.233258080870e-03
    12   -1.494103374013e+00
    13    1.409175617554e+00
    14    4.807767699770e-03
    15   -5.414066091540e-02
    16   -1.358464890340e-02
    17   -9.717094898779e-03
    18    1.378969974887e-02
    19   -3.017836526311e-01
    20   -6.254819458826e-02
    21    9.117072145883e-01
    22    9.537254353157e-02
    23    9.330570739379e-02
    24    9.834052919795e-03
    25   -2.516166820880e-02
    26   -2.353877924661e-01
    27   -5.478796475755e-01
    28    4.777443759599e-01
    29   -4.548211252194e-01
    30   -5.339517564734e-03
    31   -1.483335175800e+00
    32    1.415080970545e+00
    33    1.659439768684e-02
    34    5.290163042884e-02
    35    1.327830305333e-02
    36    1.001634500284e-02
    37   -1.427488524361e-02
    38    2.987728251102e-01
    39    6.210751486975e-02
    40   -9.078224742137e-01
    41    9.410356193160e-02
    42    9.259028002359e-02
    43    1.032259286560e-02
    44    6.569420450560e-02
    45   -9.089410971330e-01
    46   -8.858333846317e-02
    47   -9.771367743957e-02
    48   -1.016529999723e-02
[5D]

======= END OF MOLDEN-FORMATTED INPUT FILE =======


        *************************************************************
        *                                                           *
        *  Thank you very much for using Q-Chem.  Have a nice day.  *
        *                                                           *
        *************************************************************


