                  Welcome to Q-Chem
     A Quantum Leap Into The Future Of Chemistry


 Q-Chem 5.4 (devel), Q-Chem, Inc., Pleasanton, CA (2021)

 E. Epifanovsky,  A. T. B. Gilbert,  Xintian Feng,  Joonho Lee,  Yuezhi Mao,  
 N. Mardirossian,  P. Pokhilko,  A. White,  M. Wormit,  M. P. Coons,  
 A. L. Dempwolff,  Zhengting Gan,  D. Hait,  P. R. Horn,  L. D. Jacobson,  
 I. Kaliman,  J. Kussmann,  A. W. Lange,  Ka Un Lao,  D. S. Levine,  Jie Liu,  
 S. C. McKenzie,  A. F. Morrison,  K. Nanda,  F. Plasser,  D. R. Rehn,  
 M. L. Vidal,  Zhi-Qiang You,  Ying Zhu,  B. Alam,  B. Albrecht,  
 A. Aldossary,  E. Alguire,  J. H. Andersen,  D. Barton,  K. Begam,  A. Behn,  
 Y. A. Bernard,  E. J. Berquist,  H. Burton,  A. Carreras,  K. Carter-Fenk,  
 R. Chakraborty,  A. D. Chien,  K. D. Closser,  V. Cofer-Shabica,  
 S. Dasgupta,  Jia Deng,  M. de Wergifosse,  M. Diedenhofen,  Hainam Do,  
 S. Ehlert,  Po-Tung Fang,  S. Fatehi,  Qingguo Feng,  T. Friedhoff,  
 J. Gayvert,  Qinghui Ge,  G. Gidofalvi,  M. Goldey,  J. Gomes,  
 C. Gonzalez-Espinoza,  S. Gulania,  A. Gunina,  M. W. D. Hanson-Heine,  
 P. H. P. Harbach,  A. W. Hauser,  M. F. Herbst,  M. Hernandez Vera,  
 M. Hodecker,  Z. C. Holden,  S. Houck,  Xunkun Huang,  Kerwin Hui,  
 B. C. Huynh,  M. Ivanov,  Hyunjun Ji,  Hanjie Jiang,  B. Kaduk,  S. Kaehler,  
 K. Khistyaev,  Jaehoon Kim,  P. Klunzinger,  Z. Koczor-Benda,  
 Joong Hoon Koh,  D. Kosenkov,  L. Koulias,  T. Kowalczyk,  C. M. Krauter,  
 K. Kue,  A. Kunitsa,  T. Kus,  A. Landau,  K. V. Lawler,  D. Lefrancois,  
 S. Lehtola,  Rain Li,  Yi-Pei Li,  Jiashu Liang,  M. Liebenthal,  
 Hung-Hsuan Lin,  You-Sheng Lin,  Fenglai Liu,  Kuan-Yu Liu,  
 M. Loipersberger,  A. Luenser,  A. Manjanath,  P. Manohar,  E. Mansoor,  
 S. F. Manzer,  Shan-Ping Mao,  A. V. Marenich,  T. Markovich,  S. Mason,  
 S. A. Maurer,  P. F. McLaughlin,  M. F. S. J. Menger,  J.-M. Mewes,  
 S. A. Mewes,  P. Morgante,  J. W. Mullinax,  K. J. Oosterbaan,  G. Paran,  
 Alexander C. Paul,  Suranjan K. Paul,  F. Pavosevic,  Zheng Pei,  S. Prager,  
 E. I. Proynov,  E. Ramos,  B. Rana,  A. E. Rask,  A. Rettig,  R. M. Richard,  
 F. Rob,  E. Rossomme,  T. Scheele,  M. Scheurer,  M. Schneider,  
 N. Sergueev,  S. M. Sharada,  W. Skomorowski,  D. W. Small,  C. J. Stein,  
 Yu-Chuan Su,  E. J. Sundstrom,  Zhen Tao,  J. Thirman,  T. Tsuchimochi,  
 N. M. Tubman,  S. P. Veccham,  O. Vydrov,  J. Wenzel,  J. Witte,  A. Yamada,  
 Kun Yao,  S. Yeganeh,  S. R. Yost,  A. Zech,  Igor Ying Zhang,  Xing Zhang,  
 Yu Zhang,  D. Zuev,  A. Aspuru-Guzik,  A. T. Bell,  N. A. Besley,  
 K. B. Bravaya,  B. R. Brooks,  D. Casanova,  Jeng-Da Chai,  S. Coriani,  
 C. J. Cramer,  A. E. DePrince, III,  R. A. DiStasio Jr.,  A. Dreuw,  
 B. D. Dunietz,  T. R. Furlani,  W. A. Goddard III,  S. Grimme,  
 S. Hammes-Schiffer,  T. Head-Gordon,  W. J. Hehre,  Chao-Ping Hsu,  
 T.-C. Jagau,  Yousung Jung,  A. Klamt,  Jing Kong,  D. S. Lambrecht,  
 WanZhen Liang,  N. J. Mayhall,  C. W. McCurdy,  J. B. Neaton,  
 C. Ochsenfeld,  J. A. Parkhill,  R. Peverati,  V. A. Rassolov,  Yihan Shao,  
 L. V. Slipchenko,  T. Stauch,  R. P. Steele,  J. E. Subotnik,  
 A. J. W. Thom,  A. Tkatchenko,  D. G. Truhlar,  T. Van Voorhis,  
 T. A. Wesolowski,  K. B. Whaley,  H. L. Woodcock III,  P. M. Zimmerman,  
 S. Faraji,  P. M. W. Gill,  M. Head-Gordon,  J. M. Herbert,  A. I. Krylov

 Additional authors for Version 5.4.1: 
 S. Kotaru,  Shaozhi Li,  Xiangyuan Li,  F. Matz,  A. Molle,  Haisheng Ren,  
 Yingli Su,  Hung-Yi Tsai,  C. Utku,  Fang Wang

 Contributors to earlier versions of Q-Chem not listed above: 
 R. D. Adamson,  B. Austin,  R. Baer,  J. Baker,  G. J. O. Beran,  
 K. Brandhorst,  S. T. Brown,  E. F. C. Byrd,  A. K. Chakraborty,  
 G. K. L. Chan,  Chun-Min Chang,  Yunqing Chen,  C.-L. Cheng,  
 Siu Hung Chien,  D. M. Chipman,  D. L. Crittenden,  H. Dachsel,  
 R. J. Doerksen,  A. D. Dutoi,  R. G. Edgar,  J. Fosso-Tande,  
 L. Fusti-Molnar,  D. Ghosh,  A. Ghysels,  A. Golubeva-Zadorozhnaya,  
 J. Gonthier,  M. S. Gordon,  S. R. Gwaltney,  G. Hawkins,  J. E. Herr,  
 A. Heyden,  S. Hirata,  E. G. Hohenstein,  G. Kedziora,  F. J. Keil,  
 C. Kelley,  Jihan Kim,  R. A. King,  R. Z. Khaliullin,  P. P. Korambath,  
 W. Kurlancheek,  A. Laurent,  A. M. Lee,  M. S. Lee,  S. V. Levchenko,  
 Ching Yeh Lin,  D. Liotard,  E. Livshits,  R. C. Lochan,  I. Lotan,  
 L. A. Martinez-Martinez,  P. E. Maslen,  N. Nair,  D. P. O'Neill,  
 D. Neuhauser,  E. Neuscamman,  C. M. Oana,  R. Olivares-Amaya,  R. Olson,  
 T. M. Perrine,  B. Peters,  P. A. Pieniazek,  A. Prociuk,  Y. M. Rhee,  
 J. Ritchie,  M. A. Rohrdanz,  E. Rosta,  N. J. Russ,  H. F. Schaefer III,  
 M. W. Schmidt,  N. E. Schultz,  S. Sharma,  N. Shenvi,  C. D. Sherrill,  
 A. C. Simmonett,  A. Sodt,  T. Stein,  D. Stuck,  K. S. Thanthiriwatte,  
 V. Vanovschi,  L. Vogt,  Tao Wang,  A. Warshel,  M. A. Watson,  
 C. F. Williams,  Q. Wu,  X. Xu,  Jun Yang,  W. Zhang,  Yan Zhao

 Please cite Q-Chem as follows:
 Y. Shao et al., Mol. Phys. 113, 184-215 (2015)
 DOI: 10.1080/00268976.2014.952696

 Q-Chem 5.4.1 for Intel X86 EM64T Linux

 Parts of Q-Chem use Armadillo 9.800.1 (Horizon Scraper).
 http://arma.sourceforge.net/

 Q-Chem begins on Mon Mar 20 18:32:59 2023  

 Host: cpu186.baobab
0

     Scratch files written to /scratch/fum/qchem79234//
 Processing $rem in /home/share/wesolowski/qc5.aug2021.FDE/config/preferences:
 Processing $rem in /home/fum/.qchemrc:

 Checking the input file for inconsistencies... 	...done.

--------------------------------------------------------------
User input:
--------------------------------------------------------------
$comment
generated from CCJob.Templates
$end

$rem
sym_ignore = true
method = adc(2)
ee_states = 10
basis = cc-pVDZ
mem_static = 1024
mem_total = 40000
adc_davidson_maxiter = 900
adc_davidson_conv = 6
adc_print = 3
adc_prop_es = true
adc_prop_es2es = true
adc_prop_tpa = true
molden_format = True
state_analysis = true
print_orbitals = 15
gen_scfman = false
fde_export_density = true
fde_details = 3
$end

$molecule
0 1
H -0.03557278023362088 -0.21291153464613918 0.06651170575748691
C -1.0937474720316838 -0.5093390503182028 -0.0022135003506040998
H -1.3360037521971138 -1.5807517081397837 -0.0786255388071056
C -2.028921635567682 0.3787612734175949 0.0064609998507891035
H -1.7867119164046832 1.4501895172403916 0.08284996430633915
H -3.0871098704667754 0.0823515041476985 -0.062185748457328334                     
$end
--------------------------------------------------------------
 ----------------------------------------------------------------
             Standard Nuclear Orientation (Angstroms)
    I     Atom           X                Y                Z
 ----------------------------------------------------------------
    1      H      -0.0355727802    -0.2129115346     0.0665117058
    2      C      -1.0937474720    -0.5093390503    -0.0022135004
    3      H      -1.3360037522    -1.5807517081    -0.0786255388
    4      C      -2.0289216356     0.3787612734     0.0064609999
    5      H      -1.7867119164     1.4501895172     0.0828499643
    6      H      -3.0871098705     0.0823515041    -0.0621857485
 ----------------------------------------------------------------
 Nuclear Repulsion Energy =          33.75297861 hartrees
 There are        8 alpha and        8 beta electrons
 Requested basis set is cc-pVDZ
 There are 24 shells and 48 basis functions
 Total memory of 40000 MB is distributed as follows: 
   MEM_STATIC is set to 1024 MB
   QALLOC/CCMAN JOB total memory use is  38976 MB
 Warning: actual memory use might exceed 40000 MB

 Total QAlloc Memory Limit  40000 MB
 Mega-Array Size      1001 MB
 MEM_STATIC part      1024 MB

                       Distance Matrix (Angstroms)
             H (  1)   C (  2)   H (  3)   C (  4)   H (  5)
   C (  2)  1.101057
   H (  3)  1.892927  1.101114
   C (  4)  2.080174  1.289709  2.080160
   H (  5)  2.415090  2.080189  3.068520  1.101117
   H (  6)  3.068489  2.080189  2.415068  1.101060  1.892895

 A cutoff of  1.0D-11 yielded    300 shell pairs
 There are      1220 function pairs (      1329 Cartesian)
 Smallest overlap matrix eigenvalue = 4.11E-03

 Scale SEOQF with 1.000000e-01/1.000000e-01/1.000000e+00

 Standard Electronic Orientation quadrupole field applied
 Nucleus-field energy     =     0.0000000021 hartrees
 Guess from superposition of atomic densities
 Warning:  Energy on first SCF cycle will be non-variational
 SAD guess density has 16.000000 electrons
 A restricted Hartree-Fock SCF calculation will be
 performed using Pulay DIIS extrapolation
 SCF converges when DIIS error is below 1.0E-08
 using 10 threads for integral computing
 -------------------------------------------------------
 OpenMP Integral computing Module                
 Release: version 1.0, May 2013, Q-Chem Inc. Pittsburgh 
 -------------------------------------------------------
 ---------------------------------------
  Cycle       Energy         DIIS Error
 ---------------------------------------
    1     -78.4738481661      1.04E-01
    2     -78.0149476952      7.40E-03
    3     -78.0359656344      1.94E-03
    4     -78.0375256959      6.47E-04
    5     -78.0376801635      5.74E-05
    6     -78.0376820248      9.09E-06
    7     -78.0376820828      1.88E-06
    8     -78.0376820853      1.69E-07
    9     -78.0376820853      1.79E-08
   10     -78.0376820853      3.23E-09 Convergence criterion met
 ---------------------------------------
 SCF time:  CPU 2.01 s  wall 2.33 s
 SCF   energy in the final basis set = -78.03768209
 Total energy in the final basis set = -78.03768209
Exporting Density Matrix to file 'Densmat_SCF.txt'.
Export successful
================================================================================
|                                                                              |
|                                 A D C  M A N                                 |
|                                                                              |
 ------------------------------------------------------------------------------ 
|                                                                              |
| Components:                                                                  |
|                                                                              |
| - libvmm - 1.3-trunk                                                         |
|   Authors:                                                                   |
|   Evgeny Epifanovsky, Ilya Kaliman                                           |
|                                                                              |
| - libtensor - 2.5-trunk                                                      |
|   Authors:                                                                   |
|   Evgeny Epifanovsky, Michael Wormit, Dmitry Zuev, Sam Manzer,               |
|   Ilya Kaliman                                                               |
|                                                                              |
| - libwfa - 1.1-trunk                                                         |
|   Authors:                                                                   |
|   Felix Plasser, Stefanie Mewes (Baeppler), Benjamin Thomitzni,              |
|   Michael Wormit, Feng Chen, Anna I. Krylov, Pavel Pokhilko                  |
|                                                                              |
| - libadc - 1.1-trunk                                                         |
|   Authors:                                                                   |
|   Michael Wormit, Adrian L. Dempwolff, Philipp H. P. Harbach,                |
|   Caroline Krauter, Dirk Rehn, Matthias Schneider, Jan Wenzel                |
|                                                                              |
| - adcman - 2.6-trunk                                                         |
|   Authors:                                                                   |
|   Michael Wormit, Adrian L. Dempwolff, Philipp H. P. Harbach,                |
|   Caroline Krauter, Daniel Lefrancois, Jan-Michael Mewes, Dirk Rehn,         |
|   Matthias Schneider, Jan Wenzel, Andreas Dreuw                              |
|                                                                              |
| Authors of earlier versions of ADCMAN:                                       |
| Andreas Dreuw, Jan Hendrik Starcke, Dirk Rehn, Michael Wormit                |
|                                                                              |
================================================================================

 Created directory /scratch/fum/qchem79234/plots
  Import QC data ...  CPU 0.00 s  wall 0.00 s

 Alpha MOs, Restricted
 -- Occupied --                  
-11.232 -11.230  -1.044  -0.775  -0.642  -0.583  -0.492  -0.385
  1 A     2 A     3 A     4 A     5 A     6 A     7 A     8 A                  
 -- Virtual --                   
  0.179   0.202   0.227   0.239   0.305   0.465   0.566   0.624
  9 A    10 A    11 A    12 A    13 A    14 A    15 A    16 A                  
  0.679   0.697   0.789   0.813   0.852   0.934   0.993   1.003
 17 A    18 A    19 A    20 A    21 A    22 A    23 A    24 A                  
  1.121   1.252   1.280   1.287   1.295   1.579   1.690   1.728
 25 A    26 A    27 A    28 A    29 A    30 A    31 A    32 A                  
  1.821   1.873   1.893   1.934   1.965   1.967   2.225   2.279
 33 A    34 A    35 A    36 A    37 A    38 A    39 A    40 A                  
  2.379   2.435   2.472   2.624   2.677   2.788   3.136   3.387
 41 A    42 A    43 A    44 A    45 A    46 A    47 A    48 A                  

 Beta MOs, Restricted
 -- Occupied --                  
-11.232 -11.230  -1.044  -0.775  -0.642  -0.583  -0.492  -0.385
  1 A     2 A     3 A     4 A     5 A     6 A     7 A     8 A                  
 -- Virtual --                   
  0.179   0.202   0.227   0.239   0.305   0.465   0.566   0.624
  9 A    10 A    11 A    12 A    13 A    14 A    15 A    16 A                  
  0.679   0.697   0.789   0.813   0.852   0.934   0.993   1.003
 17 A    18 A    19 A    20 A    21 A    22 A    23 A    24 A                  
  1.121   1.252   1.280   1.287   1.295   1.579   1.690   1.728
 25 A    26 A    27 A    28 A    29 A    30 A    31 A    32 A                  
  1.821   1.873   1.893   1.934   1.965   1.967   2.225   2.279
 33 A    34 A    35 A    36 A    37 A    38 A    39 A    40 A                  
  2.379   2.435   2.472   2.624   2.677   2.788   3.136   3.387
 41 A    42 A    43 A    44 A    45 A    46 A    47 A    48 A                  
  Import AO data ...  CPU 0.00 s  wall 0.00 s
  Using point group: C1
  Irreducible representations in point group: A
  Molecular orbitals: 
  Occupied MOs:
  Block   0:   1 (  A) A   2 (  A) A   3 (  A) A   4 (  A) A   5 (  A) A
                  -11.23      -11.23      -1.044      -0.775     -0.6419
               6 (  A) A   7 (  A) A   8 (  A) A
                  -0.583     -0.4923     -0.3852
  Block   1:   1 (  A) B   2 (  A) B   3 (  A) B   4 (  A) B   5 (  A) B
                  -11.23      -11.23      -1.044      -0.775     -0.6419
               6 (  A) B   7 (  A) B   8 (  A) B
                  -0.583     -0.4923     -0.3852
  Virtual MOs:
  Block   0:   9 (  A) A  10 (  A) A  11 (  A) A  12 (  A) A  13 (  A) A
                   0.179      0.2018      0.2267      0.2394      0.3052
              14 (  A) A  15 (  A) A  16 (  A) A  17 (  A) A  18 (  A) A
                  0.4648      0.5664      0.6242      0.6793      0.6967
              19 (  A) A  20 (  A) A  21 (  A) A  22 (  A) A
                  0.7889      0.8128      0.8523      0.9345
  Block   1:  23 (  A) A  24 (  A) A  25 (  A) A  26 (  A) A  27 (  A) A
                  0.9931       1.003       1.121       1.252        1.28
              28 (  A) A  29 (  A) A  30 (  A) A  31 (  A) A  32 (  A) A
                   1.287       1.295       1.579        1.69       1.728
              33 (  A) A  34 (  A) A  35 (  A) A  36 (  A) A
                   1.821       1.873       1.893       1.934
  Block   2:  37 (  A) A  38 (  A) A  39 (  A) A  40 (  A) A  41 (  A) A
                   1.965       1.967       2.225       2.279       2.379
              42 (  A) A  43 (  A) A  44 (  A) A  45 (  A) A  46 (  A) A
                   2.435       2.472       2.624       2.677       2.788
              47 (  A) A  48 (  A) A
                   3.136       3.387
  Block   3:   9 (  A) B  10 (  A) B  11 (  A) B  12 (  A) B  13 (  A) B
                   0.179      0.2018      0.2267      0.2394      0.3052
              14 (  A) B  15 (  A) B  16 (  A) B  17 (  A) B  18 (  A) B
                  0.4648      0.5664      0.6242      0.6793      0.6967
              19 (  A) B  20 (  A) B  21 (  A) B  22 (  A) B
                  0.7889      0.8128      0.8523      0.9345
  Block   4:  23 (  A) B  24 (  A) B  25 (  A) B  26 (  A) B  27 (  A) B
                  0.9931       1.003       1.121       1.252        1.28
              28 (  A) B  29 (  A) B  30 (  A) B  31 (  A) B  32 (  A) B
                   1.287       1.295       1.579        1.69       1.728
              33 (  A) B  34 (  A) B  35 (  A) B  36 (  A) B
                   1.821       1.873       1.893       1.934
  Block   5:  37 (  A) B  38 (  A) B  39 (  A) B  40 (  A) B  41 (  A) B
                   1.965       1.967       2.225       2.279       2.379
              42 (  A) B  43 (  A) B  44 (  A) B  45 (  A) B  46 (  A) B
                   2.435       2.472       2.624       2.677       2.788
              47 (  A) B  48 (  A) B
                   3.136       3.387
  Import MO data ...  CPU 0.07 s  wall 0.02 s
  Import HF data ...  CPU 0.61 s  wall 0.18 s
  Import 2e integrals ...  CPU 1.34 s  wall 0.24 s

--------------------------------------------------------------------------------
                                   HF Summary                                   
--------------------------------------------------------------------------------
  Energy:                                                  -78.0376820853 a.u.
  Dip. moment [a.u.]:                  [  -0.000005,    0.000003,    0.000015]
  Total dipole [Debye]:                                               0.000041
  <r^2> [a.u.]:                        [ 174.813558,   34.413972,   11.579325]
  Total <r^2> [a.u.]:                                               220.806854
--------------------------------------------------------------------------------
  HF properties ...  CPU 0.05 s  wall 0.03 s
  MP(1) calculation ...  CPU 0.01 s  wall 0.01 s
  N^6 prerequesite intermediates ...  CPU 0.63 s  wall 0.11 s
  Difference density matrix of state mp2_gs printed to ASCII file 'State_mp2_gs_Difference.txt'
Exporting MP density matrix to file 'Densmat_MP.txt'.
Export successful
  Total density matrix of state mp2_gs printed to ASCII file 'State_mp2_gs_Total.txt'
Exporting MP density matrix to file 'Densmat_MP.txt'.
Export successful

--------------------------------------------------------------------------------
                                 MP(2) Summary                                  
--------------------------------------------------------------------------------
  MP energy contribution:                                   -0.2784703783 a.u.
  Total energy:                                            -78.3161524636 a.u.
  Dip. moment [a.u.]:                  [  -0.000005,    0.000002,    0.000015]
  Total dipole [Debye]:                                               0.000041
  <r^2> [a.u.]:                        [ 174.860765,   34.457085,   11.434169]
  Total <r^2> [a.u.]:                                               220.752019

  Density matrix analysis:
  ------------------------
  NOs
    Occupation of frontier NOs:
       0.0420   1.9412
    Number of electrons: 16.000000
    Number of unpaired electrons: n_u =  0.39810, n_u,nl =  0.04275
    NO participation ratio (PR_NO): 14.262834
  
  
  Mulliken Population Analysis
  Atom      Charge (e)              h+              e-           Del q
  --------------------------------------------------------------------
   1 H        0.052195        0.013726       -0.011308        0.002418
   2 C       -0.104387        0.091316       -0.096151       -0.004835
   3 H        0.052200        0.013726       -0.011308        0.002418
   4 C       -0.104399        0.091315       -0.096152       -0.004837
   5 H        0.052199        0.013726       -0.011308        0.002418
   6 H        0.052193        0.013726       -0.011308        0.002418
  --------------------------------------------------------------------
  Sum:        0.000000        0.237535       -0.237535        0.000000
  
  Multipole moment analysis of the density matrix
    Molecular charge:                      0.000000
    Number of electrons:                   16.000000
      Center of electronic charge [Ang]: [ -1.561338,  -0.065287,   0.002127]
    Total nuclear charge:                  16.000000
      Center of nuclear charge [Ang]:    [ -1.561338,  -0.065287,   0.002127]
    Dipole moment [D]:                     0.000041
      Cartesian components [D]:          [ -0.000012,   0.000006,   0.000038]
    RMS size of the density [Ang]:         1.192271
      Cartesian components [Ang]:        [  0.789049,   0.773820,   0.447341]
  
  Exciton analysis of the difference density matrix
    <r_h> [Ang]:                  [ -1.561338,  -0.065287,   0.002124]
    <r_e> [Ang]:                  [ -1.561338,  -0.065286,   0.002125]
    |<r_e - r_h>| [Ang]:            0.000001
    Hole size [Ang]:                1.382739
      Cartesian components [Ang]: [  0.844989,   0.833130,   0.709828]
    Electron size [Ang]:            1.359163
      Cartesian components [Ang]: [  0.877302,   0.863095,   0.576830]
--------------------------------------------------------------------------------
  MP(2) calculation ...  CPU 0.59 s  wall 0.24 s
  Start ADC(2)-s ...  CPU 0.02 s  wall 0.01 s
  ADC(2) intermediates ...  CPU 0.04 s  wall 0.01 s
  Starting Davidson for singlet states of irrep A ... 
--------------------------------------------------------------------------------
   It NVec Conv  Avg. Norm  Max. Norm  Conv. states           Remark
--------------------------------------------------------------------------------
        10    0  1.317e-01  4.699e-01  0.4175 n n n n n n n n Guess.
    1   20    0  2.844e-02  1.581e-01  0.3359 n n n n n n n n 
    2   30    0  6.535e-03  3.074e-02  0.3339 n n n n n n n n 
    3   40    0  2.882e-03  1.716e-02  0.3338 n n n n n n n n 
    4   50    0  1.556e-03  1.311e-02  0.3338 n n n n n n n n 
    5   20    0  1.461e-03  1.387e-02  0.3338 n n n n n n n n Subspace collapsed.
    6   30    0  1.634e-03  1.619e-02  0.3338 n n n n n n n n 
    7   40    0  2.434e-03  2.426e-02  0.3338 n n n n n n n n 
    8   50    0  4.316e-04  4.064e-03  0.3338 n n n n n n n n 
    9   20    1  1.361e-04  1.087e-03  0.3338 y n n n n n n n Subspace collapsed.
   10   30    4  7.001e-05  5.985e-04  0.3338 y n y y n y n n 
   11   40    5  4.927e-05  4.750e-04  0.3338 y n y y y y n n 
   12   50    6  3.432e-05  3.328e-04  0.3338 y y y y y y n n 
   13   20    6  2.027e-05  1.734e-04  0.3338 y y y y y y n n Subspace collapsed.
   14   30    6  1.997e-05  1.627e-04  0.3338 y y y y y y n n 
   15   40    6  1.755e-05  1.369e-04  0.3338 y y y y y y n n 
   16   50    6  1.273e-05  1.215e-04  0.3338 y y y y y y n n 
   17   20    6  6.854e-06  6.660e-05  0.3338 y y y y y y n n Subspace collapsed.
   18   30    8  5.474e-06  5.438e-05  0.3338 y y y y y y y y 
   19   40    8  2.958e-06  2.944e-05  0.3338 y y y y y y y y 
   20   49    8  2.440e-06  2.431e-05  0.3338 y y y y y y y y 
   21   50    8  2.439e-06  2.431e-05  0.3338 y y y y y y y y 
   22   19    8  9.121e-07  8.979e-06  0.3338 y y y y y y y y Subspace collapsed.
   23   28    8  7.062e-07  6.756e-06  0.3338 y y y y y y y y 
   24   36    8  6.364e-07  6.108e-06  0.3338 y y y y y y y y 
   25   44    9  4.612e-07  4.523e-06  0.3338 y y y y y y y y 
   26   50    9  2.169e-07  2.143e-06  0.3338 y y y y y y y y 
   27   15   10  9.521e-08  9.433e-07  0.3338 y y y y y y y y Converged.
--------------------------------------------------------------------------------
  Davidson Summary: 
 ------------------------------------------------------------
  State  0: excitation energy =   0.3338 a.u.   (converged)
  State  1: excitation energy =   0.3356 a.u.   (converged)
  State  2: excitation energy =   0.3400 a.u.   (converged)
  State  3: excitation energy =   0.3601 a.u.   (converged)
  State  4: excitation energy =   0.3824 a.u.   (converged)
  State  5: excitation energy =   0.3975 a.u.   (converged)
  State  6: excitation energy =   0.4125 a.u.   (converged)
  State  7: excitation energy =   0.4490 a.u.   (converged)
  State  8: excitation energy =   0.4568 a.u.   (converged)
  State  9: excitation energy =   0.4634 a.u.   (converged)
 ------------------------------------------------------------

  Singlet states of irrep A ...  CPU 186.17 s  wall 59.38 s
  TDMs ...  CPU 3.10 s  wall 1.16 s
  SDMs ...  CPU 6.16 s  wall 1.84 s
  Starting TPA DIIS iterations ... 
------------------------------------ 
   It     Res. Norm  Remark
------------------------------------
                       Guess.
    1     3.830e+00  
    2     4.909e+00  
    3     9.961e-01  
    4     2.313e-01  
    5     5.228e-02  
    6     2.289e-02  
    7     7.063e-03  
    8     1.486e-03  
    9     5.665e-04  
   10     9.169e-05  
   11     3.123e-05  
   12     4.445e-06  
   13     1.712e-06  
   14     4.577e-07  Converged.
   ... Converged in 14 steps (norm: 4.5774e-07)
------------------------------------
  Starting TPA DIIS iterations ... 
------------------------------------ 
   It     Res. Norm  Remark
------------------------------------
                       Guess.
    1     3.651e+00  
    2     4.668e+00  
    3     9.526e-01  
    4     2.303e-01  
    5     5.227e-02  
    6     2.291e-02  
    7     6.953e-03  
    8     1.495e-03  
    9     5.719e-04  
   10     9.124e-05  
   11     3.157e-05  
   12     4.459e-06  
   13     1.734e-06  
   14     4.621e-07  Converged.
   ... Converged in 14 steps (norm: 4.62063e-07)
------------------------------------
  Starting TPA DIIS iterations ... 
------------------------------------ 
   It     Res. Norm  Remark
------------------------------------
                       Guess.
    1     6.981e-01  
    2     4.787e-01  
    3     1.644e-01  
    4     5.299e-02  
    5     1.881e-02  
    6     6.897e-03  
    7     1.141e-03  
    8     5.013e-04  
    9     1.360e-04  
   10     3.308e-05  
   11     5.645e-06  
   12     2.183e-06  
   13     8.538e-07  Converged.
   ... Converged in 13 steps (norm: 8.53798e-07)
------------------------------------
  Starting TPA DIIS iterations ... 
------------------------------------ 
   It     Res. Norm  Remark
------------------------------------
                       Guess.
    1     3.865e+00  
    2     4.969e+00  
    3     1.007e+00  
    4     2.348e-01  
    5     5.321e-02  
    6     2.335e-02  
    7     7.205e-03  
    8     1.516e-03  
    9     5.786e-04  
   10     9.373e-05  
   11     3.196e-05  
   12     4.556e-06  
   13     1.756e-06  
   14     4.699e-07  Converged.
   ... Converged in 14 steps (norm: 4.69945e-07)
------------------------------------
  Starting TPA DIIS iterations ... 
------------------------------------ 
   It     Res. Norm  Remark
------------------------------------
                       Guess.
    1     3.684e+00  
    2     4.724e+00  
    3     9.627e-01  
    4     2.338e-01  
    5     5.321e-02  
    6     2.337e-02  
    7     7.093e-03  
    8     1.526e-03  
    9     5.841e-04  
   10     9.328e-05  
   11     3.230e-05  
   12     4.569e-06  
   13     1.779e-06  
   14     4.746e-07  Converged.
   ... Converged in 14 steps (norm: 4.74587e-07)
------------------------------------
  Starting TPA DIIS iterations ... 
------------------------------------ 
   It     Res. Norm  Remark
------------------------------------
                       Guess.
    1     7.000e-01  
    2     4.812e-01  
    3     1.658e-01  
    4     5.391e-02  
    5     1.905e-02  
    6     6.991e-03  
    7     1.161e-03  
    8     5.143e-04  
    9     1.399e-04  
   10     3.383e-05  
   11     5.765e-06  
   12     2.241e-06  
   13     8.823e-07  Converged.
   ... Converged in 13 steps (norm: 8.82313e-07)
------------------------------------
  Starting TPA DIIS iterations ... 
------------------------------------ 
   It     Res. Norm  Remark
------------------------------------
                       Guess.
    1     3.949e+00  
    2     5.117e+00  
    3     1.033e+00  
    4     2.436e-01  
    5     5.554e-02  
    6     2.449e-02  
    7     7.559e-03  
    8     1.592e-03  
    9     6.088e-04  
   10     9.884e-05  
   11     3.378e-05  
   12     4.834e-06  
   13     1.868e-06  
   14     5.008e-07  Converged.
   ... Converged in 14 steps (norm: 5.00756e-07)
------------------------------------
  Starting TPA DIIS iterations ... 
------------------------------------ 
   It     Res. Norm  Remark
------------------------------------
                       Guess.
    1     3.764e+00  
    2     4.865e+00  
    3     9.875e-01  
    4     2.425e-01  
    5     5.554e-02  
    6     2.451e-02  
    7     7.442e-03  
    8     1.602e-03  
    9     6.148e-04  
   10     9.837e-05  
   11     3.414e-05  
   12     4.848e-06  
   13     1.893e-06  
   14     5.063e-07  Converged.
   ... Converged in 14 steps (norm: 5.06266e-07)
------------------------------------
  Starting TPA DIIS iterations ... 
------------------------------------ 
   It     Res. Norm  Remark
------------------------------------
                       Guess.
    1     7.046e-01  
    2     4.874e-01  
    3     1.692e-01  
    4     5.621e-02  
    5     1.962e-02  
    6     7.223e-03  
    7     1.213e-03  
    8     5.473e-04  
    9     1.499e-04  
   10     3.563e-05  
   11     6.067e-06  
   12     2.388e-06  
   13     9.558e-07  Converged.
   ... Converged in 13 steps (norm: 9.5577e-07)
------------------------------------
  Starting TPA DIIS iterations ... 
------------------------------------ 
   It     Res. Norm  Remark
------------------------------------
                       Guess.
    1     4.385e+00  
    2     5.891e+00  
    3     1.166e+00  
    4     2.913e-01  
    5     6.810e-02  
    6     3.072e-02  
    7     9.481e-03  
    8     2.001e-03  
    9     7.737e-04  
   10     1.269e-04  
   11     4.391e-05  
   12     6.395e-06  
   13     2.505e-06  
   14     6.765e-07  Converged.
   ... Converged in 14 steps (norm: 6.76496e-07)
------------------------------------
  Starting TPA DIIS iterations ... 
------------------------------------ 
   It     Res. Norm  Remark
------------------------------------
                       Guess.
    1     4.177e+00  
    2     5.600e+00  
    3     1.115e+00  
    4     2.894e-01  
    5     6.809e-02  
    6     3.078e-02  
    7     9.336e-03  
    8     2.018e-03  
    9     7.822e-04  
   10     1.263e-04  
   11     4.433e-05  
   12     6.410e-06  
   13     2.543e-06  
   14     6.886e-07  Converged.
   ... Converged in 14 steps (norm: 6.88609e-07)
------------------------------------
  Starting TPA DIIS iterations ... 
------------------------------------ 
   It     Res. Norm  Remark
------------------------------------
                       Guess.
    1     7.265e-01  
    2     5.177e-01  
    3     1.864e-01  
    4     6.888e-02  
    5     2.249e-02  
    6     8.467e-03  
    7     1.499e-03  
    8     7.371e-04  
    9     2.059e-04  
   10     4.346e-05  
   11     7.742e-06  
   12     3.233e-06  
   13     1.409e-06  
   14     6.199e-07  Converged.
   ... Converged in 14 steps (norm: 6.19904e-07)
------------------------------------
  Starting TPA DIIS iterations ... 
------------------------------------ 
   It     Res. Norm  Remark
------------------------------------
                       Guess.
    1     4.966e+00  
    2     6.958e+00  
    3     1.343e+00  
    4     3.606e-01  
    5     8.635e-02  
    6     3.996e-02  
    7     1.230e-02  
    8     2.601e-03  
    9     1.019e-03  
   10     1.687e-04  
   11     5.929e-05  
   12     8.809e-06  
   13     3.510e-06  
   14     9.605e-07  Converged.
   ... Converged in 14 steps (norm: 9.60461e-07)
------------------------------------
  Starting TPA DIIS iterations ... 
------------------------------------ 
   It     Res. Norm  Remark
------------------------------------
                       Guess.
    1     4.728e+00  
    2     6.613e+00  
    3     1.283e+00  
    4     3.575e-01  
    5     8.635e-02  
    6     4.008e-02  
    7     1.212e-02  
    8     2.627e-03  
    9     1.031e-03  
   10     1.680e-04  
   11     5.978e-05  
   12     8.828e-06  
   13     3.572e-06  
   14     9.886e-07  Converged.
   ... Converged in 14 steps (norm: 9.88619e-07)
------------------------------------
  Starting TPA DIIS iterations ... 
------------------------------------ 
   It     Res. Norm  Remark
------------------------------------
                       Guess.
    1     7.522e-01  
    2     5.555e-01  
    3     2.086e-01  
    4     8.796e-02  
    5     2.621e-02  
    6     1.028e-02  
    7     1.940e-03  
    8     1.030e-03  
    9     2.883e-04  
   10     4.999e-05  
   11     1.035e-05  
   12     4.574e-06  
   13     2.220e-06  
   14     9.273e-07  Converged.
   ... Converged in 14 steps (norm: 9.27276e-07)
------------------------------------
  Starting TPA DIIS iterations ... 
------------------------------------ 
   It     Res. Norm  Remark
------------------------------------
                       Guess.
    1     5.436e+00  
    2     7.850e+00  
    3     1.486e+00  
    4     4.215e-01  
    5     1.023e-01  
    6     4.818e-02  
    7     1.479e-02  
    8     3.129e-03  
    9     1.236e-03  
   10     2.061e-04  
   11     7.317e-05  
   12     1.103e-05  
   13     4.443e-06  
   14     1.237e-06  
   15     4.379e-07  Converged.
   ... Converged in 15 steps (norm: 4.37872e-07)
------------------------------------
  Starting TPA DIIS iterations ... 
------------------------------------ 
   It     Res. Norm  Remark
------------------------------------
                       Guess.
    1     5.174e+00  
    2     7.461e+00  
    3     1.419e+00  
    4     4.171e-01  
    5     1.023e-01  
    6     4.836e-02  
    7     1.457e-02  
    8     3.164e-03  
    9     1.253e-03  
   10     2.053e-04  
   11     7.368e-05  
   12     1.105e-05  
   13     4.530e-06  
   14     1.286e-06  
   15     4.640e-07  Converged.
   ... Converged in 15 steps (norm: 4.63994e-07)
------------------------------------
  Starting TPA DIIS iterations ... 
------------------------------------ 
   It     Res. Norm  Remark
------------------------------------
                       Guess.
    1     7.707e-01  
    2     5.842e-01  
    3     2.261e-01  
    4     1.052e-01  
    5     2.924e-02  
    6     1.190e-02  
    7     2.350e-03  
    8     1.284e-03  
    9     3.569e-04  
   10     5.323e-05  
   11     1.283e-05  
   12     5.816e-06  
   13     3.027e-06  
   14     1.225e-06  
   15     3.258e-07  Converged.
   ... Converged in 15 steps (norm: 3.25807e-07)
------------------------------------
  Starting TPA DIIS iterations ... 
------------------------------------ 
   It     Res. Norm  Remark
------------------------------------
                       Guess.
    1     5.984e+00  
    2     8.918e+00  
    3     1.651e+00  
    4     4.973e-01  
    5     1.221e-01  
    6     5.853e-02  
    7     1.790e-02  
    8     3.786e-03  
    9     1.511e-03  
   10     2.533e-04  
   11     9.064e-05  
   12     1.389e-05  
   13     5.640e-06  
   14     1.620e-06  
   15     5.773e-07  Converged.
   ... Converged in 15 steps (norm: 5.77331e-07)
------------------------------------
  Starting TPA DIIS iterations ... 
------------------------------------ 
   It     Res. Norm  Remark
------------------------------------
                       Guess.
    1     5.694e+00  
    2     8.475e+00  
    3     1.575e+00  
    4     4.912e-01  
    5     1.221e-01  
    6     5.879e-02  
    7     1.763e-02  
    8     3.834e-03  
    9     1.531e-03  
   10     2.523e-04  
   11     9.114e-05  
   12     1.392e-05  
   13     5.762e-06  
   14     1.703e-06  
   15     6.173e-07  Converged.
   ... Converged in 15 steps (norm: 6.17332e-07)
------------------------------------
  Starting TPA DIIS iterations ... 
------------------------------------ 
   It     Res. Norm  Remark
------------------------------------
                       Guess.
    1     7.901e-01  
    2     6.158e-01  
    3     2.459e-01  
    4     1.270e-01  
    5     3.285e-02  
    6     1.393e-02  
    7     2.886e-03  
    8     1.574e-03  
    9     4.358e-04  
   10     5.661e-05  
   11     1.617e-05  
   12     7.396e-06  
   13     4.054e-06  
   14     1.626e-06  
   15     4.404e-07  Converged.
   ... Converged in 15 steps (norm: 4.40406e-07)
------------------------------------
  Starting TPA DIIS iterations ... 
------------------------------------ 
   It     Res. Norm  Remark
------------------------------------
                       Guess.
    1     7.759e+00  
    2     1.257e+01  
    3     2.176e+00  
    4     7.741e-01  
    5     1.941e-01  
    6     9.722e-02  
    7     2.930e-02  
    8     6.190e-03  
    9     2.533e-03  
   10     4.293e-04  
   11     1.531e-04  
   12     2.524e-05  
   13     1.001e-05  
   14     3.380e-06  
   15     1.200e-06  
   16     4.731e-07  Converged.
   ... Converged in 16 steps (norm: 4.73084e-07)
------------------------------------
  Starting TPA DIIS iterations ... 
------------------------------------ 
   It     Res. Norm  Remark
------------------------------------
                       Guess.
    1     7.378e+00  
    2     1.194e+01  
    3     2.074e+00  
    4     7.607e-01  
    5     1.941e-01  
    6     9.782e-02  
    7     2.889e-02  
    8     6.289e-03  
    9     2.571e-03  
   10     4.273e-04  
   11     1.535e-04  
   12     2.535e-05  
   13     1.035e-05  
   14     3.657e-06  
   15     1.313e-06  
   16     5.414e-07  Converged.
   ... Converged in 16 steps (norm: 5.41382e-07)
------------------------------------
  Starting TPA DIIS iterations ... 
------------------------------------ 
   It     Res. Norm  Remark
------------------------------------
                       Guess.
    1     8.416e-01  
    2     7.080e-01  
    3     3.068e-01  
    4     2.081e-01  
    5     4.554e-02  
    6     2.154e-02  
    7     5.017e-03  
    8     2.302e-03  
    9     6.762e-04  
   10     7.759e-05  
   11     3.056e-05  
   12     1.291e-05  
   13     6.165e-06  
   14     3.359e-06  
   15     9.069e-07  Converged.
   ... Converged in 15 steps (norm: 9.06945e-07)
------------------------------------
  Starting TPA DIIS iterations ... 
------------------------------------ 
   It     Res. Norm  Remark
------------------------------------
                       Guess.
    1     8.249e+00  
    2     1.363e+01  
    3     2.318e+00  
    4     8.578e-01  
    5     2.158e-01  
    6     1.092e-01  
    7     3.278e-02  
    8     6.920e-03  
    9     2.848e-03  
   10     4.834e-04  
   11     1.711e-04  
   12     2.904e-05  
   13     1.135e-05  
   14     4.024e-06  
   15     1.450e-06  
   16     5.888e-07  Converged.
   ... Converged in 16 steps (norm: 5.88759e-07)
------------------------------------
  Starting TPA DIIS iterations ... 
------------------------------------ 
   It     Res. Norm  Remark
------------------------------------
                       Guess.
    1     7.843e+00  
    2     1.294e+01  
    3     2.210e+00  
    4     8.419e-01  
    5     2.158e-01  
    6     1.099e-01  
    7     3.232e-02  
    8     7.035e-03  
    9     2.890e-03  
   10     4.810e-04  
   11     1.716e-04  
   12     2.917e-05  
   13     1.180e-05  
   14     4.380e-06  
   15     1.592e-06  
   16     6.732e-07  Converged.
   ... Converged in 16 steps (norm: 6.73221e-07)
------------------------------------
  Starting TPA DIIS iterations ... 
------------------------------------ 
   It     Res. Norm  Remark
------------------------------------
                       Guess.
    1     8.535e-01  
    2     7.314e-01  
    3     3.228e-01  
    4     2.324e-01  
    5     4.931e-02  
    6     2.386e-02  
    7     5.695e-03  
    8     2.431e-03  
    9     7.395e-04  
   10     8.665e-05  
   11     3.554e-05  
   12     1.441e-05  
   13     6.012e-06  
   14     3.925e-06  
   15     1.059e-06  
   16     4.957e-07  Converged.
   ... Converged in 16 steps (norm: 4.95669e-07)
------------------------------------
  Starting TPA DIIS iterations ... 
------------------------------------ 
   It     Res. Norm  Remark
------------------------------------
                       Guess.
    1     8.701e+00  
    2     1.462e+01  
    3     2.449e+00  
    4     9.372e-01  
    5     2.365e-01  
    6     1.206e-01  
    7     3.609e-02  
    8     7.615e-03  
    9     3.149e-03  
   10     5.351e-04  
   11     1.879e-04  
   12     3.284e-05  
   13     1.270e-05  
   14     4.682e-06  
   15     1.729e-06  
   16     7.161e-07  Converged.
   ... Converged in 16 steps (norm: 7.16129e-07)
------------------------------------
  Starting TPA DIIS iterations ... 
------------------------------------ 
   It     Res. Norm  Remark
------------------------------------
                       Guess.
    1     8.272e+00  
    2     1.388e+01  
    3     2.334e+00  
    4     9.189e-01  
    5     2.365e-01  
    6     1.214e-01  
    7     3.559e-02  
    8     7.746e-03  
    9     3.197e-03  
   10     5.324e-04  
   11     1.884e-04  
   12     3.299e-05  
   13     1.326e-05  
   14     5.122e-06  
   15     1.902e-06  
   16     8.166e-07  Converged.
   ... Converged in 16 steps (norm: 8.16559e-07)
------------------------------------
  Starting TPA DIIS iterations ... 
------------------------------------ 
   It     Res. Norm  Remark
------------------------------------
                       Guess.
    1     8.638e-01  
    2     7.522e-01  
    3     3.373e-01  
    4     2.552e-01  
    5     5.288e-02  
    6     2.604e-02  
    7     6.349e-03  
    8     2.524e-03  
    9     7.971e-04  
   10     9.601e-05  
   11     4.052e-05  
   12     1.576e-05  
   13     5.603e-06  
   14     4.430e-06  
   15     1.195e-06  
   16     6.309e-07  Converged.
   ... Converged in 16 steps (norm: 6.30942e-07)
------------------------------------
  Two-photon absorbption ...  CPU 159.49 s  wall 43.98 s
  Transition density matrix of state singlet_A_1 printed to ASCII file 'State_singlet_A_1_Transition.txt'
  Transition density matrix of state singlet_A_2 printed to ASCII file 'State_singlet_A_2_Transition.txt'
  Transition density matrix of state singlet_A_3 printed to ASCII file 'State_singlet_A_3_Transition.txt'
  Transition density matrix of state singlet_A_4 printed to ASCII file 'State_singlet_A_4_Transition.txt'
  Transition density matrix of state singlet_A_5 printed to ASCII file 'State_singlet_A_5_Transition.txt'
  Transition density matrix of state singlet_A_6 printed to ASCII file 'State_singlet_A_6_Transition.txt'
  Transition density matrix of state singlet_A_7 printed to ASCII file 'State_singlet_A_7_Transition.txt'
  Transition density matrix of state singlet_A_8 printed to ASCII file 'State_singlet_A_8_Transition.txt'
  Transition density matrix of state singlet_A_9 printed to ASCII file 'State_singlet_A_9_Transition.txt'
  Transition density matrix of state singlet_A_10 printed to ASCII file 'State_singlet_A_10_Transition.txt'
  Transition properties ...  CPU 0.35 s  wall 0.67 s
  Difference density matrix of state singlet_A_1 printed to ASCII file 'State_singlet_A_1_Difference.txt'
  Total density matrix of state singlet_A_1 printed to ASCII file 'State_singlet_A_1_Total.txt'
  Difference density matrix of state singlet_A_2 printed to ASCII file 'State_singlet_A_2_Difference.txt'
  Total density matrix of state singlet_A_2 printed to ASCII file 'State_singlet_A_2_Total.txt'
  Difference density matrix of state singlet_A_3 printed to ASCII file 'State_singlet_A_3_Difference.txt'
  Total density matrix of state singlet_A_3 printed to ASCII file 'State_singlet_A_3_Total.txt'
  Difference density matrix of state singlet_A_4 printed to ASCII file 'State_singlet_A_4_Difference.txt'
  Total density matrix of state singlet_A_4 printed to ASCII file 'State_singlet_A_4_Total.txt'
  Difference density matrix of state singlet_A_5 printed to ASCII file 'State_singlet_A_5_Difference.txt'
  Total density matrix of state singlet_A_5 printed to ASCII file 'State_singlet_A_5_Total.txt'
  Difference density matrix of state singlet_A_6 printed to ASCII file 'State_singlet_A_6_Difference.txt'
  Total density matrix of state singlet_A_6 printed to ASCII file 'State_singlet_A_6_Total.txt'
  Difference density matrix of state singlet_A_7 printed to ASCII file 'State_singlet_A_7_Difference.txt'
  Total density matrix of state singlet_A_7 printed to ASCII file 'State_singlet_A_7_Total.txt'
  Difference density matrix of state singlet_A_8 printed to ASCII file 'State_singlet_A_8_Difference.txt'
  Total density matrix of state singlet_A_8 printed to ASCII file 'State_singlet_A_8_Total.txt'
  Difference density matrix of state singlet_A_9 printed to ASCII file 'State_singlet_A_9_Difference.txt'
  Total density matrix of state singlet_A_9 printed to ASCII file 'State_singlet_A_9_Total.txt'
  Difference density matrix of state singlet_A_10 printed to ASCII file 'State_singlet_A_10_Difference.txt'
  Total density matrix of state singlet_A_10 printed to ASCII file 'State_singlet_A_10_Total.txt'
  Properties ...  CPU 0.65 s  wall 0.99 s
  ISR TDMS ...  CPU 30.25 s  wall 9.53 s
  ISR transition properties ...  CPU 0.56 s  wall 0.25 s
  Sum-over-states TPA ...  CPU 0.00 s  wall 0.00 s

--------------------------------------------------------------------------------
                   State-averaged natural transition orbitals
--------------------------------------------------------------------------------
--------------------------------------------------------------------------------
  SA-NTO decomposition ...  CPU 0.01 s  wall 0.03 s

--------------------------------------------------------------------------------
                             Excited State Summary
--------------------------------------------------------------------------------
--------------------------------------------------------------------------------

  Excited state 1 (singlet, A)                                     [converged]
  ----------------------------------------------------------------------------
  Term symbol:  2 (1) A                                     R^2 =  2.43155e-13

  Total energy:                                            -77.9824000005 a.u.
  Excitation energy:                                               9.081866 eV

  Osc. strength:                                                      0.000002
  Trans. dip. moment [a.u.]:           [  -0.002385,    0.002283,    0.000016]
  <i|r^2|0> [a.u.]:                    [   0.053241,    0.089224,   -0.155977]
  Two-photon absorption cross-section (SoS) [a.u.]:                  23.400756
  Two-photon absorption matrix (SoS) [a.u.]:
                                       |    0.112966    0.129970   -1.165077 |
                                       |    0.129970    0.148438   -1.224432 |
                                       |   -1.165077   -1.224432   -0.261404 |
  Two-photon absorption cross-section [a.u.]:                         0.131066
  Two-photon absorption matrix [a.u.]:
                                       |   -0.007539   -0.009677    0.086986 |
                                       |   -0.009677   -0.012027    0.091820 |
                                       |    0.086986    0.091820    0.019566 |

  Dip. moment [a.u.]:                  [  -0.000051,    0.000063,    0.000035]
  Total dipole [Debye]:                                               0.000226
  <r^2> [a.u.]:                        [ 174.029145,   33.569712,   13.150263]
  Total <r^2> [a.u.]:                                               220.749121

  V1^2 = 0.9556, V2^2 = 0.0444

  Important amplitudes:
      occ i     occ j     vir a      vir b          v   
    -----------------------------------------------------
     7 (A) A              9 (A) A                -0.6653
     8 (A) A             11 (A) A                 0.1667
     7 (A) A             20 (A) A                -0.0764
     8 (A) A             16 (A) A                 0.0296
     5 (A) A   8 (A) B    9 (A) A    9 (A) B      0.0293
     8 (A) A             21 (A) A                -0.0187
     5 (A) A             28 (A) A                 0.0149
     4 (A) A   7 (A) B    9 (A) A   19 (A) B     -0.0136
     5 (A) A   7 (A) B    9 (A) A   16 (A) B     -0.0131
     7 (A) A   8 (A) B   20 (A) A   17 (A) B      0.0106
     7 (A) A   8 (A) A    9 (A) A   28 (A) A     -0.0095
     5 (A) A   8 (A) B    9 (A) A   20 (A) B      0.0094
     4 (A) A   6 (A) B    9 (A) A   16 (A) B      0.0091
     5 (A) A   6 (A) A    9 (A) A   23 (A) A      0.0088
     6 (A) A   7 (A) B    9 (A) A   18 (A) B      0.0088
     4 (A) A   5 (A) A    9 (A) A   10 (A) A      0.0086
     8 (A) A   7 (A) B    9 (A) A   28 (A) B      0.0083
     5 (A) A   6 (A) B    9 (A) A   23 (A) B      0.0082
     5 (A) A   6 (A) A    9 (A) A   14 (A) A      0.0078
     4 (A) A   8 (A) B    9 (A) A   25 (A) B      0.0077
     3 (A) A   7 (A) B    9 (A) A   18 (A) B     -0.0076
     5 (A) A   7 (A) A    9 (A) A   16 (A) A     -0.0076
     4 (A) A   7 (A) B   19 (A) A    9 (A) B     -0.0075
     5 (A) A   6 (A) B    9 (A) A   19 (A) B      0.0073
     5 (A) A   5 (A) B    9 (A) A   13 (A) B      0.0071
     7 (A) A   8 (A) B   17 (A) A   20 (A) B      0.0071
     7 (A) A   8 (A) B   19 (A) A   18 (A) B     -0.0070
     4 (A) A   5 (A) B    9 (A) A   18 (A) B     -0.0068
     5 (A) A   8 (A) A    9 (A) A   20 (A) A      0.0068
     4 (A) A   7 (A) B    9 (A) A   14 (A) B      0.0067
     7 (A) A   7 (A) B   20 (A) A   22 (A) B      0.0066
     5 (A) A   7 (A) B   11 (A) A   20 (A) B     -0.0063
     5 (A) A             37 (A) A                 0.0062
     4 (A) A   7 (A) A    9 (A) A   19 (A) A     -0.0061
     4 (A) A   5 (A) B   10 (A) A    9 (A) B     -0.0060
     4 (A) A   6 (A) B   16 (A) A    9 (A) B      0.0060
     6 (A) A   7 (A) B   18 (A) A    9 (A) B      0.0060
     4 (A) A   8 (A) A    9 (A) A   25 (A) A      0.0058
     5 (A) A   7 (A) A   11 (A) A   20 (A) A     -0.0054
     6 (A) A   7 (A) A   23 (A) A   28 (A) A      0.0052
    -----------------------------------------------------

  Density matrix analysis:
  ------------------------
  NOs
    Occupation of frontier NOs:
       0.9439   1.0639
    Number of electrons: 16.000000
    Number of unpaired electrons: n_u =  2.35285, n_u,nl =  2.07028
    NO participation ratio (PR_NO):  3.092370
  
  
  Mulliken Population Analysis
  Atom      Charge (e)              h+              e-           Del q
  --------------------------------------------------------------------
   1 H        0.150850        0.125946       -0.027290        0.098655
   2 C       -0.301772        0.268554       -0.465939       -0.197385
   3 H        0.150915        0.126025       -0.027309        0.098715
   4 C       -0.301783        0.268573       -0.465957       -0.197384
   5 H        0.150932        0.126035       -0.027302        0.098733
   6 H        0.150858        0.125960       -0.027295        0.098665
  --------------------------------------------------------------------
  Sum:        0.000000        1.041093       -1.041093       -0.000000
  
  Multipole moment analysis of the density matrix
    Molecular charge:                      0.000000
    Number of electrons:                   16.000000
      Center of electronic charge [Ang]: [ -1.561337,  -0.065289,   0.002126]
    Total nuclear charge:                  16.000000
      Center of nuclear charge [Ang]:    [ -1.561338,  -0.065287,   0.002127]
    Dipole moment [D]:                     0.000226
      Cartesian components [D]:          [ -0.000131,   0.000161,   0.000089]
    RMS size of the density [Ang]:         1.192252
      Cartesian components [Ang]:        [  0.779774,   0.763719,   0.479738]
  
  Exciton analysis of the difference density matrix
    <r_h> [Ang]:                  [ -1.561374,  -0.065260,   0.002129]
    <r_e> [Ang]:                  [ -1.561350,  -0.065291,   0.002119]
    |<r_e - r_h>| [Ang]:            0.000040
    Hole size [Ang]:                1.489434
      Cartesian components [Ang]: [  1.006646,   0.995689,   0.462257]
    Electron size [Ang]:            1.489196
      Cartesian components [Ang]: [  0.888665,   0.867589,   0.821747]

  Transition density matrix analysis:
  -----------------------------------
  
  CT numbers (Mulliken)
    omega =     0.9244
    <Phe> =    -0.0104
  
  Exciton analysis of the transition density matrix
    Trans. dipole moment [D]:             0.004196
      Cartesian components [D]:         [ -0.003031,   0.002901,   0.000020]
    <r_h> [Ang]:                        [ -1.561379,  -0.065254,   0.002131]
    <r_e> [Ang]:                        [ -1.561346,  -0.065294,   0.002116]
    |<r_e - r_h>| [Ang]:                  0.000054
    Hole size [Ang]:                      1.516949
      Cartesian components [Ang]:       [  1.028953,   1.018054,   0.453823]
    Electron size [Ang]:                  1.486057
      Cartesian components [Ang]:       [  0.879265,   0.857343,   0.836793]
    RMS electron-hole separation [Ang]:   2.104237
      Cartesian components [Ang]:       [  1.337958,   1.316450,   0.951126]
    Covariance(r_h, r_e) [Ang^2]:         0.040843
    Correlation coefficient:              0.018118
    Center-of-mass size [Ang]:            1.071353
      Cartesian components [Ang]:       [  0.684392,   0.672663,   0.476370]

  Decomposition into state-averaged NTOs
    H- 1 -> L+ 0:  0.6582 ( 86.7%)
    H- 0 -> L+ 2:  0.1666 (  5.6%)
                   omega =  92.4%
  ----------------------------------------------------------------------------


  Excited state 2 (singlet, A)                                     [converged]
  ----------------------------------------------------------------------------
  Term symbol:  3 (1) A                                     R^2 =  4.35075e-13

  Total energy:                                            -77.9805753968 a.u.
  Excitation energy:                                               9.131516 eV

  Osc. strength:                                                      0.465355
  Trans. dip. moment [a.u.]:           [   1.045759,   -0.993170,   -0.009810]
  <i|r^2|0> [a.u.]:                    [   6.171172,   -0.244866,   -0.000280]
  Two-photon absorption cross-section (SoS) [a.u.]:                   0.000159
  Two-photon absorption matrix (SoS) [a.u.]:
                                       |    0.000354    0.000343   -0.003062 |
                                       |    0.000343    0.000374   -0.003174 |
                                       |   -0.003062   -0.003174   -0.000657 |
  Two-photon absorption cross-section [a.u.]:                         0.000000
  Two-photon absorption matrix [a.u.]:
                                       |    0.000003   -0.000002   -0.000113 |
                                       |   -0.000002   -0.000055   -0.000050 |
                                       |   -0.000113   -0.000050   -0.000005 |

  Dip. moment [a.u.]:                  [  -0.000003,    0.000002,    0.000017]
  Total dipole [Debye]:                                               0.000043
  <r^2> [a.u.]:                        [ 175.634112,   35.167849,   11.906533]
  Total <r^2> [a.u.]:                                               222.708494

  V1^2 = 0.9713, V2^2 = 0.0287

  Important amplitudes:
      occ i     occ j     vir a      vir b          v   
    -----------------------------------------------------
     8 (A) A              9 (A) A                 0.6808
     4 (A) A             10 (A) A                 0.0674
     7 (A) A             16 (A) A                 0.0578
     6 (A) A             14 (A) A                -0.0545
     5 (A) A             13 (A) A                -0.0544
     6 (A) A             23 (A) A                -0.0483
     8 (A) A             20 (A) A                 0.0341
     3 (A) A             12 (A) A                -0.0272
     6 (A) A             12 (A) A                 0.0234
     5 (A) A             22 (A) A                 0.0229
     6 (A) A             19 (A) A                -0.0218
     7 (A) A             11 (A) A                -0.0204
     4 (A) A             24 (A) A                 0.0197
     3 (A) A             26 (A) A                 0.0188
     8 (A) A   8 (A) B   17 (A) A   20 (A) B     -0.0180
     7 (A) A             21 (A) A                 0.0172
     8 (A) A   8 (A) B    9 (A) A   28 (A) B     -0.0165
     6 (A) A             26 (A) A                 0.0165
     3 (A) A             14 (A) A                -0.0132
     3 (A) A   4 (A) B    9 (A) A    9 (A) B     -0.0127
     8 (A) A   8 (A) B   18 (A) A   19 (A) B      0.0107
     3 (A) A             19 (A) A                -0.0105
     7 (A) A             32 (A) A                 0.0100
     3 (A) A             23 (A) A                -0.0087
     7 (A) A             36 (A) A                 0.0085
     8 (A) A   8 (A) B   25 (A) A   29 (A) B      0.0075
     6 (A) A             34 (A) A                 0.0072
     5 (A) A   8 (A) B   11 (A) A    9 (A) B     -0.0067
     6 (A) A             40 (A) A                -0.0066
     3 (A) A   6 (A) B    9 (A) A   28 (A) B     -0.0063
     5 (A) A   8 (A) B   16 (A) A    9 (A) B     -0.0062
     5 (A) A   8 (A) B   11 (A) A   20 (A) B      0.0061
     7 (A) A   8 (A) B   13 (A) A   20 (A) B      0.0060
     5 (A) A   7 (A) B    9 (A) A    9 (A) B     -0.0059
     3 (A) A   5 (A) B    9 (A) A   25 (A) B     -0.0059
     6 (A) A   8 (A) B   15 (A) A    9 (A) B      0.0059
     3 (A) A             40 (A) A                -0.0057
     7 (A) A   8 (A) B   22 (A) A   20 (A) B     -0.0057
     6 (A) A   8 (A) A    9 (A) A   18 (A) A     -0.0056
     4 (A) A   8 (A) B   12 (A) A   20 (A) B      0.0056
    -----------------------------------------------------

  Density matrix analysis:
  ------------------------
  NOs
    Occupation of frontier NOs:
       0.9485   1.0230
    Number of electrons: 16.000000
    Number of unpaired electrons: n_u =  2.31412, n_u,nl =  2.03227
    NO participation ratio (PR_NO):  2.872692
  
  
  Mulliken Population Analysis
  Atom      Charge (e)              h+              e-           Del q
  --------------------------------------------------------------------
   1 H        0.061151        0.021857       -0.012901        0.008956
   2 C       -0.122296        0.493601       -0.511511       -0.017910
   3 H        0.061155        0.021857       -0.012902        0.008955
   4 C       -0.122312        0.493600       -0.511513       -0.017913
   5 H        0.061154        0.021857       -0.012901        0.008956
   6 H        0.061149        0.021857       -0.012901        0.008956
  --------------------------------------------------------------------
  Sum:        0.000000        1.074629       -1.074629        0.000000
  
  Multipole moment analysis of the density matrix
    Molecular charge:                      0.000000
    Number of electrons:                   16.000000
      Center of electronic charge [Ang]: [ -1.561338,  -0.065287,   0.002127]
    Total nuclear charge:                  16.000000
      Center of nuclear charge [Ang]:    [ -1.561338,  -0.065287,   0.002127]
    Dipole moment [D]:                     0.000043
      Cartesian components [D]:          [ -0.000008,   0.000005,   0.000042]
    RMS size of the density [Ang]:         1.206545
      Cartesian components [Ang]:        [  0.797579,   0.781817,   0.456488]
  
  Exciton analysis of the difference density matrix
    <r_h> [Ang]:                  [ -1.561335,  -0.065289,   0.002119]
    <r_e> [Ang]:                  [ -1.561336,  -0.065288,   0.002118]
    |<r_e - r_h>| [Ang]:            0.000001
    Hole size [Ang]:                1.280360
      Cartesian components [Ang]: [  0.725631,   0.711107,   0.779172]
    Electron size [Ang]:            1.465994
      Cartesian components [Ang]: [  0.853263,   0.831195,   0.854516]

  Transition density matrix analysis:
  -----------------------------------
  
  CT numbers (Mulliken)
    omega =     0.9530
    <Phe> =    -0.1478
  
  Exciton analysis of the transition density matrix
    Trans. dipole moment [D]:             1.832921
      Cartesian components [D]:         [  1.329027,  -1.262193,  -0.012467]
    <r_h> [Ang]:                        [ -1.561334,  -0.065290,   0.002120]
    <r_e> [Ang]:                        [ -1.561336,  -0.065288,   0.002117]
    |<r_e - r_h>| [Ang]:                  0.000004
    Hole size [Ang]:                      1.197898
      Cartesian components [Ang]:       [  0.637605,   0.625579,   0.798166]
    Electron size [Ang]:                  1.494212
      Cartesian components [Ang]:       [  0.866346,   0.842713,   0.878607]
    RMS electron-hole separation [Ang]:   1.923342
      Cartesian components [Ang]:       [  1.092933,   1.063671,   1.171899]
    Covariance(r_h, r_e) [Ang^2]:        -0.015809
    Correlation coefficient:             -0.008832
    Center-of-mass size [Ang]:            0.953416
      Cartesian components [Ang]:       [  0.529076,   0.517598,   0.600977]

  Decomposition into state-averaged NTOs
    H- 0 -> L+ 0: -0.6701 ( 89.8%)
    H- 2 -> L+ 5:  0.0761 (  1.2%)
                   omega =  95.3%
  ----------------------------------------------------------------------------


  Excited state 3 (singlet, A)                                     [converged]
  ----------------------------------------------------------------------------
  Term symbol:  4 (1) A                                     R^2 =  6.54247e-13

  Total energy:                                            -77.9761981074 a.u.
  Excitation energy:                                               9.250628 eV

  Osc. strength:                                                      0.020937
  Trans. dip. moment [a.u.]:           [   0.014015,    0.018818,   -0.303034]
  <i|r^2|0> [a.u.]:                    [   0.082440,    0.004881,    0.002445]
  Two-photon absorption cross-section (SoS) [a.u.]:                   0.000022
  Two-photon absorption matrix (SoS) [a.u.]:
                                       |   -0.001604   -0.000078   -0.000146 |
                                       |   -0.000078    0.001670    0.000070 |
                                       |   -0.000146    0.000070    0.000119 |
  Two-photon absorption cross-section [a.u.]:                         0.000012
  Two-photon absorption matrix [a.u.]:
                                       |   -0.001153   -0.000085   -0.000149 |
                                       |   -0.000085    0.001288    0.000051 |
                                       |   -0.000149    0.000051    0.000062 |

  Dip. moment [a.u.]:                  [   0.000033,    0.000063,   -0.000015]
  Total dipole [Debye]:                                               0.000185
  <r^2> [a.u.]:                        [ 180.203202,   39.973662,   10.976552]
  Total <r^2> [a.u.]:                                               231.153416

  V1^2 = 0.9577, V2^2 = 0.0423

  Important amplitudes:
      occ i     occ j     vir a      vir b          v   
    -----------------------------------------------------
     8 (A) A             10 (A) A                 0.6884
     8 (A) A             24 (A) A                 0.0513
     8 (A) A             18 (A) A                -0.0336
     4 (A) A              9 (A) A                 0.0261
     8 (A) A   8 (A) B    9 (A) A   12 (A) B     -0.0212
     8 (A) A             15 (A) A                 0.0180
     8 (A) A   8 (A) B   10 (A) A   17 (A) B      0.0176
     5 (A) A   8 (A) B   11 (A) A   10 (A) B     -0.0172
     7 (A) A   8 (A) B   13 (A) A   10 (A) B     -0.0143
     4 (A) A   8 (A) B   12 (A) A   10 (A) B     -0.0114
     4 (A) A   8 (A) A   10 (A) A   12 (A) A      0.0111
     6 (A) A   8 (A) A   10 (A) A   15 (A) A     -0.0111
     7 (A) A   8 (A) B   22 (A) A   10 (A) B      0.0110
     6 (A) A   8 (A) B   15 (A) A   10 (A) B      0.0108
     7 (A) A   8 (A) A   10 (A) A   22 (A) A     -0.0100
     7 (A) A   8 (A) A   10 (A) A   13 (A) A      0.0099
     5 (A) A   8 (A) A   10 (A) A   11 (A) A      0.0098
     6 (A) A   8 (A) B   10 (A) A   10 (A) B     -0.0094
     5 (A) A   8 (A) B   21 (A) A   10 (A) B      0.0093
     6 (A) A   8 (A) A   10 (A) A   18 (A) A     -0.0087
     7 (A) A   8 (A) A   12 (A) A   16 (A) A     -0.0084
     3 (A) A   4 (A) B   10 (A) A    9 (A) B     -0.0079
     4 (A) A   8 (A) B   19 (A) A   10 (A) B     -0.0078
     5 (A) A   8 (A) A   10 (A) A   21 (A) A     -0.0078
     8 (A) A   8 (A) B    9 (A) A   19 (A) B     -0.0077
     5 (A) A   8 (A) B   10 (A) A   11 (A) B     -0.0074
     8 (A) A   8 (A) B   10 (A) A   28 (A) B     -0.0073
     7 (A) A   8 (A) B   16 (A) A   12 (A) B      0.0072
     3 (A) A   8 (A) B   10 (A) A   10 (A) B      0.0071
     3 (A) A   8 (A) A   10 (A) A   24 (A) A     -0.0071
     3 (A) A   8 (A) B   10 (A) A   18 (A) B     -0.0069
     6 (A) A   8 (A) B   18 (A) A   10 (A) B      0.0067
     8 (A) A   8 (A) B    9 (A) A   23 (A) B      0.0066
     5 (A) A   8 (A) A   10 (A) A   16 (A) A      0.0062
     7 (A) A   8 (A) B   12 (A) A   11 (A) B      0.0062
     6 (A) A             28 (A) A                 0.0061
     3 (A) A   6 (A) B   10 (A) A   28 (A) B     -0.0061
     4 (A) A             20 (A) A                 0.0059
     3 (A) A   5 (A) B   10 (A) A   25 (A) B     -0.0057
     3 (A) A   8 (A) A   10 (A) A   18 (A) A     -0.0056
    -----------------------------------------------------

  Density matrix analysis:
  ------------------------
  NOs
    Occupation of frontier NOs:
       0.9822   0.9850
    Number of electrons: 16.000000
    Number of unpaired electrons: n_u =  2.28746, n_u,nl =  2.02468
    NO participation ratio (PR_NO):  2.695024
  
  
  Mulliken Population Analysis
  Atom      Charge (e)              h+              e-           Del q
  --------------------------------------------------------------------
   1 H       -0.148527        0.055250       -0.255971       -0.200722
   2 C        0.297073        0.537656       -0.136196        0.401460
   3 H       -0.148547        0.055252       -0.255998       -0.200747
   4 C        0.297062        0.537650       -0.136189        0.401461
   5 H       -0.148525        0.055253       -0.255977       -0.200724
   6 H       -0.148536        0.055250       -0.255979       -0.200729
  --------------------------------------------------------------------
  Sum:        0.000000        1.296310       -1.296310        0.000000
  
  Multipole moment analysis of the density matrix
    Molecular charge:                      0.000000
    Number of electrons:                   16.000000
      Center of electronic charge [Ang]: [ -1.561339,  -0.065289,   0.002128]
    Total nuclear charge:                  16.000000
      Center of nuclear charge [Ang]:    [ -1.561338,  -0.065287,   0.002127]
    Dipole moment [D]:                     0.000185
      Cartesian components [D]:          [  0.000084,   0.000160,  -0.000038]
    RMS size of the density [Ang]:         1.266313
      Cartesian components [Ang]:        [  0.846225,   0.833875,   0.438297]
  
  Exciton analysis of the difference density matrix
    <r_h> [Ang]:                  [ -1.561336,  -0.065289,   0.002122]
    <r_e> [Ang]:                  [ -1.561352,  -0.065314,   0.002135]
    |<r_e - r_h>| [Ang]:            0.000032
    Hole size [Ang]:                1.398295
      Cartesian components [Ang]: [  0.826076,   0.813299,   0.781904]
    Electron size [Ang]:            2.049899
      Cartesian components [Ang]: [  1.355148,   1.361301,   0.715905]

  Transition density matrix analysis:
  -----------------------------------
  
  CT numbers (Mulliken)
    omega =     0.9261
    <Phe> =    -0.0110
  
  Exciton analysis of the transition density matrix
    Trans. dipole moment [D]:             0.386271
      Cartesian components [D]:         [  0.017812,   0.023916,  -0.385118]
    <r_h> [Ang]:                        [ -1.561333,  -0.065289,   0.002118]
    <r_e> [Ang]:                        [ -1.561356,  -0.065323,   0.002138]
    |<r_e - r_h>| [Ang]:                  0.000046
    Hole size [Ang]:                      1.194433
      Cartesian components [Ang]:       [  0.622444,   0.610725,   0.816241]
    Electron size [Ang]:                  2.270588
      Cartesian components [Ang]:       [  1.500232,   1.509474,   0.791428]
    RMS electron-hole separation [Ang]:   2.556321
      Cartesian components [Ang]:       [  1.617266,   1.621797,   1.135342]
    Covariance(r_h, r_e) [Ang^2]:         0.023731
    Correlation coefficient:              0.008750
    Center-of-mass size [Ang]:            1.287410
      Cartesian components [Ang]:       [  0.815585,   0.817430,   0.569257]

  Decomposition into state-averaged NTOs
    H- 0 -> L+ 1:  0.6797 ( 92.4%)
                   omega =  92.6%
  ----------------------------------------------------------------------------


  Excited state 4 (singlet, A)                                     [converged]
  ----------------------------------------------------------------------------
  Term symbol:  5 (1) A                                     R^2 =  3.28229e-13

  Total energy:                                            -77.9560060850 a.u.
  Excitation energy:                                               9.800081 eV

  Osc. strength:                                                      0.000000
  Trans. dip. moment [a.u.]:           [   0.000241,   -0.000223,   -0.000008]
  <i|r^2|0> [a.u.]:                    [  -0.011481,   -0.017128,    0.029976]
  Two-photon absorption cross-section (SoS) [a.u.]:                  94.769456
  Two-photon absorption matrix (SoS) [a.u.]:
                                       |   -0.227073   -0.261539    2.344468 |
                                       |   -0.261539   -0.298984    2.464225 |
                                       |    2.344468    2.464225    0.526057 |
  Two-photon absorption cross-section [a.u.]:                        66.235923
  Two-photon absorption matrix [a.u.]:
                                       |   -0.190344   -0.218676    1.960007 |
                                       |   -0.218676   -0.249444    2.060124 |
                                       |    1.960007    2.060124    0.439790 |

  Dip. moment [a.u.]:                  [  -0.000064,   -0.000054,   -0.000028]
  Total dipole [Debye]:                                               0.000225
  <r^2> [a.u.]:                        [ 180.347301,   40.003652,   10.779915]
  Total <r^2> [a.u.]:                                               231.130868

  V1^2 = 0.9631, V2^2 = 0.0369

  Important amplitudes:
      occ i     occ j     vir a      vir b          v   
    -----------------------------------------------------
     8 (A) A             11 (A) A                -0.6650
     7 (A) A              9 (A) A                -0.1689
     8 (A) A             21 (A) A                 0.0762
     8 (A) A             16 (A) A                -0.0678
     5 (A) A   8 (A) B   11 (A) A   11 (A) B      0.0159
     7 (A) A             20 (A) A                -0.0158
     8 (A) A   8 (A) B    9 (A) A   13 (A) B     -0.0153
     8 (A) A   8 (A) B   11 (A) A   17 (A) B     -0.0141
     7 (A) A   8 (A) B   13 (A) A   11 (A) B      0.0128
     4 (A) A   8 (A) B   12 (A) A   11 (A) B      0.0113
     5 (A) A   8 (A) A   11 (A) A   21 (A) A      0.0109
     8 (A) A   8 (A) B    9 (A) A   22 (A) B      0.0104
     7 (A) A   8 (A) A   11 (A) A   22 (A) A      0.0096
     6 (A) A   8 (A) B   10 (A) A   11 (A) B      0.0095
     6 (A) A   8 (A) B   15 (A) A   11 (A) B     -0.0090
     7 (A) A   8 (A) B   22 (A) A   11 (A) B     -0.0090
     3 (A) A   4 (A) B   11 (A) A    9 (A) B      0.0083
     3 (A) A   8 (A) B   11 (A) A   18 (A) B      0.0081
     7 (A) A   8 (A) A   13 (A) A   16 (A) A     -0.0079
     6 (A) A   8 (A) A   11 (A) A   15 (A) A      0.0079
     7 (A) A   8 (A) A   11 (A) A   13 (A) A     -0.0076
     4 (A) A   8 (A) B   19 (A) A   11 (A) B      0.0074
     5 (A) A   8 (A) B    9 (A) A    9 (A) B      0.0071
     5 (A) A   8 (A) B   21 (A) A   11 (A) B     -0.0069
     4 (A) A   8 (A) A   11 (A) A   12 (A) A     -0.0064
     6 (A) A   8 (A) B   18 (A) A   11 (A) B     -0.0061
     6 (A) A   8 (A) A   11 (A) A   18 (A) A      0.0060
     3 (A) A   6 (A) B   11 (A) A   28 (A) B      0.0059
     3 (A) A   8 (A) B   11 (A) A   30 (A) B      0.0058
     5 (A) A   8 (A) B   10 (A) A   10 (A) B      0.0057
     3 (A) A   8 (A) A   11 (A) A   18 (A) A      0.0057
     7 (A) A   8 (A) B   12 (A) A   10 (A) B     -0.0057
     6 (A) A   8 (A) B   11 (A) A   10 (A) B      0.0056
     5 (A) A   8 (A) A   11 (A) A   16 (A) A     -0.0056
     3 (A) A   5 (A) B   11 (A) A   25 (A) B      0.0055
     7 (A) A   8 (A) B   16 (A) A   13 (A) B      0.0055
     8 (A) A   8 (A) B   20 (A) A   22 (A) B      0.0054
     3 (A) A   8 (A) A   11 (A) A   24 (A) A      0.0053
     6 (A) A   8 (A) A   10 (A) A   16 (A) A     -0.0049
     8 (A) A   6 (A) B   22 (A) A   23 (A) B      0.0043
    -----------------------------------------------------

  Density matrix analysis:
  ------------------------
  NOs
    Occupation of frontier NOs:
       0.9290   1.0405
    Number of electrons: 16.000000
    Number of unpaired electrons: n_u =  2.31966, n_u,nl =  2.05753
    NO participation ratio (PR_NO):  2.984830
  
  
  Mulliken Population Analysis
  Atom      Charge (e)              h+              e-           Del q
  --------------------------------------------------------------------
   1 H       -0.126958        0.048254       -0.227406       -0.179152
   2 C        0.254025        0.491344       -0.132933        0.358411
   3 H       -0.127064        0.048258       -0.227522       -0.179263
   4 C        0.254005        0.491344       -0.132940        0.358404
   5 H       -0.127078        0.048259       -0.227536       -0.179276
   6 H       -0.126931        0.048254       -0.227378       -0.179123
  --------------------------------------------------------------------
  Sum:        0.000000        1.175713       -1.175713        0.000000
  
  Multipole moment analysis of the density matrix
    Molecular charge:                      0.000000
    Number of electrons:                   16.000000
      Center of electronic charge [Ang]: [ -1.561336,  -0.065285,   0.002128]
    Total nuclear charge:                  16.000000
      Center of nuclear charge [Ang]:    [ -1.561338,  -0.065287,   0.002127]
    Dipole moment [D]:                     0.000225
      Cartesian components [D]:          [ -0.000163,  -0.000138,  -0.000070]
    RMS size of the density [Ang]:         1.266161
      Cartesian components [Ang]:        [  0.847720,   0.834190,   0.434354]
  
  Exciton analysis of the difference density matrix
    <r_h> [Ang]:                  [ -1.561336,  -0.065284,   0.002122]
    <r_e> [Ang]:                  [ -1.561310,  -0.065259,   0.002141]
    |<r_e - r_h>| [Ang]:            0.000042
    Hole size [Ang]:                1.385456
      Cartesian components [Ang]: [  0.814241,   0.802136,   0.782992]
    Electron size [Ang]:            2.095610
      Cartesian components [Ang]: [  1.403510,   1.401604,   0.676201]

  Transition density matrix analysis:
  -----------------------------------
  
  CT numbers (Mulliken)
    omega =     0.9305
    <Phe> =    -0.0155
  
  Exciton analysis of the transition density matrix
    Trans. dipole moment [D]:             0.000418
      Cartesian components [D]:         [  0.000306,  -0.000284,  -0.000010]
    <r_h> [Ang]:                        [ -1.561337,  -0.065287,   0.002119]
    <r_e> [Ang]:                        [ -1.561306,  -0.065253,   0.002144]
    |<r_e - r_h>| [Ang]:                  0.000053
    Hole size [Ang]:                      1.215700
      Cartesian components [Ang]:       [  0.654643,   0.643170,   0.797309]
    Electron size [Ang]:                  2.227467
      Cartesian components [Ang]:       [  1.491725,   1.491028,   0.716379]
    RMS electron-hole separation [Ang]:   2.527198
      Cartesian components [Ang]:       [  1.620752,   1.616145,   1.071433]
    Covariance(r_h, r_e) [Ang^2]:         0.026402
    Correlation coefficient:              0.009750
    Center-of-mass size [Ang]:            1.274004
      Cartesian components [Ang]:       [  0.818652,   0.815742,   0.536151]

  Decomposition into state-averaged NTOs
    H- 0 -> L+ 2: -0.6609 ( 87.4%)
    H- 1 -> L+ 0:  0.1669 (  5.6%)
                   omega =  93.1%
  ----------------------------------------------------------------------------


  Excited state 5 (singlet, A)                                     [converged]
  ----------------------------------------------------------------------------
  Term symbol:  6 (1) A                                     R^2 =  2.84407e-13

  Total energy:                                            -77.9337698688 a.u.
  Excitation energy:                                              10.405160 eV

  Osc. strength:                                                      0.000000
  Trans. dip. moment [a.u.]:           [   0.000045,    0.000028,   -0.000001]
  <i|r^2|0> [a.u.]:                    [  -0.079070,    0.094670,   -0.015392]
  Two-photon absorption cross-section (SoS) [a.u.]:                 193.417082
  Two-photon absorption matrix (SoS) [a.u.]:
                                       |   -0.342294   -0.051998    3.556854 |
                                       |   -0.051998    0.407086   -3.373364 |
                                       |    3.556854   -3.373364   -0.066203 |
  Two-photon absorption cross-section [a.u.]:                        95.714795
  Two-photon absorption matrix [a.u.]:
                                       |   -0.241394   -0.036957    2.502124 |
                                       |   -0.036957    0.285725   -2.373041 |
                                       |    2.502124   -2.373041   -0.046450 |

  Dip. moment [a.u.]:                  [   0.000052,   -0.000072,   -0.000002]
  Total dipole [Debye]:                                               0.000227
  <r^2> [a.u.]:                        [ 179.552045,   39.074474,   11.474599]
  Total <r^2> [a.u.]:                                               230.101118

  V1^2 = 0.9548, V2^2 = 0.0452

  Important amplitudes:
      occ i     occ j     vir a      vir b          v   
    -----------------------------------------------------
     8 (A) A             12 (A) A                 0.5828
     6 (A) A              9 (A) A                 0.3612
     8 (A) A             19 (A) A                 0.0564
     6 (A) A             20 (A) A                 0.0502
     8 (A) A             23 (A) A                -0.0275
     8 (A) A   8 (A) B    9 (A) A   10 (A) B     -0.0202
     8 (A) A             26 (A) A                -0.0179
     3 (A) A              9 (A) A                 0.0166
     5 (A) A   8 (A) B   11 (A) A   12 (A) B     -0.0156
     4 (A) A   8 (A) B    9 (A) A    9 (A) B      0.0152
[...]
    16   -1.304797003468e-03
    17   -1.580997940997e-03
    18    1.369437875055e-04
    19   -2.979014877507e-03
    20    1.433845744917e-02
    21    9.109731014583e-01
    22   -9.640044416392e-04
    23    1.320863429446e-02
    24    7.541940990439e-04
    25    7.034016314832e-02
    26   -5.203797291729e-02
    27   -1.363335269825e+00
    28    1.022173661254e-01
    29   -9.708245534490e-02
    30   -1.003397801608e-03
    31    3.821987708027e-01
    32   -3.629440813942e-01
    33   -3.731819009132e-03
    34    1.353671188081e-02
    35   -1.302588223858e-03
    36   -1.579698959289e-03
    37    1.371891477393e-04
    38   -2.978125509406e-03
    39    1.433268906306e-02
    40    9.109648226766e-01
    41    9.636518066748e-04
    42   -1.320826749550e-02
    43   -7.537238812444e-04
    44    1.433822394332e-02
    45    9.110587040871e-01
    46    1.325030280687e-02
    47   -2.879860397973e-04
    48    6.161034168357e-04
Sym=X
Ene= 0.226659
Spin=Alpha
Occup=0
     1   -3.106968547610e-02
     2   -1.152028617279e+00
     3    1.280632790719e-02
     4    3.185404823783e-03
     5    8.079939510878e-04
     6    1.262113840358e-05
     7   -8.567151536510e-06
     8   -2.261372502885e-04
     9    1.547609275683e-01
    10    1.628137236596e-01
    11    1.728600823427e-02
    12    5.270407316590e-01
    13    5.543582240625e-01
    14    5.886773066012e-02
    15    5.767468931092e-06
    16   -1.486682795433e-04
    17    1.628120190291e-04
    18   -2.871439417954e-03
    19   -1.482142607981e-04
    20    3.108722924337e-02
    21    1.152287571566e+00
    22    2.529457343350e-03
    23    1.294976113280e-02
    24    9.052143385845e-04
    25   -1.428267023823e-05
    26    9.967868759480e-06
    27    2.665582064022e-04
    28    1.547590612024e-01
    29    1.628208379281e-01
    30    1.725096977697e-02
    31    5.269949082042e-01
    32    5.543467517819e-01
    33    5.873157396701e-02
    34   -5.783134506155e-06
    35    1.504726496723e-04
    36   -1.637862432515e-04
    37    2.869266878051e-03
    38    1.480994745560e-04
    39   -3.108736599222e-02
    40   -1.152264358975e+00
    41    2.529234147121e-03
    42    1.295006643820e-02
    43    9.033019311904e-04
    44    3.106926410930e-02
    45    1.151953465597e+00
    46    1.280598995628e-02
    47    3.185135517940e-03
    48    8.059871096091e-04
Sym=X
Ene= 0.239412
Spin=Alpha
Occup=0
     1    1.961356029437e-02
     2    1.080891593105e+00
     3   -1.642157543038e-02
     4   -8.574443964328e-03
     5   -1.306500054273e-03
     6    8.626613364130e-02
     7   -8.051039578692e-02
     8   -1.554035540064e+00
     9   -6.412747356722e-02
    10    6.085982751413e-02
    11    6.005046839339e-04
    12   -2.390035424001e-01
    13    2.267991158453e-01
    14    2.225831137195e-03
    15    2.175866265289e-02
    16   -2.619095148230e-03
    17   -2.991984770426e-03
    18    6.753669588642e-04
    19   -1.366511206044e-02
    20    1.961076986322e-02
    21    1.080421035849e+00
    22    7.730257678040e-03
    23    1.682146381380e-02
    24    1.388028842383e-03
    25   -8.626478784420e-02
    26    8.050635638572e-02
    27    1.554031095019e+00
    28   -6.412935462025e-02
    29    6.086311377972e-02
    30    6.156697191173e-04
    31   -2.390043868683e-01
    32    2.268277320399e-01
    33    2.287903443419e-03
    34   -2.175875916964e-02
    35    2.616853270355e-03
    36    2.992248454778e-03
    37   -6.764284845228e-04
    38    1.366464991470e-02
    39   -1.960957066528e-02
    40   -1.080441889760e+00
    41    7.730896472233e-03
    42    1.682173210107e-02
    43    1.388636103681e-03
    44   -1.961179047118e-02
    45   -1.080864073480e+00
    46   -1.642079832349e-02
    47   -8.575567373970e-03
    48   -1.305137031609e-03
Sym=X
Ene= 0.305150
Spin=Alpha
Occup=0
     1   -2.353423876882e-02
     2    1.673695800045e+00
     3   -2.262057548309e-02
     4   -2.982343400688e-05
     5   -1.089570540980e-03
     6   -5.762067048998e-07
     7    7.230967618127e-07
     8   -9.393327842645e-05
     9   -1.334366980040e-01
    10   -1.403514307893e-01
    11   -1.489494548555e-02
    12   -1.169176734177e+00
    13   -1.229752654092e+00
    14   -1.304664792027e-01
    15    2.906421785600e-05
    16   -1.552857479070e-03
    17    1.759226488708e-03
    18   -3.036256474228e-02
    19   -1.554168521436e-03
    20    2.351467340790e-02
    21   -1.673570502043e+00
    22    1.126300124229e-03
    23   -2.258057776249e-02
    24   -1.309681349893e-03
    25    1.193952080852e-06
    26    1.321392542763e-06
    27   -1.690589680743e-04
    28    1.334427739427e-01
    29    1.403568698424e-01
    30    1.488012754916e-02
    31    1.169143520983e+00
    32    1.229768547200e+00
    33    1.304162563456e-01
    34    3.068247819277e-05
    35   -1.550193409148e-03
    36    1.760566867960e-03
    37   -3.036080893691e-02
    38   -1.555105882909e-03
    39    2.350990464773e-02
    40   -1.673562326192e+00
    41   -1.127563152212e-03
    42    2.257993437407e-02
    43    1.309161497944e-03
    44   -2.352853186501e-02
    45    1.673725600673e+00
    46    2.262129292749e-02
    47    2.928479627452e-05
    48    1.087899514281e-03
Sym=X
Ene= 0.464844
Spin=Alpha
Occup=0
     1   -1.312803843659e-01
     2   -6.731336206978e-01
     3   -1.960975666105e-02
     4   -9.060487886580e-03
     5   -1.490471345733e-03
     6    5.763092220829e-02
     7    2.926817145820e-02
     8   -4.106307636698e+00
     9    9.296348687213e-02
    10   -8.829384429543e-02
    11   -8.895727154407e-04
    12    2.527355353433e+00
    13   -2.400104478414e+00
    14   -2.344235367119e-02
    15    6.174861607557e-02
    16   -3.942840449121e-03
    17   -5.412423739455e-03
    18   -1.132509638302e-03
    19    2.111411064930e-02
    20   -1.313458427726e-01
    21   -6.729018489613e-01
    22    8.045197142092e-03
    23    2.003894866857e-02
    24    1.597533584949e-03
    25   -5.763191823262e-02
    26   -2.925598999113e-02
    27    4.106313171875e+00
    28    9.298485953930e-02
    29   -8.831007119636e-02
    30   -8.973527557740e-04
    31    2.527319143932e+00
    32   -2.400052517601e+00
    33   -2.347672434464e-02
    34   -6.174166613211e-02
    35    3.937089889583e-03
    36    5.405299241940e-03
    37    1.131659376545e-03
    38   -2.112264466064e-02
    39    1.312985630188e-01
    40    6.729453664092e-01
    41    8.043402568257e-03
    42    2.003790232837e-02
    43    1.595132074546e-03
    44    1.312389740753e-01
    45    6.731694521422e-01
    46   -1.960811738105e-02
    47   -9.057402278183e-03
    48   -1.488624753301e-03
Sym=X
Ene= 0.566437
Spin=Alpha
Occup=0
     1    2.403882282044e-01
     2    1.680426405606e-02
     3   -1.802394332422e-02
     4    2.557234729451e-02
     5    6.794902694155e-04
     6   -7.620626150043e-03
     7   -1.756482185903e-01
     8   -3.714752269527e-01
     9    2.953362773285e-01
    10   -2.805070881867e-01
    11   -2.744909892016e-03
    12   -7.498413817469e-01
    13    7.121207949349e-01
    14    7.014605480751e-03
    15   -1.127442938146e-02
    16    3.941139497207e-03
    17    3.836369072733e-03
    18   -2.637340480692e-03
    19    5.147000120996e-02
    20    2.404525959296e-01
    21    1.660064270014e-02
    22   -2.647622625570e-02
    23    1.668282901729e-02
    24   -2.637073825896e-04
    25   -7.630035203318e-03
    26   -1.756568761270e-01
    27   -3.708901898921e-01
    28   -2.953238967260e-01
    29    2.804893146213e-01
    30    2.742940540125e-03
    31    7.502280466089e-01
    32   -7.124706288476e-01
    33   -7.023527401343e-03
    34   -1.127778119900e-02
    35    3.940975836285e-03
    36    3.836218566214e-03
    37   -2.634860503978e-03
    38    5.146845152937e-02
    39    2.404334987814e-01
    40    1.676153920866e-02
    41    2.648237657847e-02
    42   -1.668551452254e-02
    43    2.629119068465e-04
    44    2.404004890215e-01
    45    1.693519395553e-02
    46    1.802381905068e-02
    47   -2.557502793345e-02
    48   -6.801029463382e-04
Sym=X
Ene= 0.624225
Spin=Alpha
Occup=0
     1   -5.262695800300e-01
     2    2.802842338714e-01
     3   -6.681550836886e-02
     4    3.959344629297e-02
     5   -8.162266134361e-04
     6   -5.073676385726e-06
     7   -2.085854597425e-05
     8   -1.672734258300e-04
     9   -1.673514294511e-02
    10   -1.756930161350e-02
    11   -1.861613131867e-03
    12    2.227949133731e-01
    13    2.338674371536e-01
    14    2.486010741140e-02
    15    1.541557575233e-04
    16   -8.105184580425e-03
    17    9.184714306358e-03
    18   -1.585160731858e-01
    19   -8.092185632036e-03
    20    5.261946000444e-01
    21   -2.804799564976e-01
    22    4.298263994149e-02
    23   -6.466635345165e-02
    24   -1.841519726147e-03
    25    3.697722271035e-06
    26    1.320905637592e-05
    27    2.067354398991e-04
    28   -1.673450826957e-02
    29   -1.757184731469e-02
    30   -1.868734267319e-03
    31    2.227940542418e-01
    32    2.339198560952e-01
    33    2.479935885843e-02
    34   -1.505293575371e-04
    35    8.097560620792e-03
    36   -9.190505739772e-03
    37    1.585281338310e-01
    38    8.092139984550e-03
    39   -5.262485062040e-01
    40    2.805256975586e-01
    41    4.297739432816e-02
    42   -6.466835461470e-02
    43   -1.845596677537e-03
    44    5.262731306506e-01
    45   -2.803268559877e-01
    46   -6.681615113772e-02
    47    3.959309411055e-02
    48   -8.156451414378e-04
Sym=X
Ene= 0.679259
Spin=Alpha
Occup=0
     1    4.802690348528e-05
     2    2.878475825889e-05
     3    7.778947954852e-04
     4    9.836787855825e-04
     5   -1.616198537209e-02
     6    2.833655310929e-06
     7   -4.506592098795e-06
     8    7.851750677772e-05
     9    3.169485838508e-02
    10    3.986506191919e-02
    11   -6.596800027643e-01
    12   -2.946994595470e-02
    13   -3.681202043095e-02
    14    6.108754697876e-01
    15   -1.334769317092e-03
    16    8.270607221772e-02
    17   -7.845815428249e-02
    18   -8.708182728981e-03
    19   -1.209452075951e-03
    20    4.080562208196e-05
    21    5.948435785776e-05
    22    7.728853567137e-04
    23    9.767997734582e-04
    24   -1.615284318643e-02
    25   -1.091613014519e-06
    26    3.190137764151e-05
    27   -9.575590928268e-05
    28    3.167722484281e-02
    29    3.983118440846e-02
    30   -6.596821551334e-01
    31   -2.944327746565e-02
    32   -3.676985586071e-02
    33    6.108767178819e-01
    34    1.324611891845e-03
    35   -8.270493211478e-02
    36    7.845929270339e-02
    37    8.718693755129e-03
    38    1.214255085050e-03
    39   -2.371679398326e-05
    40   -4.747184039035e-05
    41    7.702468283743e-04
    42    9.808176426767e-04
    43   -1.615230521620e-02
    44   -1.651342152774e-05
    45   -7.820286159809e-05
    46    7.680798600383e-04
    47    9.771196150409e-04
    48   -1.616249671166e-02
Sym=X
Ene= 0.696674
Spin=Alpha
Occup=0
     1   -4.844493174574e-01
     2    1.826725928255e-01
     3   -7.517155078863e-02
     4   -4.245695995744e-02
     5   -6.181793513957e-03
     6   -4.552659948142e-02
     7   -2.999786427626e-01
     8    4.198590208207e-01
     9    1.973493757922e-01
    10   -1.874423133372e-01
    11   -1.858587705971e-03
    12   -9.348271040824e-02
    13    8.881307944730e-02
    14    8.167086916803e-04
    15    1.865264173241e-01
    16   -2.032924026182e-02
    17   -2.378293861905e-02
    18    3.959041408581e-03
    19   -8.076602941460e-02
    20   -4.845257722551e-01
    21    1.827928476876e-01
    22    3.859023409240e-02
    23    7.719805960176e-02
    24    6.513737008639e-03
    25   -4.552166434795e-02
    26   -2.999748184423e-01
    27    4.194696802663e-01
    28   -1.973483088475e-01
    29    1.874397152839e-01
    30    1.821265052195e-03
    31    9.323807465851e-02
    32   -8.860054398509e-02
    33   -7.737846193764e-04
    34    1.865334291534e-01
    35   -2.032044767734e-02
    36   -2.377136187899e-02
    37    3.952964303124e-03
    38   -8.075396781593e-02
    39   -4.845026758401e-01
    40    1.827131687126e-01
    41   -3.858913545235e-02
    42   -7.719648810553e-02
    43   -6.511100784146e-03
    44   -4.844659061250e-01
    45    1.826117646466e-01
    46    7.517495633162e-02
    47    4.245510168707e-02
    48    6.177320701561e-03
Sym=X
Ene= 0.788858
Spin=Alpha
Occup=0
     1    5.421601537568e-01
     2   -6.254540244764e-01
     3    1.146958061934e-01
     4    3.311199516849e-02
     5    7.513723127964e-03
     6    8.969135125224e-02
     7   -2.288446618378e-01
     8   -1.062921186979e+00
     9    5.091717368607e-02
    10   -4.821125831848e-02
    11   -4.119788015469e-04
    12    6.588214396360e-01
    13   -6.259581051876e-01
    14   -6.211753316396e-03
    15   -1.970989337260e-01
    16    1.888145499203e-02
    17    2.284424051258e-02
    18   -1.932510092504e-03
    19    4.072292448135e-02
    20    5.422203020341e-01
    21   -6.258307145562e-01
    22   -2.725304568330e-02
    23   -1.162160566521e-01
    24   -8.330790605422e-03
    25   -8.969182568487e-02
    26    2.288490935140e-01
    27    1.062974256228e+00
    28    5.093408917763e-02
    29   -4.820615971943e-02
    30   -4.765771561318e-04
    31    6.587610284119e-01
    32   -6.259462571498e-01
    33   -6.094931949591e-03
    34    1.971030656346e-01
    35   -1.885261180738e-02
    36   -2.283450230484e-02
    37    1.936277749660e-03
    38   -4.071743597388e-02
    39   -5.422462911652e-01
    40    6.258356958990e-01
    41   -2.725288635306e-02
    42   -1.162171332311e-01
    43   -8.326939203234e-03
    44   -5.421795061627e-01
    45    6.254256960986e-01
    46    1.146906929134e-01
    47    3.311567268044e-02
    48    7.505224747770e-03
Sym=X
Ene= 0.812817
Spin=Alpha
Occup=0
     1    2.322680506007e-05
     2    2.600690584096e-05
     3    1.557503312106e-03
     4    1.962973215595e-03
     5   -3.252850083620e-02
     6    5.221145888755e-06
     7   -3.933454224440e-05
     8   -1.652064136087e-05
     9    3.674144510103e-02
    10    4.616233393446e-02
    11   -7.639574140243e-01
    12   -5.522129627706e-02
    13   -6.944964229142e-02
    14    1.148663846488e+00
    15    1.245461333740e-03
    16   -7.807284711997e-02
    17    7.406664729839e-02
    18    8.213586231087e-03
    19    1.147234426986e-03
    20    2.068287474939e-05
    21   -7.707355709076e-05
    22    1.556781991990e-03
    23    1.958789667259e-03
    24   -3.252491107858e-02
    25   -2.692219407234e-06
    26   -1.997332069082e-05
    27    5.127065019994e-05
    28   -3.666765102172e-02
    29   -4.611364474046e-02
    30    7.639655670237e-01
    31    5.516585001029e-02
    32    6.928298374403e-02
    33   -1.148676411974e+00
    34    1.267570531822e-03
    35   -7.807331192325e-02
    36    7.406293206621e-02
    37    8.236881471107e-03
    38    1.148327116706e-03
    39   -2.168353411924e-05
    40    9.237379504461e-05
    41   -1.563057043931e-03
    42   -1.983982724440e-03
    43    3.251994417458e-02
    44   -2.422797464819e-05
    45   -1.073060391470e-05
    46   -1.553328576768e-03
    47   -1.970411294157e-03
    48    3.252672368211e-02
Sym=X
Ene= 0.852285
Spin=Alpha
Occup=0
     1   -1.483643667981e-02
     2   -1.067235008346e+00
     3    1.399461394874e-01
     4    6.197294643191e-02
     5    1.046215486643e-02
     6    1.969151136760e-05
     7   -3.863190553510e-05
     8   -7.283243119691e-05
     9   -4.117480326686e-01
    10   -4.331683330499e-01
    11   -4.599430362502e-02
    12    9.606071775644e-01
    13    1.010275854244e+00
    14    1.072749343259e-01
    15   -2.466569006427e-04
    16    1.089189975070e-02
    17   -1.233827002447e-02
    18    2.130409014660e-01
    19    1.087611811708e-02
    20    1.500607792475e-02
    21    1.067043588678e+00
    22    5.478633261395e-02
    23    1.428058798542e-01
    24    1.126576529558e-02
    25   -1.929520650062e-05
    26    4.321479527666e-05
    27    7.405171128066e-05
    28   -4.117626185173e-01
    29   -4.331916419775e-01
    30   -4.589344414637e-02
    31    9.606354240095e-01
    32    1.010339740051e+00
    33    1.070624405352e-01
    34    2.450136155527e-04
    35   -1.089631473206e-02
    36    1.234235687079e-02
    37   -2.130486449999e-01
    38   -1.088008577761e-02
    39   -1.501586615005e-02
    40   -1.067047210644e+00
    41    5.477659047840e-02
    42    1.428108906040e-01
    43    1.126223852769e-02
    44    1.484832325719e-02
    45    1.067235068545e+00
    46    1.399514941691e-01
    47    6.196706032864e-02
    48    1.045588221968e-02
Sym=X
Ene= 0.934480
Spin=Alpha
Occup=0
     1   -1.262037471039e-01
     2    1.251009667090e+00
     3   -1.798661298697e-01
     4    1.662245851741e-03
     5   -8.551004322194e-03
     6   -4.327316564313e-06
     7   -2.295210953054e-04
     8    3.191418462758e-04
     9    4.815252225422e-01
    10    5.065765205094e-01
    11    5.374050917950e-02
    12   -1.466860519050e+00
    13   -1.543070794948e+00
    14   -1.637012194307e-01
    15    1.037888282593e-04
    16   -5.268282290578e-03
    17    5.948086397903e-03
    18   -1.027527145271e-01
    19   -5.213965234362e-03
    20    1.262269899541e-01
    21   -1.251252256732e+00
    22    1.080569343361e-02
    23   -1.795034440377e-01
    24   -1.031983923652e-02
    25   -4.433773369081e-06
    26   -2.204259859905e-04
    27    3.244904732646e-04
    28   -4.815257764556e-01
    29   -5.065637572086e-01
    30   -5.371597004765e-02
    31    1.466852303204e+00
    32    1.543009927703e+00
    33    1.636270459516e-01
    34    1.078421009603e-04
    35   -5.251120310886e-03
    36    5.943289120415e-03
    37   -1.027486959299e-01
    38   -5.226581288757e-03
    39    1.262236074647e-01
    40   -1.251196551952e+00
    41   -1.081709686699e-02
    42    1.794946115631e-01
    43    1.031426177371e-02
    44   -1.262148462363e-01
    45    1.251015445618e+00
    46    1.798663657359e-01
    47   -1.664576322163e-03
    48    8.539478888979e-03
Sym=X
Ene= 0.993106
Spin=Alpha
Occup=0
     1    4.334097839874e-03
     2    8.338839165494e-01
     3   -7.376927516930e-02
     4   -9.911784922067e-02
     5   -9.521807304750e-03
     6    4.246233561015e-02
     7    2.985121257839e-01
     8    2.350173392409e-01
     9    4.787144143067e-01
    10   -4.546027285038e-01
    11   -4.458547211262e-03
    12   -1.319886947871e+00
    13    1.253328824738e+00
    14    1.228062225378e-02
    15   -9.176749856685e-02
    16   -9.885852840267e-03
    17   -5.905405241581e-03
    18    1.549450273682e-02
    19   -3.020570567355e-01
    20    4.367674824442e-03
    21    8.336441418041e-01
    22    9.528245836719e-02
    23    7.865823589758e-02
    24    9.335530916127e-03
    25   -4.245981759513e-02
    26   -2.982207341728e-01
    27   -2.355557040666e-01
    28    4.786676576509e-01
    29   -4.545767110368e-01
    30   -4.474926950502e-03
    31   -1.319755177584e+00
    32    1.253312784595e+00
    33    1.233520806487e-02
    34    9.176012082173e-02
    35    9.891394750996e-03
    36    5.913512908729e-03
    37   -1.549510244570e-02
    38    3.020148905533e-01
    39   -4.378472736931e-03
    40   -8.334987484895e-01
    41    9.526465491848e-02
    42    7.863237265942e-02
    43    9.338864254893e-03
    44   -4.330393259041e-03
    45   -8.336607495658e-01
    46   -7.373512689393e-02
    47   -9.910056256760e-02
    48   -9.515778934969e-03
[5D]

======= END OF MOLDEN-FORMATTED INPUT FILE =======


        *************************************************************
        *                                                           *
        *  Thank you very much for using Q-Chem.  Have a nice day.  *
        *                                                           *
        *************************************************************


