                  Welcome to Q-Chem
     A Quantum Leap Into The Future Of Chemistry


 Q-Chem 5.4 (devel), Q-Chem, Inc., Pleasanton, CA (2021)

 E. Epifanovsky,  A. T. B. Gilbert,  Xintian Feng,  Joonho Lee,  Yuezhi Mao,  
 N. Mardirossian,  P. Pokhilko,  A. White,  M. Wormit,  M. P. Coons,  
 A. L. Dempwolff,  Zhengting Gan,  D. Hait,  P. R. Horn,  L. D. Jacobson,  
 I. Kaliman,  J. Kussmann,  A. W. Lange,  Ka Un Lao,  D. S. Levine,  Jie Liu,  
 S. C. McKenzie,  A. F. Morrison,  K. Nanda,  F. Plasser,  D. R. Rehn,  
 M. L. Vidal,  Zhi-Qiang You,  Ying Zhu,  B. Alam,  B. Albrecht,  
 A. Aldossary,  E. Alguire,  J. H. Andersen,  D. Barton,  K. Begam,  A. Behn,  
 Y. A. Bernard,  E. J. Berquist,  H. Burton,  A. Carreras,  K. Carter-Fenk,  
 R. Chakraborty,  A. D. Chien,  K. D. Closser,  V. Cofer-Shabica,  
 S. Dasgupta,  Jia Deng,  M. de Wergifosse,  M. Diedenhofen,  Hainam Do,  
 S. Ehlert,  Po-Tung Fang,  S. Fatehi,  Qingguo Feng,  T. Friedhoff,  
 J. Gayvert,  Qinghui Ge,  G. Gidofalvi,  M. Goldey,  J. Gomes,  
 C. Gonzalez-Espinoza,  S. Gulania,  A. Gunina,  M. W. D. Hanson-Heine,  
 P. H. P. Harbach,  A. W. Hauser,  M. F. Herbst,  M. Hernandez Vera,  
 M. Hodecker,  Z. C. Holden,  S. Houck,  Xunkun Huang,  Kerwin Hui,  
 B. C. Huynh,  M. Ivanov,  Hyunjun Ji,  Hanjie Jiang,  B. Kaduk,  S. Kaehler,  
 K. Khistyaev,  Jaehoon Kim,  P. Klunzinger,  Z. Koczor-Benda,  
 Joong Hoon Koh,  D. Kosenkov,  L. Koulias,  T. Kowalczyk,  C. M. Krauter,  
 K. Kue,  A. Kunitsa,  T. Kus,  A. Landau,  K. V. Lawler,  D. Lefrancois,  
 S. Lehtola,  Rain Li,  Yi-Pei Li,  Jiashu Liang,  M. Liebenthal,  
 Hung-Hsuan Lin,  You-Sheng Lin,  Fenglai Liu,  Kuan-Yu Liu,  
 M. Loipersberger,  A. Luenser,  A. Manjanath,  P. Manohar,  E. Mansoor,  
 S. F. Manzer,  Shan-Ping Mao,  A. V. Marenich,  T. Markovich,  S. Mason,  
 S. A. Maurer,  P. F. McLaughlin,  M. F. S. J. Menger,  J.-M. Mewes,  
 S. A. Mewes,  P. Morgante,  J. W. Mullinax,  K. J. Oosterbaan,  G. Paran,  
 Alexander C. Paul,  Suranjan K. Paul,  F. Pavosevic,  Zheng Pei,  S. Prager,  
 E. I. Proynov,  E. Ramos,  B. Rana,  A. E. Rask,  A. Rettig,  R. M. Richard,  
 F. Rob,  E. Rossomme,  T. Scheele,  M. Scheurer,  M. Schneider,  
 N. Sergueev,  S. M. Sharada,  W. Skomorowski,  D. W. Small,  C. J. Stein,  
 Yu-Chuan Su,  E. J. Sundstrom,  Zhen Tao,  J. Thirman,  T. Tsuchimochi,  
 N. M. Tubman,  S. P. Veccham,  O. Vydrov,  J. Wenzel,  J. Witte,  A. Yamada,  
 Kun Yao,  S. Yeganeh,  S. R. Yost,  A. Zech,  Igor Ying Zhang,  Xing Zhang,  
 Yu Zhang,  D. Zuev,  A. Aspuru-Guzik,  A. T. Bell,  N. A. Besley,  
 K. B. Bravaya,  B. R. Brooks,  D. Casanova,  Jeng-Da Chai,  S. Coriani,  
 C. J. Cramer,  A. E. DePrince, III,  R. A. DiStasio Jr.,  A. Dreuw,  
 B. D. Dunietz,  T. R. Furlani,  W. A. Goddard III,  S. Grimme,  
 S. Hammes-Schiffer,  T. Head-Gordon,  W. J. Hehre,  Chao-Ping Hsu,  
 T.-C. Jagau,  Yousung Jung,  A. Klamt,  Jing Kong,  D. S. Lambrecht,  
 WanZhen Liang,  N. J. Mayhall,  C. W. McCurdy,  J. B. Neaton,  
 C. Ochsenfeld,  J. A. Parkhill,  R. Peverati,  V. A. Rassolov,  Yihan Shao,  
 L. V. Slipchenko,  T. Stauch,  R. P. Steele,  J. E. Subotnik,  
 A. J. W. Thom,  A. Tkatchenko,  D. G. Truhlar,  T. Van Voorhis,  
 T. A. Wesolowski,  K. B. Whaley,  H. L. Woodcock III,  P. M. Zimmerman,  
 S. Faraji,  P. M. W. Gill,  M. Head-Gordon,  J. M. Herbert,  A. I. Krylov

 Additional authors for Version 5.4.1: 
 S. Kotaru,  Shaozhi Li,  Xiangyuan Li,  F. Matz,  A. Molle,  Haisheng Ren,  
 Yingli Su,  Hung-Yi Tsai,  C. Utku,  Fang Wang

 Contributors to earlier versions of Q-Chem not listed above: 
 R. D. Adamson,  B. Austin,  R. Baer,  J. Baker,  G. J. O. Beran,  
 K. Brandhorst,  S. T. Brown,  E. F. C. Byrd,  A. K. Chakraborty,  
 G. K. L. Chan,  Chun-Min Chang,  Yunqing Chen,  C.-L. Cheng,  
 Siu Hung Chien,  D. M. Chipman,  D. L. Crittenden,  H. Dachsel,  
 R. J. Doerksen,  A. D. Dutoi,  R. G. Edgar,  J. Fosso-Tande,  
 L. Fusti-Molnar,  D. Ghosh,  A. Ghysels,  A. Golubeva-Zadorozhnaya,  
 J. Gonthier,  M. S. Gordon,  S. R. Gwaltney,  G. Hawkins,  J. E. Herr,  
 A. Heyden,  S. Hirata,  E. G. Hohenstein,  G. Kedziora,  F. J. Keil,  
 C. Kelley,  Jihan Kim,  R. A. King,  R. Z. Khaliullin,  P. P. Korambath,  
 W. Kurlancheek,  A. Laurent,  A. M. Lee,  M. S. Lee,  S. V. Levchenko,  
 Ching Yeh Lin,  D. Liotard,  E. Livshits,  R. C. Lochan,  I. Lotan,  
 L. A. Martinez-Martinez,  P. E. Maslen,  N. Nair,  D. P. O'Neill,  
 D. Neuhauser,  E. Neuscamman,  C. M. Oana,  R. Olivares-Amaya,  R. Olson,  
 T. M. Perrine,  B. Peters,  P. A. Pieniazek,  A. Prociuk,  Y. M. Rhee,  
 J. Ritchie,  M. A. Rohrdanz,  E. Rosta,  N. J. Russ,  H. F. Schaefer III,  
 M. W. Schmidt,  N. E. Schultz,  S. Sharma,  N. Shenvi,  C. D. Sherrill,  
 A. C. Simmonett,  A. Sodt,  T. Stein,  D. Stuck,  K. S. Thanthiriwatte,  
 V. Vanovschi,  L. Vogt,  Tao Wang,  A. Warshel,  M. A. Watson,  
 C. F. Williams,  Q. Wu,  X. Xu,  Jun Yang,  W. Zhang,  Yan Zhao

 Please cite Q-Chem as follows:
 Y. Shao et al., Mol. Phys. 113, 184-215 (2015)
 DOI: 10.1080/00268976.2014.952696

 Q-Chem 5.4.1 for Intel X86 EM64T Linux

 Parts of Q-Chem use Armadillo 9.800.1 (Horizon Scraper).
 http://arma.sourceforge.net/

 Q-Chem begins on Wed Mar 15 16:17:23 2023  

 Host: cpu121.yggdrasil
0

     Scratch files written to /srv/beegfs/scratch/users/f/fum/qchem66855//
 Processing $rem in /home/share/wesolowski/qc5.aug2021.FDE/config/preferences:
 Processing $rem in /home/fum/.qchemrc:

 Checking the input file for inconsistencies... 	...done.

--------------------------------------------------------------
User input:
--------------------------------------------------------------
$comment
generated from CCJob.Templates
$end

$rem
sym_ignore = true
method = adc(2)
ee_states = 10
basis = cc-pVDZ
mem_static = 1024
mem_total = 40000
adc_davidson_maxiter = 900
adc_davidson_conv = 6
adc_print = 3
adc_prop_es = true
adc_prop_es2es = true
adc_prop_tpa = true
molden_format = True
state_analysis = true
print_orbitals = 15
gen_scfman = false
fde_export_density = true
fde_details = 3
$end

$molecule
0 1
H -0.0348278765 -0.2442097827 0.0636489606
C -1.0765972949 -0.5242748755 -0.0023551776
H -1.313264467 -1.5767591607 -0.11572769259999999
C -2.043634118 0.3926884087 0.0061254933
H -1.8137616575 1.4459188338 0.0804456828
H -3.085977293 0.114931858 -0.0593381042                     
$end
--------------------------------------------------------------
 ----------------------------------------------------------------
             Standard Nuclear Orientation (Angstroms)
    I     Atom           X                Y                Z
 ----------------------------------------------------------------
    1      H      -0.0348278765    -0.2442097827     0.0636489606
    2      C      -1.0765972949    -0.5242748755    -0.0023551776
    3      H      -1.3132644670    -1.5767591607    -0.1157276926
    4      C      -2.0436341180     0.3926884087     0.0061254933
    5      H      -1.8137616575     1.4459188338     0.0804456828
    6      H      -3.0859772930     0.1149318580    -0.0593381042
 ----------------------------------------------------------------
 Nuclear Repulsion Energy =          33.41221325 hartrees
 There are        8 alpha and        8 beta electrons
 Requested basis set is cc-pVDZ
 There are 24 shells and 48 basis functions
 Total memory of 40000 MB is distributed as follows: 
   MEM_STATIC is set to 1024 MB
   QALLOC/CCMAN JOB total memory use is  38976 MB
 Warning: actual memory use might exceed 40000 MB

 Total QAlloc Memory Limit  40000 MB
 Mega-Array Size      1001 MB
 MEM_STATIC part      1024 MB

                       Distance Matrix (Angstroms)
             H (  1)   C (  2)   H (  3)   C (  4)   H (  5)
   C (  2)  1.080776
   H (  3)  1.855334  1.084706
   C (  4)  2.108139  1.332687  2.104047
   H (  5)  2.453859  2.105215  3.070108  1.080583
   H (  6)  3.074674  2.109370  2.451022  1.080700  1.846510

 A cutoff of  1.0D-11 yielded    300 shell pairs
 There are      1220 function pairs (      1329 Cartesian)
 Smallest overlap matrix eigenvalue = 4.80E-03

 Scale SEOQF with 1.000000e-01/1.000000e-01/1.000000e+00

 Standard Electronic Orientation quadrupole field applied
 Nucleus-field energy     =     0.0000000021 hartrees
 Guess from superposition of atomic densities
 Warning:  Energy on first SCF cycle will be non-variational
 SAD guess density has 16.000000 electrons
 A restricted Hartree-Fock SCF calculation will be
 performed using Pulay DIIS extrapolation
 SCF converges when DIIS error is below 1.0E-08
 using 10 threads for integral computing
 -------------------------------------------------------
 OpenMP Integral computing Module                
 Release: version 1.0, May 2013, Q-Chem Inc. Pittsburgh 
 -------------------------------------------------------
 ---------------------------------------
  Cycle       Energy         DIIS Error
 ---------------------------------------
    1     -78.4364503470      1.01E-01
    2     -78.0176200536      7.21E-03
    3     -78.0382414335      1.84E-03
    4     -78.0397241090      5.73E-04
    5     -78.0398457212      5.82E-05
    6     -78.0398476020      9.87E-06
    7     -78.0398476649      3.20E-06
    8     -78.0398476692      1.12E-06
    9     -78.0398476697      1.11E-07
   10     -78.0398476697      2.76E-08
   11     -78.0398476697      7.19E-09 Convergence criterion met
 ---------------------------------------
 SCF time:  CPU 1.89 s  wall 2.83 s
 SCF   energy in the final basis set = -78.03984767
 Total energy in the final basis set = -78.03984767
Exporting Density Matrix to file 'Densmat_SCF.txt'.
Export successful
================================================================================
|                                                                              |
|                                 A D C  M A N                                 |
|                                                                              |
 ------------------------------------------------------------------------------ 
|                                                                              |
| Components:                                                                  |
|                                                                              |
| - libvmm - 1.3-trunk                                                         |
|   Authors:                                                                   |
|   Evgeny Epifanovsky, Ilya Kaliman                                           |
|                                                                              |
| - libtensor - 2.5-trunk                                                      |
|   Authors:                                                                   |
|   Evgeny Epifanovsky, Michael Wormit, Dmitry Zuev, Sam Manzer,               |
|   Ilya Kaliman                                                               |
|                                                                              |
| - libwfa - 1.1-trunk                                                         |
|   Authors:                                                                   |
|   Felix Plasser, Stefanie Mewes (Baeppler), Benjamin Thomitzni,              |
|   Michael Wormit, Feng Chen, Anna I. Krylov, Pavel Pokhilko                  |
|                                                                              |
| - libadc - 1.1-trunk                                                         |
|   Authors:                                                                   |
|   Michael Wormit, Adrian L. Dempwolff, Philipp H. P. Harbach,                |
|   Caroline Krauter, Dirk Rehn, Matthias Schneider, Jan Wenzel                |
|                                                                              |
| - adcman - 2.6-trunk                                                         |
|   Authors:                                                                   |
|   Michael Wormit, Adrian L. Dempwolff, Philipp H. P. Harbach,                |
|   Caroline Krauter, Daniel Lefrancois, Jan-Michael Mewes, Dirk Rehn,         |
|   Matthias Schneider, Jan Wenzel, Andreas Dreuw                              |
|                                                                              |
| Authors of earlier versions of ADCMAN:                                       |
| Andreas Dreuw, Jan Hendrik Starcke, Dirk Rehn, Michael Wormit                |
|                                                                              |
================================================================================

 Created directory /srv/beegfs/scratch/users/f/fum/qchem66855/plots
  Import QC data ...  CPU 0.00 s  wall 0.00 s

 Alpha MOs, Restricted
 -- Occupied --                  
-11.235 -11.234  -1.032  -0.789  -0.641  -0.582  -0.504  -0.374
  1 A     2 A     3 A     4 A     5 A     6 A     7 A     8 A                  
 -- Virtual --                   
  0.168   0.204   0.233   0.239   0.303   0.462   0.577   0.615
  9 A    10 A    11 A    12 A    13 A    14 A    15 A    16 A                  
  0.689   0.709   0.784   0.808   0.862   0.935   0.972   1.009
 17 A    18 A    19 A    20 A    21 A    22 A    23 A    24 A                  
  1.129   1.235   1.251   1.268   1.295   1.601   1.725   1.750
 25 A    26 A    27 A    28 A    29 A    30 A    31 A    32 A                  
  1.819   1.860   1.866   1.921   1.976   1.978   2.220   2.258
 33 A    34 A    35 A    36 A    37 A    38 A    39 A    40 A                  
  2.375   2.453   2.504   2.632   2.719   2.820   3.138   3.396
 41 A    42 A    43 A    44 A    45 A    46 A    47 A    48 A                  

 Beta MOs, Restricted
 -- Occupied --                  
-11.235 -11.234  -1.032  -0.789  -0.641  -0.582  -0.504  -0.374
  1 A     2 A     3 A     4 A     5 A     6 A     7 A     8 A                  
 -- Virtual --                   
  0.168   0.204   0.233   0.239   0.303   0.462   0.577   0.615
  9 A    10 A    11 A    12 A    13 A    14 A    15 A    16 A                  
  0.689   0.709   0.784   0.808   0.862   0.935   0.972   1.009
 17 A    18 A    19 A    20 A    21 A    22 A    23 A    24 A                  
  1.129   1.235   1.251   1.268   1.295   1.601   1.725   1.750
 25 A    26 A    27 A    28 A    29 A    30 A    31 A    32 A                  
  1.819   1.860   1.866   1.921   1.976   1.978   2.220   2.258
 33 A    34 A    35 A    36 A    37 A    38 A    39 A    40 A                  
  2.375   2.453   2.504   2.632   2.719   2.820   3.138   3.396
 41 A    42 A    43 A    44 A    45 A    46 A    47 A    48 A                  
  Import AO data ...  CPU 0.00 s  wall 0.04 s
  Using point group: C1
  Irreducible representations in point group: A
  Molecular orbitals: 
  Occupied MOs:
  Block   0:   1 (  A) A   2 (  A) A   3 (  A) A   4 (  A) A   5 (  A) A
                  -11.24      -11.23      -1.032     -0.7894     -0.6409
               6 (  A) A   7 (  A) A   8 (  A) A
                 -0.5817     -0.5044      -0.374
  Block   1:   1 (  A) B   2 (  A) B   3 (  A) B   4 (  A) B   5 (  A) B
                  -11.24      -11.23      -1.032     -0.7894     -0.6409
               6 (  A) B   7 (  A) B   8 (  A) B
                 -0.5817     -0.5044      -0.374
  Virtual MOs:
  Block   0:   9 (  A) A  10 (  A) A  11 (  A) A  12 (  A) A  13 (  A) A
                  0.1683      0.2036      0.2328      0.2393      0.3032
              14 (  A) A  15 (  A) A  16 (  A) A  17 (  A) A  18 (  A) A
                  0.4619      0.5775      0.6152      0.6891      0.7086
              19 (  A) A  20 (  A) A  21 (  A) A  22 (  A) A
                  0.7841      0.8079       0.862      0.9354
  Block   1:  23 (  A) A  24 (  A) A  25 (  A) A  26 (  A) A  27 (  A) A
                  0.9722       1.009       1.129       1.235       1.251
              28 (  A) A  29 (  A) A  30 (  A) A  31 (  A) A  32 (  A) A
                   1.268       1.295       1.601       1.725        1.75
              33 (  A) A  34 (  A) A  35 (  A) A  36 (  A) A
                   1.819        1.86       1.866       1.921
  Block   2:  37 (  A) A  38 (  A) A  39 (  A) A  40 (  A) A  41 (  A) A
                   1.976       1.978        2.22       2.258       2.375
              42 (  A) A  43 (  A) A  44 (  A) A  45 (  A) A  46 (  A) A
                   2.453       2.504       2.632       2.719        2.82
              47 (  A) A  48 (  A) A
                   3.138       3.396
  Block   3:   9 (  A) B  10 (  A) B  11 (  A) B  12 (  A) B  13 (  A) B
                  0.1683      0.2036      0.2328      0.2393      0.3032
              14 (  A) B  15 (  A) B  16 (  A) B  17 (  A) B  18 (  A) B
                  0.4619      0.5775      0.6152      0.6891      0.7086
              19 (  A) B  20 (  A) B  21 (  A) B  22 (  A) B
                  0.7841      0.8079       0.862      0.9354
  Block   4:  23 (  A) B  24 (  A) B  25 (  A) B  26 (  A) B  27 (  A) B
                  0.9722       1.009       1.129       1.235       1.251
              28 (  A) B  29 (  A) B  30 (  A) B  31 (  A) B  32 (  A) B
                   1.268       1.295       1.601       1.725        1.75
              33 (  A) B  34 (  A) B  35 (  A) B  36 (  A) B
                   1.819        1.86       1.866       1.921
  Block   5:  37 (  A) B  38 (  A) B  39 (  A) B  40 (  A) B  41 (  A) B
                   1.976       1.978        2.22       2.258       2.375
              42 (  A) B  43 (  A) B  44 (  A) B  45 (  A) B  46 (  A) B
                   2.453       2.504       2.632       2.719        2.82
              47 (  A) B  48 (  A) B
                   3.138       3.396
  Import MO data ...  CPU 0.00 s  wall 0.01 s
  Import HF data ...  CPU 0.54 s  wall 0.13 s
  Import 2e integrals ...  CPU 0.90 s  wall 0.15 s

--------------------------------------------------------------------------------
                                   HF Summary                                   
--------------------------------------------------------------------------------
  Energy:                                                  -78.0398476697 a.u.
  Dip. moment [a.u.]:                  [  -0.000445,    0.002448,   -0.010397]
  Total dipole [Debye]:                                               0.027173
  <r^2> [a.u.]:                        [ 175.322083,   34.927837,   11.650906]
  Total <r^2> [a.u.]:                                               221.900827
--------------------------------------------------------------------------------
  HF properties ...  CPU 0.01 s  wall 0.01 s
  MP(1) calculation ...  CPU 0.01 s  wall 0.01 s
  N^6 prerequesite intermediates ...  CPU 0.57 s  wall 0.09 s
  Difference density matrix of state mp2_gs printed to ASCII file 'State_mp2_gs_Difference.txt'
Exporting MP density matrix to file 'Densmat_MP.txt'.
Export successful
  Total density matrix of state mp2_gs printed to ASCII file 'State_mp2_gs_Total.txt'
Exporting MP density matrix to file 'Densmat_MP.txt'.
Export successful

--------------------------------------------------------------------------------
                                 MP(2) Summary                                  
--------------------------------------------------------------------------------
  MP energy contribution:                                   -0.2797638425 a.u.
  Total energy:                                            -78.3196115122 a.u.
  Dip. moment [a.u.]:                  [  -0.000441,    0.002204,   -0.010277]
  Total dipole [Debye]:                                               0.026738
  <r^2> [a.u.]:                        [ 175.368628,   34.967565,   11.482844]
  Total <r^2> [a.u.]:                                               221.819036

  Density matrix analysis:
  ------------------------
  NOs
    Occupation of frontier NOs:
       0.0453   1.9382
    Number of electrons: 16.000000
    Number of unpaired electrons: n_u =  0.40369, n_u,nl =  0.04513
    NO participation ratio (PR_NO): 13.859184
  
  
  Mulliken Population Analysis
  Atom      Charge (e)              h+              e-           Del q
  --------------------------------------------------------------------
   1 H        0.051110        0.014018       -0.011216        0.002802
   2 C       -0.102356        0.093503       -0.098943       -0.005440
   3 H        0.051468        0.014021       -0.011211        0.002810
   4 C       -0.100985        0.092911       -0.098918       -0.006007
   5 H        0.050160        0.014127       -0.011185        0.002942
   6 H        0.050602        0.014087       -0.011194        0.002894
  --------------------------------------------------------------------
  Sum:       -0.000000        0.242667       -0.242667       -0.000000
  
  Multipole moment analysis of the density matrix
    Molecular charge:                      -0.000000
    Number of electrons:                   16.000000
      Center of electronic charge [Ang]: [ -1.560562,  -0.065675,  -0.000182]
    Total nuclear charge:                  16.000000
      Center of nuclear charge [Ang]:    [ -1.560576,  -0.065602,  -0.000522]
    Dipole moment [D]:                     0.026738
      Cartesian components [D]:          [ -0.001121,   0.005602,  -0.026121]
    RMS size of the density [Ang]:         1.201067
      Cartesian components [Ang]:        [  0.796185,   0.779539,   0.448297]
  
  Exciton analysis of the difference density matrix
    <r_h> [Ang]:                  [ -1.560259,  -0.066698,   0.001450]
    <r_e> [Ang]:                  [ -1.560267,  -0.066166,   0.001187]
    |<r_e - r_h>| [Ang]:            0.000593
    Hole size [Ang]:                1.394082
      Cartesian components [Ang]: [  0.846610,   0.834805,   0.727884]
    Electron size [Ang]:            1.359826
      Cartesian components [Ang]: [  0.877744,   0.861866,   0.579550]
--------------------------------------------------------------------------------
  MP(2) calculation ...  CPU 0.15 s  wall 0.20 s
  Start ADC(2)-s ...  CPU 0.01 s  wall 0.00 s
  ADC(2) intermediates ...  CPU 0.02 s  wall 0.01 s
  Starting Davidson for singlet states of irrep A ... 
--------------------------------------------------------------------------------
   It NVec Conv  Avg. Norm  Max. Norm  Conv. states           Remark
--------------------------------------------------------------------------------
        10    0  1.330e-01  4.686e-01  0.4118 n n n n n n n n Guess.
    1   20    0  2.330e-02  1.109e-01  0.3258 n n n n n n n n 
    2   30    0  6.147e-03  2.522e-02  0.3211 n n n n n n n n 
    3   40    0  2.105e-03  1.023e-02  0.3207 n n n n n n n n 
    4   50    0  5.441e-04  3.351e-03  0.3207 n n n n n n n n 
    5   20    0  3.223e-04  1.720e-03  0.3207 n n n n n n n n Subspace collapsed.
    6   30    0  2.847e-04  1.644e-03  0.3207 n n n n n n n n 
    7   40    0  2.102e-04  1.478e-03  0.3207 n n n n n n n n 
    8   50    0  1.250e-04  9.392e-04  0.3207 n n n n n n n n 
    9   20    0  5.774e-05  4.318e-04  0.3207 n n n n n n n n Subspace collapsed.
   10   30    1  4.372e-05  3.085e-04  0.3207 n y n n n n n n 
   11   40    3  1.886e-05  1.338e-04  0.3207 n y y y n n n n 
   12   50    5  1.139e-05  9.070e-05  0.3207 y y y y y n n n 
   13   20    6  9.893e-06  8.171e-05  0.3207 y y y y y y n n Subspace collapsed.
   14   30    6  1.472e-05  1.313e-04  0.3207 y y y y y y n n 
   15   40    6  1.154e-05  1.086e-04  0.3207 y y y y y y n n 
   16   50    6  7.150e-06  6.868e-05  0.3207 y y y y y y n n 
   17   20    6  3.540e-06  3.416e-05  0.3207 y y y y y y n n Subspace collapsed.
   18   30    6  2.792e-06  2.688e-05  0.3207 y y y y y y n n 
   19   40    7  1.477e-06  1.426e-05  0.3207 y y y y y y y n 
   20   50    8  9.607e-07  9.330e-06  0.3207 y y y y y y y y 
   21   20    8  6.930e-07  6.773e-06  0.3207 y y y y y y y y Subspace collapsed.
   22   30    8  1.092e-06  1.076e-05  0.3207 y y y y y y y y 
   23   40    8  1.215e-06  1.205e-05  0.3207 y y y y y y y y 
   24   49    9  7.324e-07  7.289e-06  0.3207 y y y y y y y y 
   25   50    9  7.322e-07  7.287e-06  0.3207 y y y y y y y y 
   26   17    9  4.309e-07  4.289e-06  0.3207 y y y y y y y y Subspace collapsed.
   27   23    9  2.947e-07  2.932e-06  0.3207 y y y y y y y y 
   28   29    9  1.523e-07  1.517e-06  0.3207 y y y y y y y y 
   29   35    9  1.407e-07  1.402e-06  0.3207 y y y y y y y y 
   30   35    9  1.407e-07  1.402e-06  0.3207 y y y y y y y y 
   31   45    9  1.464e-07  1.461e-06  0.3207 y y y y y y y y 
   32   50    9  1.605e-07  1.603e-06  0.3207 y y y y y y y y 
   33   14   10  8.382e-08  8.373e-07  0.3207 y y y y y y y y Converged.
--------------------------------------------------------------------------------
  Davidson Summary: 
 ------------------------------------------------------------
  State  0: excitation energy =   0.3207 a.u.   (converged)
  State  1: excitation energy =   0.3328 a.u.   (converged)
  State  2: excitation energy =   0.3368 a.u.   (converged)
  State  3: excitation energy =   0.3612 a.u.   (converged)
  State  4: excitation energy =   0.3751 a.u.   (converged)
  State  5: excitation energy =   0.3870 a.u.   (converged)
  State  6: excitation energy =   0.4244 a.u.   (converged)
  State  7: excitation energy =   0.4469 a.u.   (converged)
  State  8: excitation energy =   0.4562 a.u.   (converged)
  State  9: excitation energy =   0.4644 a.u.   (converged)
 ------------------------------------------------------------

  Singlet states of irrep A ...  CPU 128.17 s  wall 34.06 s
  TDMs ...  CPU 1.07 s  wall 0.36 s
  SDMs ...  CPU 2.45 s  wall 0.68 s
  Starting TPA DIIS iterations ... 
------------------------------------ 
   It     Res. Norm  Remark
------------------------------------
                       Guess.
    1     4.398e+00  
    2     5.828e+00  
    3     1.075e+00  
    4     2.563e-01  
    5     6.568e-02  
    6     2.670e-02  
    7     8.213e-03  
    8     1.428e-03  
    9     5.116e-04  
   10     1.171e-04  
   11     3.437e-05  
   12     1.395e-05  
   13     3.948e-06  
   14     2.260e-06  
   15     4.327e-07  Converged.
   ... Converged in 15 steps (norm: 4.3269e-07)
------------------------------------
  Starting TPA DIIS iterations ... 
------------------------------------ 
   It     Res. Norm  Remark
------------------------------------
                       Guess.
    1     4.181e+00  
    2     5.534e+00  
    3     1.029e+00  
    4     2.562e-01  
    5     6.525e-02  
    6     2.694e-02  
    7     8.105e-03  
    8     1.551e-03  
    9     5.550e-04  
   10     1.309e-04  
   11     4.384e-05  
   12     1.716e-05  
   13     5.619e-06  
   14     3.098e-06  
   15     5.107e-07  Converged.
   ... Converged in 15 steps (norm: 5.10736e-07)
------------------------------------
  Starting TPA DIIS iterations ... 
------------------------------------ 
   It     Res. Norm  Remark
------------------------------------
                       Guess.
    1     6.865e-01  
    2     4.809e-01  
    3     1.698e-01  
    4     3.941e-02  
    5     1.586e-02  
    6     7.673e-03  
    7     1.071e-03  
    8     4.540e-04  
    9     1.273e-04  
   10     2.733e-05  
   11     6.481e-06  
   12     1.878e-06  
   13     1.078e-06  
   14     4.028e-07  Converged.
   ... Converged in 14 steps (norm: 4.02778e-07)
------------------------------------
  Starting TPA DIIS iterations ... 
------------------------------------ 
   It     Res. Norm  Remark
------------------------------------
                       Guess.
    1     4.694e+00  
    2     6.360e+00  
    3     1.159e+00  
    4     2.858e-01  
    5     7.429e-02  
    6     3.047e-02  
    7     9.351e-03  
    8     1.623e-03  
    9     5.843e-04  
   10     1.382e-04  
   11     4.087e-05  
   12     1.738e-05  
   13     4.815e-06  
   14     2.921e-06  
   15     5.455e-07  Converged.
   ... Converged in 15 steps (norm: 5.45464e-07)
------------------------------------
  Starting TPA DIIS iterations ... 
------------------------------------ 
   It     Res. Norm  Remark
------------------------------------
                       Guess.
    1     4.462e+00  
    2     6.039e+00  
    3     1.109e+00  
    4     2.855e-01  
    5     7.382e-02  
    6     3.077e-02  
    7     9.234e-03  
    8     1.776e-03  
    9     6.404e-04  
   10     1.553e-04  
   11     5.407e-05  
   12     2.154e-05  
   13     7.197e-06  
   14     3.879e-06  
   15     6.549e-07  Converged.
   ... Converged in 15 steps (norm: 6.54934e-07)
------------------------------------
  Starting TPA DIIS iterations ... 
------------------------------------ 
   It     Res. Norm  Remark
------------------------------------
                       Guess.
    1     6.989e-01  
    2     4.985e-01  
    3     1.799e-01  
    4     4.321e-02  
    5     1.767e-02  
    6     8.451e-03  
    7     1.214e-03  
    8     5.368e-04  
    9     1.535e-04  
   10     3.082e-05  
   11     7.486e-06  
   12     2.233e-06  
   13     1.350e-06  
   14     5.079e-07  Converged.
   ... Converged in 14 steps (norm: 5.07863e-07)
------------------------------------
  Starting TPA DIIS iterations ... 
------------------------------------ 
   It     Res. Norm  Remark
------------------------------------
                       Guess.
    1     4.802e+00  
    2     6.556e+00  
    3     1.189e+00  
    4     2.969e-01  
    5     7.752e-02  
    6     3.189e-02  
    7     9.778e-03  
    8     1.696e-03  
    9     6.116e-04  
   10     1.463e-04  
   11     4.340e-05  
   12     1.876e-05  
   13     5.157e-06  
   14     3.191e-06  
   15     5.907e-07  Converged.
   ... Converged in 15 steps (norm: 5.90703e-07)
------------------------------------
  Starting TPA DIIS iterations ... 
------------------------------------ 
   It     Res. Norm  Remark
------------------------------------
                       Guess.
    1     4.564e+00  
    2     6.226e+00  
    3     1.138e+00  
    4     2.965e-01  
    5     7.702e-02  
    6     3.222e-02  
    7     9.658e-03  
    8     1.861e-03  
    9     6.728e-04  
   10     1.647e-04  
   11     5.817e-05  
   12     2.329e-05  
   13     7.838e-06  
   14     4.188e-06  
   15     7.129e-07  Converged.
   ... Converged in 15 steps (norm: 7.12898e-07)
------------------------------------
  Starting TPA DIIS iterations ... 
------------------------------------ 
   It     Res. Norm  Remark
------------------------------------
                       Guess.
    1     7.032e-01  
    2     5.047e-01  
    3     1.835e-01  
    4     4.463e-02  
    5     1.832e-02  
    6     8.734e-03  
    7     1.268e-03  
    8     5.687e-04  
    9     1.636e-04  
   10     3.190e-05  
   11     7.869e-06  
   12     2.371e-06  
   13     1.458e-06  
   14     5.507e-07  Converged.
   ... Converged in 14 steps (norm: 5.50744e-07)
------------------------------------
  Starting TPA DIIS iterations ... 
------------------------------------ 
   It     Res. Norm  Remark
------------------------------------
                       Guess.
    1     5.541e+00  
    2     7.935e+00  
    3     1.396e+00  
    4     3.770e-01  
    5     1.009e-01  
    6     4.226e-02  
    7     1.287e-02  
    8     2.223e-03  
    9     8.101e-04  
   10     2.092e-04  
   11     6.341e-05  
   12     3.007e-05  
   13     7.924e-06  
   14     5.512e-06  
   15     9.654e-07  Converged.
   ... Converged in 15 steps (norm: 9.65359e-07)
------------------------------------
  Starting TPA DIIS iterations ... 
------------------------------------ 
   It     Res. Norm  Remark
------------------------------------
                       Guess.
    1     5.265e+00  
    2     7.533e+00  
    3     1.335e+00  
    4     3.759e-01  
    5     1.003e-01  
    6     4.281e-02  
    7     1.273e-02  
    8     2.487e-03  
    9     9.153e-04  
   10     2.380e-04  
   11     9.219e-05  
   12     3.767e-05  
   13     1.329e-05  
   14     6.661e-06  
   15     1.193e-06  
   16     5.622e-07  Converged.
   ... Converged in 16 steps (norm: 5.62179e-07)
------------------------------------
  Starting TPA DIIS iterations ... 
------------------------------------ 
   It     Res. Norm  Remark
------------------------------------
                       Guess.
    1     7.298e-01  
    2     5.451e-01  
    3     2.075e-01  
    4     5.484e-02  
    5     2.282e-02  
    6     1.069e-02  
    7     1.680e-03  
    8     8.054e-04  
    9     2.371e-04  
   10     3.708e-05  
   11     1.076e-05  
   12     3.429e-06  
   13     2.331e-06  
   14     9.162e-07  Converged.
   ... Converged in 14 steps (norm: 9.16235e-07)
------------------------------------
  Starting TPA DIIS iterations ... 
------------------------------------ 
   It     Res. Norm  Remark
------------------------------------
                       Guess.
    1     6.051e+00  
    2     8.919e+00  
    3     1.538e+00  
    4     4.364e-01  
    5     1.182e-01  
    6     5.005e-02  
    7     1.517e-02  
    8     2.613e-03  
    9     9.580e-04  
   10     2.598e-04  
   11     8.014e-05  
   12     3.997e-05  
   13     1.029e-05  
   14     7.617e-06  
   15     1.291e-06  
   16     1.022e-06  
   17     1.485e-07  Converged.
   ... Converged in 17 steps (norm: 1.48541e-07)
------------------------------------
  Starting TPA DIIS iterations ... 
------------------------------------ 
   It     Res. Norm  Remark
------------------------------------
                       Guess.
    1     5.748e+00  
    2     8.467e+00  
    3     1.471e+00  
    4     4.347e-01  
    5     1.175e-01  
    6     5.078e-02  
    7     1.502e-02  
    8     2.962e-03  
    9     1.103e-03  
   10     2.973e-04  
   11     1.220e-04  
   12     5.011e-05  
   13     1.821e-05  
   14     8.734e-06  
   15     1.612e-06  
   16     7.465e-07  Converged.
   ... Converged in 16 steps (norm: 7.46467e-07)
------------------------------------
  Starting TPA DIIS iterations ... 
------------------------------------ 
   It     Res. Norm  Remark
------------------------------------
                       Guess.
    1     7.459e-01  
    2     5.708e-01  
    3     2.234e-01  
    4     6.237e-02  
    5     2.586e-02  
    6     1.206e-02  
    7     2.002e-03  
    8     9.758e-04  
    9     2.894e-04  
   10     3.928e-05  
   11     1.305e-05  
   12     4.283e-06  
   13     3.075e-06  
   14     1.247e-06  
   15     8.774e-07  Converged.
   ... Converged in 15 steps (norm: 8.774e-07)
------------------------------------
  Starting TPA DIIS iterations ... 
------------------------------------ 
   It     Res. Norm  Remark
------------------------------------
                       Guess.
    1     6.551e+00  
    2     9.909e+00  
    3     1.677e+00  
    4     4.977e-01  
    5     1.361e-01  
    6     5.816e-02  
    7     1.753e-02  
    8     3.013e-03  
    9     1.111e-03  
   10     3.155e-04  
   11     9.917e-05  
   12     5.149e-05  
   13     1.298e-05  
   14     1.010e-05  
   15     1.665e-06  
   16     1.338e-06  
   17     1.824e-07  Converged.
   ... Converged in 17 steps (norm: 1.82382e-07)
------------------------------------
  Starting TPA DIIS iterations ... 
------------------------------------ 
   It     Res. Norm  Remark
------------------------------------
                       Guess.
    1     6.222e+00  
    2     9.407e+00  
    3     1.603e+00  
    4     4.953e-01  
    5     1.354e-01  
    6     5.909e-02  
    7     1.737e-02  
    8     3.461e-03  
    9     1.303e-03  
   10     3.625e-04  
   11     1.567e-04  
   12     6.440e-05  
   13     2.402e-05  
   14     1.106e-05  
   15     2.095e-06  
   16     9.538e-07  Converged.
   ... Converged in 16 steps (norm: 9.53793e-07)
------------------------------------
  Starting TPA DIIS iterations ... 
------------------------------------ 
   It     Res. Norm  Remark
------------------------------------
                       Guess.
    1     7.603e-01  
    2     5.948e-01  
    3     2.385e-01  
    4     7.015e-02  
    5     2.878e-02  
    6     1.345e-02  
    7     2.349e-03  
    8     1.138e-03  
    9     3.402e-04  
   10     4.145e-05  
   11     1.555e-05  
   12     5.228e-06  
   13     3.924e-06  
   14     1.642e-06  
   15     1.109e-06  
   16     4.133e-07  Converged.
   ... Converged in 16 steps (norm: 4.13293e-07)
------------------------------------
  Starting TPA DIIS iterations ... 
------------------------------------ 
   It     Res. Norm  Remark
------------------------------------
                       Guess.
    1     8.648e+00  
    2     1.430e+01  
    3     2.247e+00  
    4     7.819e-01  
    5     2.191e-01  
    6     9.654e-02  
    7     2.851e-02  
    8     4.866e-03  
    9     1.831e-03  
   10     6.151e-04  
   11     2.129e-04  
   12     1.213e-04  
   13     2.850e-05  
   14     2.495e-05  
   15     3.774e-06  
   16     2.960e-06  
   17     4.310e-07  Converged.
   ... Converged in 17 steps (norm: 4.31013e-07)
------------------------------------
  Starting TPA DIIS iterations ... 
------------------------------------ 
   It     Res. Norm  Remark
------------------------------------
                       Guess.
    1     8.210e+00  
    2     1.357e+01  
    3     2.146e+00  
    4     7.755e-01  
    5     2.181e-01  
    6     9.857e-02  
    7     2.834e-02  
    8     5.892e-03  
    9     2.318e-03  
   10     7.118e-04  
   11     3.617e-04  
   12     1.470e-04  
   13     5.903e-05  
   14     2.389e-05  
   15     4.936e-06  
   16     2.103e-06  
   17     4.198e-07  Converged.
   ... Converged in 17 steps (norm: 4.19814e-07)
------------------------------------
  Starting TPA DIIS iterations ... 
------------------------------------ 
   It     Res. Norm  Remark
------------------------------------
                       Guess.
    1     8.091e-01  
    2     6.835e-01  
    3     2.978e-01  
    4     1.066e-01  
    5     4.050e-02  
    6     1.966e-02  
    7     4.069e-03  
    8     1.660e-03  
    9     5.383e-04  
   10     5.946e-05  
   11     2.861e-05  
   12     1.051e-05  
   13     8.941e-06  
   14     4.160e-06  
   15     2.264e-06  
   16     9.815e-07  Converged.
   ... Converged in 16 steps (norm: 9.81546e-07)
------------------------------------
  Starting TPA DIIS iterations ... 
------------------------------------ 
   It     Res. Norm  Remark
------------------------------------
                       Guess.
    1     1.048e+01  
    2     1.841e+01  
    3     2.732e+00  
    4     1.058e+00  
    5     3.004e-01  
    6     1.350e-01  
    7     3.924e-02  
    8     6.675e-03  
    9     2.554e-03  
   10     9.653e-04  
   11     3.682e-04  
   12     2.126e-04  
   13     4.880e-05  
   14     4.333e-05  
   15     6.410e-06  
   16     4.575e-06  
   17     8.703e-07  Converged.
   ... Converged in 17 steps (norm: 8.70345e-07)
------------------------------------
  Starting TPA DIIS iterations ... 
------------------------------------ 
   It     Res. Norm  Remark
------------------------------------
                       Guess.
    1     9.944e+00  
    2     1.747e+01  
    3     2.608e+00  
    4     1.047e+00  
    5     2.992e-01  
    6     1.383e-01  
    7     3.911e-02  
    8     8.438e-03  
    9     3.431e-03  
   10     1.114e-03  
   11     6.199e-04  
   12     2.490e-04  
   13     1.028e-04  
   14     3.902e-05  
   15     8.468e-06  
   16     3.506e-06  
   17     7.993e-07  Converged.
   ... Converged in 17 steps (norm: 7.99275e-07)
------------------------------------
  Starting TPA DIIS iterations ... 
------------------------------------ 
   It     Res. Norm  Remark
------------------------------------
                       Guess.
    1     8.416e-01  
    2     7.495e-01  
    3     3.449e-01  
    4     1.431e-01  
    5     5.076e-02  
    6     2.532e-02  
    7     5.819e-03  
    8     1.887e-03  
    9     6.951e-04  
   10     8.483e-05  
   11     4.319e-05  
   12     1.723e-05  
   13     1.557e-05  
   14     7.573e-06  
   15     3.943e-06  
   16     1.701e-06  
   17     4.193e-07  Converged.
   ... Converged in 17 steps (norm: 4.19335e-07)
------------------------------------
  Starting TPA DIIS iterations ... 
------------------------------------ 
   It     Res. Norm  Remark
------------------------------------
                       Guess.
    1     1.141e+01  
    2     2.061e+01  
    3     2.976e+00  
    4     1.206e+00  
    5     3.448e-01  
    6     1.563e-01  
    7     4.510e-02  
    8     7.663e-03  
    9     2.958e-03  
   10     1.177e-03  
   11     4.720e-04  
   12     2.708e-04  
   13     6.261e-05  
   14     5.458e-05  
   15     8.144e-06  
   16     5.381e-06  
   17     1.231e-06  
   18     8.583e-07  Converged.
   ... Converged in 18 steps (norm: 8.58348e-07)
------------------------------------
  Starting TPA DIIS iterations ... 
------------------------------------ 
   It     Res. Norm  Remark
------------------------------------
                       Guess.
    1     1.083e+01  
    2     1.956e+01  
    3     2.840e+00  
    4     1.193e+00  
    5     3.435e-01  
    6     1.604e-01  
    7     4.500e-02  
    8     9.891e-03  
    9     4.082e-03  
   10     1.355e-03  
   11     7.803e-04  
   12     3.119e-04  
   13     1.294e-04  
   14     4.815e-05  
   15     1.062e-05  
   16     4.393e-06  
   17     1.067e-06  
   18     6.616e-07  Converged.
   ... Converged in 18 steps (norm: 6.61564e-07)
------------------------------------
  Starting TPA DIIS iterations ... 
------------------------------------ 
   It     Res. Norm  Remark
------------------------------------
                       Guess.
    1     8.558e-01  
    2     7.803e-01  
    3     3.676e-01  
    4     1.633e-01  
    5     5.620e-02  
    6     2.819e-02  
    7     6.771e-03  
    8     1.952e-03  
    9     7.720e-04  
   10     9.944e-05  
   11     5.175e-05  
   12     2.148e-05  
   13     1.979e-05  
   14     9.741e-06  
   15     5.184e-06  
   16     2.159e-06  
   17     5.480e-07  Converged.
   ... Converged in 17 steps (norm: 5.4802e-07)
------------------------------------
  Starting TPA DIIS iterations ... 
------------------------------------ 
   It     Res. Norm  Remark
------------------------------------
                       Guess.
    1     1.237e+01  
    2     2.290e+01  
    3     3.221e+00  
    4     1.362e+00  
    5     3.915e-01  
    6     1.789e-01  
    7     5.127e-02  
    8     8.705e-03  
    9     3.391e-03  
   10     1.415e-03  
   11     5.957e-04  
   12     3.378e-04  
   13     7.953e-05  
   14     6.723e-05  
   15     1.024e-05  
   16     6.147e-06  
   17     1.727e-06  
   18     1.171e-06  
   19     3.834e-07  Converged.
   ... Converged in 19 steps (norm: 3.83407e-07)
------------------------------------
  Starting TPA DIIS iterations ... 
------------------------------------ 
   It     Res. Norm  Remark
------------------------------------
                       Guess.
    1     1.174e+01  
    2     2.173e+01  
    3     3.073e+00  
    4     1.345e+00  
    5     3.901e-01  
    6     1.838e-01  
    7     5.121e-02  
    8     1.146e-02  
    9     4.796e-03  
   10     1.623e-03  
   11     9.620e-04  
   12     3.828e-04  
   13     1.590e-04  
   14     5.837e-05  
   15     1.301e-05  
   16     5.427e-06  
   17     1.398e-06  
   18     8.986e-07  Converged.
   ... Converged in 18 steps (norm: 8.98647e-07)
------------------------------------
  Starting TPA DIIS iterations ... 
------------------------------------ 
   It     Res. Norm  Remark
------------------------------------
                       Guess.
    1     8.689e-01  
    2     8.098e-01  
    3     3.899e-01  
    4     1.849e-01  
    5     6.189e-02  
    6     3.099e-02  
    7     7.761e-03  
    8     2.003e-03  
    9     8.484e-04  
   10     1.149e-04  
   11     6.116e-05  
   12     2.629e-05  
   13     2.448e-05  
   14     1.220e-05  
   15     6.667e-06  
   16     2.689e-06  
   17     7.129e-07  Converged.
   ... Converged in 17 steps (norm: 7.12866e-07)
------------------------------------
  Two-photon absorbption ...  CPU 128.44 s  wall 26.67 s
  Transition density matrix of state singlet_A_1 printed to ASCII file 'State_singlet_A_1_Transition.txt'
  Transition density matrix of state singlet_A_2 printed to ASCII file 'State_singlet_A_2_Transition.txt'
  Transition density matrix of state singlet_A_3 printed to ASCII file 'State_singlet_A_3_Transition.txt'
  Transition density matrix of state singlet_A_4 printed to ASCII file 'State_singlet_A_4_Transition.txt'
  Transition density matrix of state singlet_A_5 printed to ASCII file 'State_singlet_A_5_Transition.txt'
  Transition density matrix of state singlet_A_6 printed to ASCII file 'State_singlet_A_6_Transition.txt'
  Transition density matrix of state singlet_A_7 printed to ASCII file 'State_singlet_A_7_Transition.txt'
  Transition density matrix of state singlet_A_8 printed to ASCII file 'State_singlet_A_8_Transition.txt'
  Transition density matrix of state singlet_A_9 printed to ASCII file 'State_singlet_A_9_Transition.txt'
  Transition density matrix of state singlet_A_10 printed to ASCII file 'State_singlet_A_10_Transition.txt'
  Transition properties ...  CPU 0.17 s  wall 1.14 s
  Difference density matrix of state singlet_A_1 printed to ASCII file 'State_singlet_A_1_Difference.txt'
  Total density matrix of state singlet_A_1 printed to ASCII file 'State_singlet_A_1_Total.txt'
  Difference density matrix of state singlet_A_2 printed to ASCII file 'State_singlet_A_2_Difference.txt'
  Total density matrix of state singlet_A_2 printed to ASCII file 'State_singlet_A_2_Total.txt'
  Difference density matrix of state singlet_A_3 printed to ASCII file 'State_singlet_A_3_Difference.txt'
  Total density matrix of state singlet_A_3 printed to ASCII file 'State_singlet_A_3_Total.txt'
  Difference density matrix of state singlet_A_4 printed to ASCII file 'State_singlet_A_4_Difference.txt'
  Total density matrix of state singlet_A_4 printed to ASCII file 'State_singlet_A_4_Total.txt'
  Difference density matrix of state singlet_A_5 printed to ASCII file 'State_singlet_A_5_Difference.txt'
  Total density matrix of state singlet_A_5 printed to ASCII file 'State_singlet_A_5_Total.txt'
  Difference density matrix of state singlet_A_6 printed to ASCII file 'State_singlet_A_6_Difference.txt'
  Total density matrix of state singlet_A_6 printed to ASCII file 'State_singlet_A_6_Total.txt'
  Difference density matrix of state singlet_A_7 printed to ASCII file 'State_singlet_A_7_Difference.txt'
  Total density matrix of state singlet_A_7 printed to ASCII file 'State_singlet_A_7_Total.txt'
  Difference density matrix of state singlet_A_8 printed to ASCII file 'State_singlet_A_8_Difference.txt'
  Total density matrix of state singlet_A_8 printed to ASCII file 'State_singlet_A_8_Total.txt'
  Difference density matrix of state singlet_A_9 printed to ASCII file 'State_singlet_A_9_Difference.txt'
  Total density matrix of state singlet_A_9 printed to ASCII file 'State_singlet_A_9_Total.txt'
  Difference density matrix of state singlet_A_10 printed to ASCII file 'State_singlet_A_10_Difference.txt'
  Total density matrix of state singlet_A_10 printed to ASCII file 'State_singlet_A_10_Total.txt'
  Properties ...  CPU 0.31 s  wall 1.38 s
  ISR TDMS ...  CPU 16.72 s  wall 4.51 s
  ISR transition properties ...  CPU 0.23 s  wall 0.10 s
  Sum-over-states TPA ...  CPU 0.00 s  wall 0.00 s

--------------------------------------------------------------------------------
                   State-averaged natural transition orbitals
--------------------------------------------------------------------------------
--------------------------------------------------------------------------------
  SA-NTO decomposition ...  CPU 0.01 s  wall 0.59 s

--------------------------------------------------------------------------------
                             Excited State Summary
--------------------------------------------------------------------------------
--------------------------------------------------------------------------------

  Excited state 1 (singlet, A)                                     [converged]
  ----------------------------------------------------------------------------
  Term symbol:  2 (1) A                                     R^2 =  2.61633e-13

  Total energy:                                            -77.9988863886 a.u.
  Excitation energy:                                               8.727374 eV

  Osc. strength:                                                      0.434188
  Trans. dip. moment [a.u.]:           [  -1.032729,    0.981874,    0.006902]
  <i|r^2|0> [a.u.]:                    [  -6.079748,    0.262480,   -0.025147]
  Two-photon absorption cross-section (SoS) [a.u.]:                   0.001488
  Two-photon absorption matrix (SoS) [a.u.]:
                                       |    0.003201    0.006922   -0.006033 |
                                       |    0.006922   -0.006041    0.006743 |
                                       |   -0.006033    0.006743   -0.005537 |
  Two-photon absorption cross-section [a.u.]:                         0.096890
  Two-photon absorption matrix [a.u.]:
                                       |    0.006990   -0.002242    0.056268 |
                                       |   -0.002242   -0.013737    0.093430 |
                                       |    0.056268    0.093430    0.012867 |

  Dip. moment [a.u.]:                  [  -0.000278,    0.003285,   -0.012874]
  Total dipole [Debye]:                                               0.033777
  <r^2> [a.u.]:                        [ 176.088158,   35.607837,   11.924363]
  Total <r^2> [a.u.]:                                               223.620358

  V1^2 = 0.9711, V2^2 = 0.0289

  Important amplitudes:
      occ i     occ j     vir a      vir b          v   
    -----------------------------------------------------
     8 (A) A              9 (A) A                -0.6752
     7 (A) A              9 (A) A                -0.0896
     6 (A) A             14 (A) A                 0.0615
     4 (A) A             10 (A) A                 0.0600
     7 (A) A             16 (A) A                -0.0562
     5 (A) A             13 (A) A                 0.0507
     6 (A) A             23 (A) A                 0.0481
     8 (A) A             20 (A) A                -0.0347
     6 (A) A             19 (A) A                 0.0304
     3 (A) A             12 (A) A                -0.0278
     5 (A) A             22 (A) A                -0.0212
     7 (A) A             11 (A) A                -0.0211
     4 (A) A             24 (A) A                 0.0185
     3 (A) A             26 (A) A                -0.0183
     8 (A) A   8 (A) B   17 (A) A   20 (A) B      0.0182
     6 (A) A             26 (A) A                -0.0161
     8 (A) A   8 (A) B    9 (A) A   28 (A) B      0.0154
     7 (A) A             21 (A) A                -0.0148
     3 (A) A             14 (A) A                 0.0138
     6 (A) A             12 (A) A                 0.0131
     3 (A) A   4 (A) B    9 (A) A    9 (A) B     -0.0127
     3 (A) A             19 (A) A                 0.0118
     8 (A) A   8 (A) B   18 (A) A   19 (A) B     -0.0111
     7 (A) A             20 (A) A                -0.0103
     7 (A) A             32 (A) A                -0.0094
     7 (A) A             36 (A) A                -0.0084
     3 (A) A             23 (A) A                 0.0080
     8 (A) A   8 (A) B   25 (A) A   29 (A) B     -0.0073
     6 (A) A             35 (A) A                 0.0071
     6 (A) A             40 (A) A                 0.0067
     8 (A) A   8 (A) B    9 (A) A   27 (A) B     -0.0063
     3 (A) A   6 (A) B    9 (A) A   28 (A) B      0.0060
     5 (A) A   8 (A) B   11 (A) A   20 (A) B      0.0059
     7 (A) A   8 (A) B   13 (A) A   20 (A) B     -0.0059
     5 (A) A   8 (A) B   16 (A) A    9 (A) B      0.0058
     5 (A) A   7 (A) B    9 (A) A    9 (A) B      0.0058
     5 (A) A             27 (A) A                -0.0058
     5 (A) A   8 (A) B   11 (A) A    9 (A) B     -0.0058
     6 (A) A              9 (A) A                 0.0057
     3 (A) A   5 (A) B    9 (A) A   25 (A) B      0.0057
    -----------------------------------------------------

  Density matrix analysis:
  ------------------------
  NOs
    Occupation of frontier NOs:
       0.9507   1.0211
    Number of electrons: 16.000000
    Number of unpaired electrons: n_u =  2.31441, n_u,nl =  2.03276
    NO participation ratio (PR_NO):  2.861139
  
  
  Mulliken Population Analysis
  Atom      Charge (e)              h+              e-           Del q
  --------------------------------------------------------------------
   1 H        0.060967        0.022553       -0.012696        0.009857
   2 C       -0.121934        0.485434       -0.505012       -0.019578
   3 H        0.061153        0.022305       -0.012620        0.009685
   4 C       -0.121010        0.485199       -0.505224       -0.020025
   5 H        0.060533        0.022849       -0.012476        0.010372
   6 H        0.060291        0.022106       -0.012417        0.009689
  --------------------------------------------------------------------
  Sum:       -0.000000        1.060447       -1.060447       -0.000000
  
  Multipole moment analysis of the density matrix
    Molecular charge:                      0.000000
    Number of electrons:                   16.000000
      Center of electronic charge [Ang]: [ -1.560567,  -0.065711,  -0.000096]
    Total nuclear charge:                  16.000000
      Center of nuclear charge [Ang]:    [ -1.560576,  -0.065602,  -0.000522]
    Dipole moment [D]:                     0.033777
      Cartesian components [D]:          [ -0.000706,   0.008349,  -0.032721]
    RMS size of the density [Ang]:         1.214112
      Cartesian components [Ang]:        [  0.804044,   0.786691,   0.456834]
  
  Exciton analysis of the difference density matrix
    <r_h> [Ang]:                  [ -1.559991,  -0.065729,   0.005051]
    <r_e> [Ang]:                  [ -1.560073,  -0.066268,   0.006347]
    |<r_e - r_h>| [Ang]:            0.001406
    Hole size [Ang]:                1.290424
      Cartesian components [Ang]: [  0.734535,   0.721973,   0.777437]
    Electron size [Ang]:            1.463052
      Cartesian components [Ang]: [  0.853985,   0.830812,   0.849107]

  Transition density matrix analysis:
  -----------------------------------
  
  CT numbers (Mulliken)
    omega =     0.9528
    <Phe> =    -0.1579
  
  Exciton analysis of the transition density matrix
    Trans. dipole moment [D]:             1.811007
      Cartesian components [D]:         [ -1.312468,   1.247837,   0.008772]
    <r_h> [Ang]:                        [ -1.559962,  -0.065801,   0.003940]
    <r_e> [Ang]:                        [ -1.560275,  -0.066494,   0.007114]
    |<r_e - r_h>| [Ang]:                  0.003264
    Hole size [Ang]:                      1.221753
      Cartesian components [Ang]:       [  0.658965,   0.649997,   0.797465]
    Electron size [Ang]:                  1.484985
      Cartesian components [Ang]:       [  0.863866,   0.839418,   0.868500]
    RMS electron-hole separation [Ang]:   1.939985
      Cartesian components [Ang]:       [  1.110829,   1.082658,   1.165098]
    Covariance(r_h, r_e) [Ang^2]:        -0.032836
    Correlation coefficient:             -0.018098
    Center-of-mass size [Ang]:            0.952915
      Cartesian components [Ang]:       [  0.530815,   0.520117,   0.596457]

  Decomposition into state-averaged NTOs
    H- 0 -> L+ 0:  0.6645 ( 88.3%)
    H- 1 -> L+ 0: -0.0860 (  1.5%)
    H- 2 -> L+ 5: -0.0826 (  1.4%)
                   omega =  95.3%
  ----------------------------------------------------------------------------


  Excited state 2 (singlet, A)                                     [converged]
  ----------------------------------------------------------------------------
  Term symbol:  3 (1) A                                     R^2 =  8.81975e-14

  Total energy:                                            -77.9868442220 a.u.
  Excitation energy:                                               9.055058 eV

  Osc. strength:                                                      0.009963
  Trans. dip. moment [a.u.]:           [   0.148721,   -0.150477,   -0.012126]
  <i|r^2|0> [a.u.]:                    [   0.964588,    0.045156,   -0.170296]
  Two-photon absorption cross-section (SoS) [a.u.]:                   5.068658
  Two-photon absorption matrix (SoS) [a.u.]:
                                       |    0.078134    0.068427   -0.538715 |
                                       |    0.068427    0.055985   -0.569660 |
                                       |   -0.538715   -0.569660   -0.138202 |
  Two-photon absorption cross-section [a.u.]:                         0.121569
  Two-photon absorption matrix [a.u.]:
                                       |    0.085362   -0.003097    0.049712 |
                                       |   -0.003097   -0.104422    0.059328 |
                                       |    0.049712    0.059328    0.013614 |

  Dip. moment [a.u.]:                  [   0.010130,    0.021509,   -0.021420]
  Total dipole [Debye]:                                               0.081339
  <r^2> [a.u.]:                        [ 174.663217,   34.049770,   13.153319]
  Total <r^2> [a.u.]:                                               221.866306

  V1^2 = 0.9545, V2^2 = 0.0455

  Important amplitudes:
      occ i     occ j     vir a      vir b          v   
    -----------------------------------------------------
     7 (A) A              9 (A) A                -0.6625
     8 (A) A             11 (A) A                -0.1505
     8 (A) A              9 (A) A                 0.0875
     7 (A) A             20 (A) A                -0.0751
     5 (A) A   8 (A) B    9 (A) A    9 (A) B      0.0312
     8 (A) A             16 (A) A                 0.0278
     8 (A) A             10 (A) A                 0.0208
     8 (A) A             21 (A) A                -0.0179
     5 (A) A             28 (A) A                 0.0140
     4 (A) A   7 (A) B    9 (A) A   19 (A) B      0.0134
     5 (A) A   7 (A) B    9 (A) A   16 (A) B     -0.0132
     7 (A) A   8 (A) B   20 (A) A   17 (A) B      0.0104
     5 (A) A   8 (A) B    9 (A) A   20 (A) B      0.0094
     6 (A) A             14 (A) A                -0.0092
     4 (A) A   6 (A) B    9 (A) A   16 (A) B     -0.0090
     5 (A) A   6 (A) A    9 (A) A   23 (A) A      0.0090
     4 (A) A             10 (A) A                -0.0088
     7 (A) A   8 (A) A    9 (A) A   28 (A) A     -0.0088
     5 (A) A   6 (A) A    9 (A) A   14 (A) A      0.0088
     5 (A) A   6 (A) B    9 (A) A   19 (A) B      0.0085
     4 (A) A   5 (A) A    9 (A) A   10 (A) A     -0.0084
     6 (A) A   7 (A) B    9 (A) A   18 (A) B      0.0082
     7 (A) A             16 (A) A                 0.0080
     5 (A) A   6 (A) B    9 (A) A   23 (A) B      0.0079
     3 (A) A   7 (A) B    9 (A) A   18 (A) B     -0.0079
     5 (A) A   7 (A) A    9 (A) A   16 (A) A     -0.0078
     8 (A) A   7 (A) B    9 (A) A   28 (A) B      0.0077
     5 (A) A             13 (A) A                -0.0077
     4 (A) A   8 (A) B    9 (A) A   25 (A) B     -0.0075
     7 (A) A   8 (A) B   17 (A) A   20 (A) B      0.0073
     4 (A) A   7 (A) B   19 (A) A    9 (A) B      0.0073
     5 (A) A   5 (A) B    9 (A) A   13 (A) B      0.0071
     7 (A) A   8 (A) B   19 (A) A   18 (A) B     -0.0071
     6 (A) A             23 (A) A                -0.0069
     5 (A) A   8 (A) A    9 (A) A   20 (A) A      0.0068
     4 (A) A   5 (A) B    9 (A) A   18 (A) B      0.0067
     7 (A) A   7 (A) B   20 (A) A   22 (A) B      0.0065
     7 (A) A   8 (A) B   17 (A) A    9 (A) B      0.0064
     5 (A) A   6 (A) B    9 (A) A   14 (A) B      0.0062
     4 (A) A   7 (A) A    9 (A) A   19 (A) A      0.0061
    -----------------------------------------------------

  Density matrix analysis:
  ------------------------
  NOs
    Occupation of frontier NOs:
       0.9551   1.0553
    Number of electrons: 16.000000
    Number of unpaired electrons: n_u =  2.35460, n_u,nl =  2.06352
    NO participation ratio (PR_NO):  3.038783
  
  
  Mulliken Population Analysis
  Atom      Charge (e)              h+              e-           Del q
  --------------------------------------------------------------------
   1 H        0.148227        0.117810       -0.020693        0.097117
   2 C       -0.296993        0.274708       -0.469346       -0.194638
   3 H        0.148233        0.126242       -0.029477        0.096765
   4 C       -0.296141        0.275877       -0.471033       -0.195156
   5 H        0.153314        0.124539       -0.021385        0.103153
   6 H        0.143361        0.120884       -0.028125        0.092758
  --------------------------------------------------------------------
  Sum:       -0.000000        1.040059       -1.040059       -0.000000
  
  Multipole moment analysis of the density matrix
    Molecular charge:                      -0.000000
    Number of electrons:                   16.000000
      Center of electronic charge [Ang]: [ -1.560911,  -0.066314,   0.000187]
    Total nuclear charge:                  16.000000
      Center of nuclear charge [Ang]:    [ -1.560576,  -0.065602,  -0.000522]
    Dipole moment [D]:                     0.081339
      Cartesian components [D]:          [  0.025747,   0.054670,  -0.054445]
    RMS size of the density [Ang]:         1.200922
      Cartesian components [Ang]:        [  0.787702,   0.769113,   0.479798]
  
  Exciton analysis of the difference density matrix
    <r_h> [Ang]:                  [ -1.565741,  -0.067027,  -0.002202]
    <r_e> [Ang]:                  [ -1.571120,  -0.076849,   0.003468]
    |<r_e - r_h>| [Ang]:            0.012552
    Hole size [Ang]:                1.482833
      Cartesian components [Ang]: [  0.992459,   0.997605,   0.467548]
    Electron size [Ang]:            1.480955
      Cartesian components [Ang]: [  0.882143,   0.864114,   0.817531]

  Transition density matrix analysis:
  -----------------------------------
  
  CT numbers (Mulliken)
    omega =     0.9224
    <Phe> =    -0.0148
  
  Exciton analysis of the transition density matrix
    Trans. dipole moment [D]:             0.269318
      Cartesian components [D]:         [  0.189006,  -0.191237,  -0.015410]
    <r_h> [Ang]:                        [ -1.565847,  -0.066296,  -0.003505]
    <r_e> [Ang]:                        [ -1.571436,  -0.077904,   0.004942]
    |<r_e - r_h>| [Ang]:                  0.015405
    Hole size [Ang]:                      1.508561
      Cartesian components [Ang]:       [  1.012733,   1.019703,   0.458624]
    Electron size [Ang]:                  1.478539
      Cartesian components [Ang]:       [  0.873651,   0.854558,   0.832190]
    RMS electron-hole separation [Ang]:   2.093246
      Cartesian components [Ang]:       [  1.322456,   1.316077,   0.949069]
    Covariance(r_h, r_e) [Ang^2]:         0.040196
    Correlation coefficient:              0.018021
    Center-of-mass size [Ang]:            1.065625
      Cartesian components [Ang]:       [  0.676190,   0.672347,   0.475682]

  Decomposition into state-averaged NTOs
    H- 1 -> L+ 0: -0.6553 ( 85.9%)
    H- 0 -> L+ 2:  0.1509 (  4.6%)
    H- 0 -> L+ 0: -0.0823 (  1.4%)
                   omega =  92.2%
  ----------------------------------------------------------------------------


  Excited state 3 (singlet, A)                                     [converged]
  ----------------------------------------------------------------------------
  Term symbol:  4 (1) A                                     R^2 =  3.47755e-13

  Total energy:                                            -77.9827727155 a.u.
  Excitation energy:                                               9.165850 eV

  Osc. strength:                                                      0.025221
  Trans. dip. moment [a.u.]:           [  -0.004829,    0.044745,   -0.332100]
  <i|r^2|0> [a.u.]:                    [  -0.104717,    0.098730,    0.000175]
  Two-photon absorption cross-section (SoS) [a.u.]:                   2.431689
  Two-photon absorption matrix (SoS) [a.u.]:
                                       |   -0.551481   -0.024031   -0.033715 |
                                       |   -0.024031    0.530377    0.037452 |
                                       |   -0.033715    0.037452   -0.096597 |
  Two-photon absorption cross-section [a.u.]:                         1.332960
  Two-photon absorption matrix [a.u.]:
                                       |   -0.437293   -0.003051   -0.041027 |
                                       |   -0.003051    0.350721    0.017707 |
                                       |   -0.041027    0.017707   -0.062426 |

  Dip. moment [a.u.]:                  [  -0.002627,    0.025289,    0.015871]
  Total dipole [Debye]:                                               0.076181
  <r^2> [a.u.]:                        [ 180.826637,   40.601028,   11.069882]
  Total <r^2> [a.u.]:                                               232.497547

  V1^2 = 0.9587, V2^2 = 0.0413

  Important amplitudes:
      occ i     occ j     vir a      vir b          v   
    -----------------------------------------------------
     8 (A) A             10 (A) A                 0.6887
     8 (A) A             24 (A) A                 0.0507
     8 (A) A             18 (A) A                -0.0313
     4 (A) A              9 (A) A                -0.0238
     8 (A) A   8 (A) B    9 (A) A   12 (A) B      0.0219
     7 (A) A              9 (A) A                 0.0203
     8 (A) A   8 (A) B   10 (A) A   17 (A) B      0.0172
     8 (A) A             15 (A) A                 0.0169
     5 (A) A   8 (A) B   11 (A) A   10 (A) B      0.0165
     7 (A) A   8 (A) B   13 (A) A   10 (A) B     -0.0141
     4 (A) A   8 (A) B   12 (A) A   10 (A) B     -0.0111
     6 (A) A   8 (A) A   10 (A) A   15 (A) A     -0.0110
     7 (A) A   8 (A) B   22 (A) A   10 (A) B      0.0108
     6 (A) A   8 (A) B   15 (A) A   10 (A) B      0.0107
     4 (A) A   8 (A) A   10 (A) A   12 (A) A      0.0106
     7 (A) A   8 (A) A   10 (A) A   22 (A) A     -0.0099
     7 (A) A   8 (A) A   10 (A) A   13 (A) A      0.0097
     5 (A) A   8 (A) B   21 (A) A   10 (A) B      0.0094
     5 (A) A   8 (A) A   10 (A) A   11 (A) A     -0.0094
     6 (A) A   8 (A) A   10 (A) A   18 (A) A     -0.0088
     6 (A) A   8 (A) B   10 (A) A   10 (A) B     -0.0087
     7 (A) A   8 (A) A   12 (A) A   16 (A) A      0.0082
     5 (A) A   8 (A) A   10 (A) A   21 (A) A     -0.0079
     3 (A) A   4 (A) B   10 (A) A    9 (A) B      0.0079
     4 (A) A   8 (A) B   19 (A) A   10 (A) B      0.0075
     8 (A) A   8 (A) B    9 (A) A   23 (A) B      0.0075
     8 (A) A              9 (A) A                -0.0073
     3 (A) A   8 (A) B   10 (A) A   10 (A) B      0.0072
     5 (A) A   8 (A) B   10 (A) A   11 (A) B      0.0071
     3 (A) A   8 (A) A   10 (A) A   24 (A) A     -0.0071
     7 (A) A   8 (A) B   16 (A) A   12 (A) B     -0.0070
     3 (A) A   8 (A) B   10 (A) A   18 (A) B     -0.0069
     8 (A) A   8 (A) B    9 (A) A   19 (A) B     -0.0068
     8 (A) A   8 (A) B   10 (A) A   28 (A) B     -0.0067
     6 (A) A   8 (A) B   18 (A) A   10 (A) B      0.0067
     3 (A) A   6 (A) B   10 (A) A   28 (A) B     -0.0058
     7 (A) A   8 (A) B   12 (A) A   11 (A) B      0.0058
     5 (A) A   8 (A) A   10 (A) A   16 (A) A      0.0056
     3 (A) A   5 (A) B   10 (A) A   25 (A) B     -0.0056
     3 (A) A   8 (A) A   10 (A) A   18 (A) A     -0.0055
    -----------------------------------------------------

  Density matrix analysis:
  ------------------------
  NOs
    Occupation of frontier NOs:
       0.9822   0.9842
    Number of electrons: 16.000000
    Number of unpaired electrons: n_u =  2.28725, n_u,nl =  2.02483
    NO participation ratio (PR_NO):  2.696543
  
  
  Mulliken Population Analysis
  Atom      Charge (e)              h+              e-           Del q
  --------------------------------------------------------------------
   1 H       -0.162180        0.054142       -0.267433       -0.213290
   2 C        0.324944        0.538583       -0.111284        0.427300
   3 H       -0.166262        0.053679       -0.271410       -0.217731
   4 C        0.325015        0.535750       -0.109749        0.426000
   5 H       -0.159804        0.054324       -0.264288       -0.209964
   6 H       -0.161712        0.053753       -0.266068       -0.212315
  --------------------------------------------------------------------
  Sum:       -0.000000        1.290232       -1.290232       -0.000000
  
  Multipole moment analysis of the density matrix
    Molecular charge:                      0.000000
    Number of electrons:                   16.000000
      Center of electronic charge [Ang]: [ -1.560489,  -0.066439,  -0.001047]
    Total nuclear charge:                  16.000000
      Center of nuclear charge [Ang]:    [ -1.560576,  -0.065602,  -0.000522]
    Dipole moment [D]:                     0.076181
      Cartesian components [D]:          [ -0.006676,   0.064278,   0.040340]
    RMS size of the density [Ang]:         1.276550
      Cartesian components [Ang]:        [  0.854202,   0.840343,   0.440161]
  
  Exciton analysis of the difference density matrix
    <r_h> [Ang]:                  [ -1.559384,  -0.066648,   0.002693]
    <r_e> [Ang]:                  [ -1.558487,  -0.076116,  -0.008032]
    |<r_e - r_h>| [Ang]:            0.014334
    Hole size [Ang]:                1.410571
      Cartesian components [Ang]: [  0.834108,   0.820695,   0.787677]
    Electron size [Ang]:            2.075749
      Cartesian components [Ang]: [  1.372269,   1.376539,   0.728525]

  Transition density matrix analysis:
  -----------------------------------
  
  CT numbers (Mulliken)
    omega =     0.9259
    <Phe> =    -0.0110
  
  Exciton analysis of the transition density matrix
    Trans. dipole moment [D]:             0.425914
      Cartesian components [D]:         [ -0.006138,   0.056865,  -0.422057]
    <r_h> [Ang]:                        [ -1.559153,  -0.065462,   0.005634]
    <r_e> [Ang]:                        [ -1.557508,  -0.079413,  -0.010884]
    |<r_e - r_h>| [Ang]:                  0.021683
    Hole size [Ang]:                      1.213454
      Cartesian components [Ang]:       [  0.637026,   0.625341,   0.821959]
    Electron size [Ang]:                  2.295044
      Cartesian components [Ang]:       [  1.515942,   1.523342,   0.805345]
    RMS electron-hole separation [Ang]:   2.586220
      Cartesian components [Ang]:       [  1.636832,   1.639699,   1.149217]
    Covariance(r_h, r_e) [Ang^2]:         0.025818
    Correlation coefficient:              0.009271
    Center-of-mass size [Ang]:            1.303009
      Cartesian components [Ang]:       [  0.825916,   0.826865,   0.576187]

  Decomposition into state-averaged NTOs
    H- 0 -> L+ 1:  0.6793 ( 92.3%)
                   omega =  92.6%
  ----------------------------------------------------------------------------


  Excited state 4 (singlet, A)                                     [converged]
  ----------------------------------------------------------------------------
  Term symbol:  5 (1) A                                     R^2 =  2.31971e-13

  Total energy:                                            -77.9584231448 a.u.
  Excitation energy:                                               9.828435 eV

  Osc. strength:                                                      0.001665
  Trans. dip. moment [a.u.]:           [   0.059562,   -0.057763,   -0.005419]
  <i|r^2|0> [a.u.]:                    [   0.328886,   -0.033102,    0.040724]
  Two-photon absorption cross-section (SoS) [a.u.]:                 148.380097
  Two-photon absorption matrix (SoS) [a.u.]:
                                       |   -0.443055   -0.375751    2.964807 |
                                       |   -0.375751   -0.297710    3.033471 |
                                       |    2.964807    3.033471    0.737333 |
  Two-photon absorption cross-section [a.u.]:                        91.296930
  Two-photon absorption matrix [a.u.]:
                                       |   -0.423033   -0.297910    2.309098 |
                                       |   -0.297910   -0.161586    2.391950 |
                                       |    2.309098    2.391950    0.578737 |

  Dip. moment [a.u.]:                  [  -0.039208,   -0.026385,    0.011224]
  Total dipole [Debye]:                                               0.123464
  <r^2> [a.u.]:                        [ 180.949833,   40.608720,   10.808151]
  Total <r^2> [a.u.]:                                               232.366704

  V1^2 = 0.9635, V2^2 = 0.0365

  Important amplitudes:
      occ i     occ j     vir a      vir b          v   
    -----------------------------------------------------
     8 (A) A             11 (A) A                 0.6692
     7 (A) A              9 (A) A                -0.1518
     8 (A) A             21 (A) A                 0.0780
     8 (A) A             16 (A) A                -0.0644
     8 (A) A   8 (A) B    9 (A) A   13 (A) B     -0.0166
     5 (A) A   8 (A) B   11 (A) A   11 (A) B      0.0155
     8 (A) A              9 (A) A                 0.0146
     8 (A) A   8 (A) B   11 (A) A   17 (A) B      0.0140
     7 (A) A             20 (A) A                -0.0139
     7 (A) A   8 (A) B   13 (A) A   11 (A) B     -0.0127
     5 (A) A   8 (A) A   11 (A) A   21 (A) A     -0.0110
     4 (A) A   8 (A) B   12 (A) A   11 (A) B     -0.0110
     8 (A) A   8 (A) B    9 (A) A   22 (A) B      0.0107
     7 (A) A   8 (A) A   11 (A) A   22 (A) A     -0.0096
     6 (A) A   8 (A) B   15 (A) A   11 (A) B      0.0090
     6 (A) A   8 (A) B   10 (A) A   11 (A) B     -0.0090
     7 (A) A   8 (A) B   22 (A) A   11 (A) B      0.0089
     3 (A) A   4 (A) B   11 (A) A    9 (A) B      0.0083
     3 (A) A   8 (A) B   11 (A) A   18 (A) B     -0.0081
     6 (A) A   8 (A) A   11 (A) A   15 (A) A     -0.0080
     7 (A) A   8 (A) A   13 (A) A   16 (A) A     -0.0078
     7 (A) A   8 (A) A   11 (A) A   13 (A) A      0.0077
     8 (A) A             12 (A) A                 0.0072
     5 (A) A   8 (A) B   21 (A) A   11 (A) B      0.0071
     4 (A) A   8 (A) B   19 (A) A   11 (A) B      0.0070
     5 (A) A   8 (A) B    9 (A) A    9 (A) B      0.0068
     4 (A) A   8 (A) A   11 (A) A   12 (A) A      0.0062
     6 (A) A   8 (A) A   11 (A) A   18 (A) A     -0.0062
     6 (A) A   8 (A) B   18 (A) A   11 (A) B      0.0060
     6 (A) A              9 (A) A                 0.0058
     7 (A) A   8 (A) B   16 (A) A   13 (A) B      0.0057
     3 (A) A   6 (A) B   11 (A) A   28 (A) B     -0.0056
     3 (A) A   8 (A) A   11 (A) A   18 (A) A     -0.0056
     5 (A) A   8 (A) B   10 (A) A   10 (A) B      0.0056
     3 (A) A   8 (A) B   11 (A) A   30 (A) B     -0.0055
     3 (A) A   5 (A) B   11 (A) A   25 (A) B     -0.0054
     6 (A) A   8 (A) B   11 (A) A   10 (A) B     -0.0054
     7 (A) A   8 (A) B   12 (A) A   10 (A) B      0.0054
     8 (A) A   8 (A) B   20 (A) A   22 (A) B      0.0053
     3 (A) A   8 (A) A   11 (A) A   24 (A) A     -0.0053
    -----------------------------------------------------

  Density matrix analysis:
  ------------------------
  NOs
    Occupation of frontier NOs:
       0.9397   1.0288
    Number of electrons: 16.000000
    Number of unpaired electrons: n_u =  2.31944, n_u,nl =  2.04979
    NO participation ratio (PR_NO):  2.920706
  
  
  Mulliken Population Analysis
  Atom      Charge (e)              h+              e-           Del q
  --------------------------------------------------------------------
   1 H       -0.146594        0.045969       -0.243673       -0.197704
   2 C        0.271990        0.496876       -0.122530        0.374346
   3 H       -0.127090        0.046939       -0.225497       -0.178558
   4 C        0.272065        0.495852       -0.122802        0.373050
   5 H       -0.137740        0.047114       -0.235014       -0.187900
   6 H       -0.132631        0.045972       -0.229205       -0.183233
  --------------------------------------------------------------------
  Sum:       -0.000000        1.178721       -1.178721       -0.000000
  
  Multipole moment analysis of the density matrix
    Molecular charge:                      -0.000000
    Number of electrons:                   16.000000
      Center of electronic charge [Ang]: [ -1.559279,  -0.064730,  -0.000893]
    Total nuclear charge:                  16.000000
      Center of nuclear charge [Ang]:    [ -1.560576,  -0.065602,  -0.000522]
    Dipole moment [D]:                     0.123464
      Cartesian components [D]:          [ -0.099658,  -0.067065,   0.028529]
    RMS size of the density [Ang]:         1.277219
      Cartesian components [Ang]:        [  0.857667,   0.840556,   0.434927]
  
  Exciton analysis of the difference density matrix
    <r_h> [Ang]:                  [ -1.559317,  -0.065356,   0.003249]
    <r_e> [Ang]:                  [ -1.541913,  -0.052521,  -0.006403]
    |<r_e - r_h>| [Ang]:            0.023682
    Hole size [Ang]:                1.395201
      Cartesian components [Ang]: [  0.818320,   0.807872,   0.790115]
    Electron size [Ang]:            2.123170
      Cartesian components [Ang]: [  1.431624,   1.412210,   0.681150]

  Transition density matrix analysis:
  -----------------------------------
  
  CT numbers (Mulliken)
    omega =     0.9298
    <Phe> =    -0.0138
  
  Exciton analysis of the transition density matrix
    Trans. dipole moment [D]:             0.105670
      Cartesian components [D]:         [  0.075695,  -0.073410,  -0.006887]
    <r_h> [Ang]:                        [ -1.560570,  -0.066166,   0.005068]
    <r_e> [Ang]:                        [ -1.538462,  -0.050000,  -0.007633]
    |<r_e - r_h>| [Ang]:                  0.030190
    Hole size [Ang]:                      1.228432
      Cartesian components [Ang]:       [  0.658722,   0.651454,   0.806683]
    Electron size [Ang]:                  2.260374
      Cartesian components [Ang]:       [  1.524263,   1.504165,   0.723466]
    RMS electron-hole separation [Ang]:   2.561973
      Cartesian components [Ang]:       [  1.652093,   1.631268,   1.083173]
    Covariance(r_h, r_e) [Ang^2]:         0.027769
    Correlation coefficient:              0.010001
    Center-of-mass size [Ang]:            1.291692
      Cartesian components [Ang]:       [  0.834515,   0.823564,   0.542028]

  Decomposition into state-averaged NTOs
    H- 0 -> L+ 2: -0.6644 ( 88.3%)
    H- 1 -> L+ 0: -0.1498 (  4.5%)
                   omega =  93.0%
  ----------------------------------------------------------------------------


  Excited state 5 (singlet, A)                                     [converged]
  ----------------------------------------------------------------------------
  Term symbol:  6 (1) A                                     R^2 =  7.34933e-13

  Total energy:                                            -77.9445122656 a.u.
  Excitation energy:                                              10.206970 eV

  Osc. strength:                                                      0.000034
  Trans. dip. moment [a.u.]:           [   0.006867,    0.009365,    0.001749]
  <i|r^2|0> [a.u.]:                    [  -0.056664,    0.121946,   -0.030097]
  Two-photon absorption cross-section (SoS) [a.u.]:                 176.937996
  Two-photon absorption matrix (SoS) [a.u.]:
                                       |   -0.445592   -0.014984    3.370444 |
                                       |   -0.014984    0.352783   -3.252403 |
                                       |    3.370444   -3.252403   -0.115452 |
  Two-photon absorption cross-section [a.u.]:                        79.114618
[...]
    16   -1.390474507729e-03
    17   -2.980007740568e-03
    18   -2.970590282257e-04
    19   -3.309827934637e-03
    20    1.133191336812e-02
    21    9.377940912049e-01
    22   -3.016469421591e-04
    23    1.391993213577e-02
    24    1.454520486910e-03
    25    7.002923963888e-02
    26   -5.204534228794e-02
    27   -1.394937661100e+00
    28    9.837122602189e-02
    29   -9.199234563407e-02
    30   -4.079167400618e-03
    31    3.866312358665e-01
    32   -3.597602228090e-01
    33   -1.611093685314e-02
    34    1.560798875797e-02
    35   -1.057938898182e-03
    36   -1.898390971515e-03
    37   -2.225503033610e-05
    38   -3.093480995936e-03
    39    9.504248062596e-03
    40    9.260582605503e-01
    41    2.820422699324e-04
    42   -1.385290413364e-02
    43   -8.973731210323e-04
    44    1.034393500428e-02
    45    9.409095372066e-01
    46    1.413189609348e-02
    47    3.860177542856e-04
    48    4.860377539683e-04
Sym=X
Ene= 0.232827
Spin=Alpha
Occup=0
     1    2.577372606503e-02
     2    1.222487599971e+00
     3   -1.414486438368e-02
     4   -3.728682936335e-03
     5   -1.167207996640e-03
     6    1.997438835507e-03
     7   -2.400336750408e-03
     8   -3.357592759196e-02
     9   -1.542159603939e-01
    10   -1.590193979041e-01
    11   -2.428466464333e-02
    12   -5.542313700087e-01
    13   -5.577044346915e-01
    14   -8.904920565253e-02
    15    4.580732419647e-04
    16    1.905567840179e-04
    17    6.901112569108e-04
    18   -1.521751494998e-04
    19   -3.149851499990e-04
    20   -2.564040319820e-02
    21   -1.169917266168e+00
    22   -2.553531872955e-03
    23   -1.361051803729e-02
    24   -1.489228184509e-03
    25   -1.212769834873e-03
    26    1.843892526002e-03
    27    1.111054771438e-02
    28   -1.527263001015e-01
    29   -1.602238985221e-01
    30   -1.394770376281e-02
    31   -5.431875544962e-01
    32   -5.600884921283e-01
    33   -4.605544042443e-02
    34   -1.238634225215e-04
    35   -4.282917545467e-04
    36    2.132884361359e-06
    37    3.354834739673e-04
    38    1.545316145166e-04
    39    2.551514477081e-02
    40    1.176758144674e+00
    41   -2.585900328017e-03
    42   -1.391224653151e-02
    43   -8.963318068105e-04
    44   -2.609558602164e-02
    45   -1.201535631777e+00
    46   -1.392215702109e-02
    47   -3.643887065681e-03
    48   -6.016796041147e-04
Sym=X
Ene= 0.239312
Spin=Alpha
Occup=0
     1   -1.662008876731e-02
     2   -1.067502022475e+00
     3    1.670480095680e-02
     4    9.088444048055e-03
     5    1.150028673993e-03
     6   -8.642906351194e-02
     7    7.977748245357e-02
     8    1.586769994683e+00
     9    5.543150066693e-02
    10   -5.799123489863e-02
    11   -7.496084746300e-03
    12    2.194695904189e-01
    13   -2.238713717771e-01
    14   -2.885086129337e-02
    15   -2.223000476827e-02
    16    2.663665316664e-03
    17    4.067937438535e-03
    18   -3.050838597103e-04
    19    1.279720362940e-02
    20   -1.700642671244e-02
    21   -1.101041389353e+00
    22   -8.436044288056e-03
    23   -1.728965775296e-02
    24   -2.191773353510e-03
    25    8.664969490499e-02
    26   -7.950756788008e-02
    27   -1.600152497733e+00
    28    5.586855985488e-02
    29   -5.902597251773e-02
    30    1.236369055173e-03
    31    2.197767707586e-01
    32   -2.339773047054e-01
    33    7.148846018506e-03
    34    2.260908806197e-02
    35   -3.073776068552e-03
    36   -2.918055307235e-03
    37    6.932572558501e-04
    38   -1.280671543835e-02
    39    1.670617077557e-02
    40    1.115060503381e+00
    41   -8.591079747670e-03
    42   -1.770724113177e-02
    43   -1.448127685817e-03
    44    1.583966864523e-02
    45    1.069402891253e+00
    46    1.666848617965e-02
    47    9.303645440474e-03
    48    1.558790741587e-03
Sym=X
Ene= 0.303231
Spin=Alpha
Occup=0
     1   -2.100763387222e-02
     2    1.689398265583e+00
     3   -2.290647020003e-02
     4    1.991511265250e-04
     5   -1.198956176193e-03
     6   -1.780070136707e-04
     7    1.719867715741e-04
     8   -3.922868877242e-03
     9   -1.335684876468e-01
    10   -1.392204475719e-01
    11   -1.968177344999e-02
    12   -1.142219615477e+00
    13   -1.189102061928e+00
    14   -1.526250450441e-01
    15    2.861806928405e-04
    16   -9.307757505292e-04
    17    3.387696384529e-03
    18   -3.247421824887e-02
    19   -1.812570131868e-03
    20    1.948842741420e-02
    21   -1.681241610087e+00
    22    1.426351021910e-03
    23   -2.282264253409e-02
    24   -1.943571200350e-03
    25    1.022313252079e-04
    26    2.355784412915e-04
    27   -9.298691504208e-03
    28    1.349999429899e-01
    29    1.405142083849e-01
    30    1.382851567940e-02
    31    1.139791626511e+00
    32    1.197282464876e+00
    33    1.328037467276e-01
    34    4.546664117531e-06
    35   -2.067399851329e-03
    36    1.610527924207e-03
    37   -3.254867018933e-02
    38   -1.660992696034e-03
    39    1.977093566780e-02
    40   -1.693036656887e+00
    41   -1.603685624339e-03
    42    2.287445971158e-02
    43    1.066811805555e-03
    44   -2.031484370326e-02
    45    1.699750657599e+00
    46    2.305062239337e-02
    47   -3.720279428981e-04
    48    1.187251143908e-03
Sym=X
Ene= 0.461885
Spin=Alpha
Occup=0
     1   -1.156359122555e-01
     2   -7.160938849243e-01
     3   -1.561145046045e-02
     4   -1.033902300546e-02
     5   -2.035715865120e-03
     6    6.083976333955e-02
     7    1.758930726989e-02
     8   -3.594501454889e+00
     9    1.033204444351e-01
    10   -9.846659912881e-02
    11   -7.748679078831e-03
    12    2.426901448756e+00
    13   -2.297696657658e+00
    14   -3.619209376034e-02
    15    5.347168336256e-02
    16   -4.602237721122e-03
    17   -6.480912275736e-03
    18   -6.954549993660e-04
    19    1.821959662192e-02
    20   -1.227874483882e-01
    21   -6.932259752301e-01
    22    8.694050178652e-03
    23    1.634776105097e-02
    24    1.769804295559e-03
    25   -6.090977463242e-02
    26   -1.631972282103e-02
    27    3.589571525152e+00
    28    1.052246046325e-01
    29   -1.003196297029e-01
    30   -2.559835766184e-03
    31    2.419956278207e+00
    32   -2.298238157946e+00
    33   -1.310034125076e-02
    34   -5.274089075662e-02
    35    2.117933055172e-03
    36    4.841750389451e-03
    37    7.431080766325e-04
    38   -1.903650455690e-02
    39    1.151086621646e-01
    40    7.093046747402e-01
    41    8.554105112589e-03
    42    1.624915664382e-02
    43    1.299013529805e-03
    44    1.104463648980e-01
    45    7.166304794668e-01
    46   -1.546173416817e-02
    47   -9.953325597599e-03
    48   -1.118168330953e-03
Sym=X
Ene= 0.577460
Spin=Alpha
Occup=0
     1    2.476027208291e-01
     2    4.071157534469e-02
     3   -1.841177015205e-02
     4    2.557783653805e-02
     5    1.325525450185e-03
     6   -4.425746985939e-03
     7   -1.572783717227e-01
     8   -4.662707769604e-01
     9    2.987972685880e-01
    10   -2.880142223548e-01
    11   -3.193888615214e-03
    12   -7.189903706656e-01
    13    6.903202040930e-01
    14    1.912543144736e-02
    15   -5.905108111185e-03
    16    4.693939000159e-03
    17    4.232695015234e-03
    18   -4.426082397908e-03
    19    6.021845482398e-02
    20    2.551416460026e-01
    21    2.380706542163e-02
    22   -2.670356659956e-02
    23    1.667686936026e-02
    24    1.568325216944e-04
    25   -5.680719376979e-03
    26   -1.578756857043e-01
    27   -4.061920200312e-01
    28   -2.971465118736e-01
    29    2.851406208933e-01
    30    3.493539597790e-03
    31    7.651510099304e-01
    32   -7.347147623523e-01
    33   -1.413123847976e-02
    34   -5.816901682416e-03
    35    4.572611056157e-03
    36    3.985191786969e-03
    37   -4.117095355698e-03
    38    6.014361801872e-02
    39    2.516263846603e-01
    40    5.000741740670e-02
    41    2.720219818692e-02
    42   -1.688518454023e-02
    43    2.211998407682e-04
    44    2.484554656104e-01
    45    5.780192604760e-02
    46    1.850525786580e-02
    47   -2.590388525761e-02
    48   -7.448897175257e-04
Sym=X
Ene= 0.615198
Spin=Alpha
Occup=0
     1   -5.213924129674e-01
     2    2.003395644088e-01
     3   -6.147388407536e-02
     4    3.762204740899e-02
     5    7.870336090205e-04
     6   -6.227140871741e-04
     7   -1.237704364810e-03
     8   -1.515006920270e-02
     9   -3.966984541640e-02
    10   -3.775931222356e-02
    11   -3.300874852947e-03
    12    3.035466650019e-01
    13    2.703220386258e-01
    14    4.732330647344e-02
    15    2.409826845013e-03
    16   -5.596530070414e-03
    17    1.315449615871e-02
    18   -1.480886502880e-01
    19   -6.457469664373e-03
    20    5.099382928606e-01
    21   -2.140723768870e-01
    22    4.191641316807e-02
    23   -5.850446282995e-02
    24   -2.596007704081e-03
    25    4.092790209732e-04
    26   -1.236652119595e-03
    27    2.772671654560e-02
    28   -4.026842527718e-02
    29   -3.981118735316e-02
    30   -6.438981534753e-03
    31    3.088653413735e-01
    32    2.882054083758e-01
    33    2.369571314527e-02
    34   -1.480904086932e-03
    35    8.885432908889e-03
    36   -8.755428303412e-03
    37    1.490933964827e-01
    38    6.316459975546e-03
    39   -5.141290392671e-01
    40    2.076679766984e-01
    41    4.095421205490e-02
    42   -5.853209177121e-02
    43   -2.022163040311e-03
    44    5.225236903171e-01
    45   -2.023190840657e-01
    46   -6.146256235288e-02
    47    3.755869567098e-02
    48   -1.193428864200e-03
Sym=X
Ene= 0.689139
Spin=Alpha
Occup=0
     1   -3.493666971672e-05
     2    7.717354583993e-03
     3   -1.089492808768e-03
     4    2.420078711149e-03
     5   -2.105682859260e-02
     6   -1.155944962421e-04
     7   -1.077091993099e-02
     8    1.323629489993e-02
     9    4.037697872608e-02
    10    5.212615207476e-02
    11   -6.689637367643e-01
    12   -5.459129887530e-02
    13   -3.551142569438e-02
    14    6.121190257549e-01
    15    1.285847157730e-03
    16    8.245906632651e-02
    17   -7.864399361463e-02
    18   -7.938341623219e-03
    19   -1.136870498010e-03
    20   -2.435553562777e-03
    21    1.789438619213e-02
    22    1.766791742055e-03
    23    4.655030281072e-03
    24   -1.996110133264e-02
    25   -6.313684981018e-04
    26   -5.676845802226e-03
    27   -3.414042745688e-03
    28    2.690437452643e-02
    29    4.383188404108e-02
    30   -6.700255475267e-01
    31   -3.782989968117e-02
    32   -2.317456747300e-02
    33    6.137132691806e-01
    34    3.957224475674e-03
    35   -8.294874484810e-02
    36    7.787886621200e-02
    37    1.174700580591e-02
    38   -6.330391208069e-04
    39   -1.104436332800e-02
    40    1.979147390791e-03
    41   -8.863980476922e-04
    42   -6.108523806670e-04
    43   -2.125764871816e-02
    44   -8.939554822512e-03
    45   -8.283663256472e-03
    46    2.027140842680e-03
    47    1.718308356565e-03
    48   -2.097015196953e-02
Sym=X
Ene= 0.708569
Spin=Alpha
Occup=0
     1   -4.776710987036e-01
     2    1.589962825053e-01
     3   -8.082372532193e-02
     4   -4.406603047202e-02
     5   -8.215868519133e-03
     6   -4.808982620800e-02
     7   -3.172458632718e-01
     8    5.103489303001e-01
     9    2.018531443917e-01
    10   -1.947162878274e-01
    11    6.311999499790e-03
    12   -9.856505793027e-02
    13    9.365901496845e-02
    14   -2.114034292681e-02
    15    1.933419093577e-01
    16   -2.469006302239e-02
    17   -3.026783640566e-02
    18    2.995099202434e-03
    19   -7.716648270489e-02
    20   -4.817885161037e-01
    21    1.620996673490e-01
    22    4.098081615539e-02
    23    8.192717898030e-02
    24    8.476843046728e-03
    25   -4.629869441407e-02
    26   -3.212832006564e-01
    27    4.544655060858e-01
    28   -2.052239538437e-01
    29    1.914216261981e-01
    30    1.205398284668e-02
    31    6.122441561597e-02
    32   -4.741961976100e-02
    33   -4.311807359836e-04
    34    1.925427503640e-01
    35   -2.090527137123e-02
    36   -2.526099881831e-02
    37    2.381513891857e-03
    38   -7.515432860647e-02
    39   -4.709974225349e-01
    40    1.324339846628e-01
    41   -4.039179326845e-02
    42   -8.066961374747e-02
    43   -6.036337873719e-03
    44   -4.709160181972e-01
    45    1.429885392444e-01
    46    7.997234878026e-02
    47    4.392049298405e-02
    48    7.408544637339e-03
Sym=X
Ene= 0.784141
Spin=Alpha
Occup=0
     1    5.235732389347e-01
     2   -4.644539599263e-01
     3    1.090659083861e-01
     4    2.547649195024e-02
     5    8.190055837510e-03
     6    9.055156195179e-02
     7   -2.201489723694e-01
     8   -6.365370046984e-01
     9    1.140958777367e-01
    10   -1.013952416455e-01
    11   -1.540227815396e-02
    12    3.135990268923e-01
    13   -3.083180839007e-01
    14    2.827522147388e-02
    15   -2.032247655645e-01
    16    1.895494957520e-02
    17    3.305176197683e-02
    18   -1.179543612323e-03
    19    8.699605550040e-03
    20    5.357334121816e-01
    21   -4.814338587398e-01
    22   -2.038604736149e-02
    23   -1.121065442106e-01
    24   -1.062759373836e-02
    25   -9.154269533268e-02
    26    2.101293291860e-01
    27    6.651287919857e-01
    28    1.099404420229e-01
    29   -1.048916689749e-01
    30    1.799587415385e-02
    31    3.138669457056e-01
    32   -2.901621220244e-01
    33   -3.701429492841e-02
    34    2.085778423503e-01
    35   -1.681803736722e-02
    36   -2.111140713729e-02
    37    2.312604241483e-03
    38   -9.666644800219e-03
    39   -5.426763918115e-01
    40    4.692939283166e-01
    41   -2.102919028703e-02
    42   -1.132672041633e-01
    43   -7.349591864220e-03
    44   -5.343723117961e-01
    45    4.651150658376e-01
    46    1.101152220488e-01
    47    2.677576926058e-02
    48    6.863089458874e-03
Sym=X
Ene= 0.807930
Spin=Alpha
Occup=0
     1   -1.086542324181e-02
     2    2.791355013603e-02
     3   -4.498204197016e-03
     4    2.208462535913e-03
     5   -3.416200305761e-02
     6   -1.835280539055e-03
     7    2.647530820574e-05
     8    5.505981915503e-03
     9    4.224377354025e-02
    10    6.895238584087e-02
    11   -7.608127494121e-01
    12   -7.762823404325e-02
    13   -9.028479031681e-02
    14    1.123157547060e+00
    15    7.525280610806e-03
    16   -6.594955980240e-02
    17    6.116412256069e-02
    18    4.041323676155e-03
    19    1.812857900309e-03
    20   -1.043604244589e-02
    21    6.426227193305e-04
    22   -2.334073187720e-04
    23    5.982373377602e-03
    24   -3.376313669645e-02
    25    2.236310800959e-03
    26   -8.651505059136e-03
    27   -1.338988486620e-03
    28   -3.734298974456e-02
    29   -3.709950116004e-02
    30    7.634100049103e-01
    31    4.132312146395e-02
    32    6.388873576942e-02
    33   -1.127042104481e+00
    34   -4.825289448200e-03
    35   -6.466222878191e-02
    36    6.205707408950e-02
    37    1.146487892511e-02
    38   -5.200554178630e-04
    39    1.067290478635e-02
    40    2.383793575050e-03
    41   -3.032057845032e-03
    42   -1.014697511624e-03
    43    3.424839533561e-02
    44    1.088885382003e-02
    45   -2.573950198675e-02
    46   -5.852626234139e-03
    47   -3.159272828595e-03
    48    3.349725972199e-02
Sym=X
Ene= 0.862028
Spin=Alpha
Occup=0
     1    1.654040140084e-02
     2   -1.098584655504e+00
     3    1.492740118459e-01
     4    5.644506665036e-02
     5    1.097874286659e-02
     6    7.765475447578e-04
     7    1.959962702539e-03
     8    7.072268788326e-04
     9   -4.065625525779e-01
    10   -4.314939782329e-01
    11   -6.693410317971e-02
    12    9.477522445465e-01
    13    1.000676150541e+00
    14    1.542308811205e-01
    15   -3.183376164959e-03
    16    1.146119087020e-02
    17   -1.742466237509e-02
    18    2.345892248376e-01
    19    9.121237625058e-03
    20   -1.276834716109e-02
    21    1.104437486755e+00
    22    5.050774707584e-02
    23    1.509719552368e-01
    24    1.626589943907e-02
    25   -4.055712939945e-04
    26    4.524856717740e-03
    27   -5.271261753876e-03
    28   -4.038390828532e-01
    29   -4.293620125419e-01
    30   -3.557270410212e-02
    31    9.421907937223e-01
    32    1.000066900314e+00
    33    8.427306247065e-02
    34    1.322071459319e-03
    35   -1.200716215111e-02
    36    1.685303525176e-02
    37   -2.355156689356e-01
    38   -9.703299175137e-03
    39    9.298224066412e-03
    40   -1.096292915136e+00
    41    4.911627447772e-02
    42    1.503396018132e-01
    43    1.243756446037e-02
    44   -1.112185277449e-02
    45    1.090973417212e+00
    46    1.483035710650e-01
    47    5.572717690889e-02
    48    9.962057749745e-03
Sym=X
Ene= 0.935427
Spin=Alpha
Occup=0
     1   -1.143632734092e-01
     2    1.260493345568e+00
     3   -1.793086863882e-01
     4    6.761624064803e-03
     5   -9.845073490831e-03
     6   -7.128909298699e-04
     7   -1.109489780842e-02
     8    3.535646663204e-03
     9    4.649142134304e-01
    10    5.026047864437e-01
    11    6.444294097753e-02
    12   -1.441856854002e+00
    13   -1.544975055542e+00
    14   -1.976367261258e-01
    15    1.773291960708e-03
    16   -6.735138969480e-03
    17    1.229213592363e-02
    18   -1.181786026071e-01
    19    9.246633233448e-04
    20    1.170615550066e-01
    21   -1.287960620081e+00
    22    1.049752579529e-02
    23   -1.827194139857e-01
    24   -1.448622167042e-02
    25    4.344368930592e-04
    26   -5.134044001781e-03
    27    1.632962055509e-02
    28   -4.806936257122e-01
    29   -4.944891741764e-01
    30   -5.436891858167e-02
    31    1.483333698163e+00
    32    1.522067425771e+00
    33    1.690019043265e-01
    34   -1.967744867821e-03
    35   -7.200074668512e-03
    36    3.110145872409e-03
    37   -1.220800323400e-01
    38   -7.140937301302e-03
    39    1.180280260501e-01
    40   -1.281285395549e+00
    41   -1.387712604239e-02
    42    1.827489548174e-01
    43    8.753401770939e-03
    44   -1.160266964718e-01
    45    1.294334263275e+00
    46    1.825390650671e-01
    47   -4.697455892801e-03
    48    9.369268327317e-03
Sym=X
Ene= 0.972241
Spin=Alpha
Occup=0
     1   -6.460774850322e-02
     2    9.484750126415e-01
     3   -9.396593277843e-02
     4   -9.883772543569e-02
     5   -9.558002569082e-03
     6    2.560249259888e-02
     7    2.603515043974e-01
     8    5.062644197601e-01
     9    4.887805903221e-01
    10   -4.488599110968e-01
    11   -1.397580087020e-02
    12   -1.518264303983e+00
    13    1.383585657233e+00
    14    3.801970146587e-02
    15   -5.529855828677e-02
    16   -1.303651774518e-02
    17   -1.222765190350e-02
    18    1.070678251550e-02
    19   -3.022615557491e-01
    20   -6.162380027977e-02
    21    8.914648811524e-01
    22    9.519874136354e-02
    23    9.026876430244e-02
    24    1.440339819825e-02
    25   -2.521529180360e-02
    26   -2.298192682850e-01
    27   -5.566984890188e-01
    28    4.724269902613e-01
    29   -4.592183228132e-01
    30   -2.790043769904e-03
    31   -1.462646242020e+00
    32    1.430535000934e+00
    33    8.879186944808e-03
    34    5.332373050525e-02
    35    1.366948429762e-02
    36    1.192531554552e-02
    37   -1.469154171998e-02
    38    2.981170862651e-01
    39    6.163757835224e-02
    40   -9.161605634993e-01
    41    9.365199387705e-02
    42    9.341553295742e-02
    43    1.105652937185e-02
    44    6.507927360847e-02
    45   -8.914025896345e-01
    46   -8.613059471428e-02
    47   -9.741761521549e-02
    48   -1.080041067663e-02
[5D]

======= END OF MOLDEN-FORMATTED INPUT FILE =======


        *************************************************************
        *                                                           *
        *  Thank you very much for using Q-Chem.  Have a nice day.  *
        *                                                           *
        *************************************************************


