                  Welcome to Q-Chem
     A Quantum Leap Into The Future Of Chemistry


 Q-Chem 5.4 (devel), Q-Chem, Inc., Pleasanton, CA (2021)

 E. Epifanovsky,  A. T. B. Gilbert,  Xintian Feng,  Joonho Lee,  Yuezhi Mao,  
 N. Mardirossian,  P. Pokhilko,  A. White,  M. Wormit,  M. P. Coons,  
 A. L. Dempwolff,  Zhengting Gan,  D. Hait,  P. R. Horn,  L. D. Jacobson,  
 I. Kaliman,  J. Kussmann,  A. W. Lange,  Ka Un Lao,  D. S. Levine,  Jie Liu,  
 S. C. McKenzie,  A. F. Morrison,  K. Nanda,  F. Plasser,  D. R. Rehn,  
 M. L. Vidal,  Zhi-Qiang You,  Ying Zhu,  B. Alam,  B. Albrecht,  
 A. Aldossary,  E. Alguire,  J. H. Andersen,  D. Barton,  K. Begam,  A. Behn,  
 Y. A. Bernard,  E. J. Berquist,  H. Burton,  A. Carreras,  K. Carter-Fenk,  
 R. Chakraborty,  A. D. Chien,  K. D. Closser,  V. Cofer-Shabica,  
 S. Dasgupta,  Jia Deng,  M. de Wergifosse,  M. Diedenhofen,  Hainam Do,  
 S. Ehlert,  Po-Tung Fang,  S. Fatehi,  Qingguo Feng,  T. Friedhoff,  
 J. Gayvert,  Qinghui Ge,  G. Gidofalvi,  M. Goldey,  J. Gomes,  
 C. Gonzalez-Espinoza,  S. Gulania,  A. Gunina,  M. W. D. Hanson-Heine,  
 P. H. P. Harbach,  A. W. Hauser,  M. F. Herbst,  M. Hernandez Vera,  
 M. Hodecker,  Z. C. Holden,  S. Houck,  Xunkun Huang,  Kerwin Hui,  
 B. C. Huynh,  M. Ivanov,  Hyunjun Ji,  Hanjie Jiang,  B. Kaduk,  S. Kaehler,  
 K. Khistyaev,  Jaehoon Kim,  P. Klunzinger,  Z. Koczor-Benda,  
 Joong Hoon Koh,  D. Kosenkov,  L. Koulias,  T. Kowalczyk,  C. M. Krauter,  
 K. Kue,  A. Kunitsa,  T. Kus,  A. Landau,  K. V. Lawler,  D. Lefrancois,  
 S. Lehtola,  Rain Li,  Yi-Pei Li,  Jiashu Liang,  M. Liebenthal,  
 Hung-Hsuan Lin,  You-Sheng Lin,  Fenglai Liu,  Kuan-Yu Liu,  
 M. Loipersberger,  A. Luenser,  A. Manjanath,  P. Manohar,  E. Mansoor,  
 S. F. Manzer,  Shan-Ping Mao,  A. V. Marenich,  T. Markovich,  S. Mason,  
 S. A. Maurer,  P. F. McLaughlin,  M. F. S. J. Menger,  J.-M. Mewes,  
 S. A. Mewes,  P. Morgante,  J. W. Mullinax,  K. J. Oosterbaan,  G. Paran,  
 Alexander C. Paul,  Suranjan K. Paul,  F. Pavosevic,  Zheng Pei,  S. Prager,  
 E. I. Proynov,  E. Ramos,  B. Rana,  A. E. Rask,  A. Rettig,  R. M. Richard,  
 F. Rob,  E. Rossomme,  T. Scheele,  M. Scheurer,  M. Schneider,  
 N. Sergueev,  S. M. Sharada,  W. Skomorowski,  D. W. Small,  C. J. Stein,  
 Yu-Chuan Su,  E. J. Sundstrom,  Zhen Tao,  J. Thirman,  T. Tsuchimochi,  
 N. M. Tubman,  S. P. Veccham,  O. Vydrov,  J. Wenzel,  J. Witte,  A. Yamada,  
 Kun Yao,  S. Yeganeh,  S. R. Yost,  A. Zech,  Igor Ying Zhang,  Xing Zhang,  
 Yu Zhang,  D. Zuev,  A. Aspuru-Guzik,  A. T. Bell,  N. A. Besley,  
 K. B. Bravaya,  B. R. Brooks,  D. Casanova,  Jeng-Da Chai,  S. Coriani,  
 C. J. Cramer,  A. E. DePrince, III,  R. A. DiStasio Jr.,  A. Dreuw,  
 B. D. Dunietz,  T. R. Furlani,  W. A. Goddard III,  S. Grimme,  
 S. Hammes-Schiffer,  T. Head-Gordon,  W. J. Hehre,  Chao-Ping Hsu,  
 T.-C. Jagau,  Yousung Jung,  A. Klamt,  Jing Kong,  D. S. Lambrecht,  
 WanZhen Liang,  N. J. Mayhall,  C. W. McCurdy,  J. B. Neaton,  
 C. Ochsenfeld,  J. A. Parkhill,  R. Peverati,  V. A. Rassolov,  Yihan Shao,  
 L. V. Slipchenko,  T. Stauch,  R. P. Steele,  J. E. Subotnik,  
 A. J. W. Thom,  A. Tkatchenko,  D. G. Truhlar,  T. Van Voorhis,  
 T. A. Wesolowski,  K. B. Whaley,  H. L. Woodcock III,  P. M. Zimmerman,  
 S. Faraji,  P. M. W. Gill,  M. Head-Gordon,  J. M. Herbert,  A. I. Krylov

 Additional authors for Version 5.4.1: 
 S. Kotaru,  Shaozhi Li,  Xiangyuan Li,  F. Matz,  A. Molle,  Haisheng Ren,  
 Yingli Su,  Hung-Yi Tsai,  C. Utku,  Fang Wang

 Contributors to earlier versions of Q-Chem not listed above: 
 R. D. Adamson,  B. Austin,  R. Baer,  J. Baker,  G. J. O. Beran,  
 K. Brandhorst,  S. T. Brown,  E. F. C. Byrd,  A. K. Chakraborty,  
 G. K. L. Chan,  Chun-Min Chang,  Yunqing Chen,  C.-L. Cheng,  
 Siu Hung Chien,  D. M. Chipman,  D. L. Crittenden,  H. Dachsel,  
 R. J. Doerksen,  A. D. Dutoi,  R. G. Edgar,  J. Fosso-Tande,  
 L. Fusti-Molnar,  D. Ghosh,  A. Ghysels,  A. Golubeva-Zadorozhnaya,  
 J. Gonthier,  M. S. Gordon,  S. R. Gwaltney,  G. Hawkins,  J. E. Herr,  
 A. Heyden,  S. Hirata,  E. G. Hohenstein,  G. Kedziora,  F. J. Keil,  
 C. Kelley,  Jihan Kim,  R. A. King,  R. Z. Khaliullin,  P. P. Korambath,  
 W. Kurlancheek,  A. Laurent,  A. M. Lee,  M. S. Lee,  S. V. Levchenko,  
 Ching Yeh Lin,  D. Liotard,  E. Livshits,  R. C. Lochan,  I. Lotan,  
 L. A. Martinez-Martinez,  P. E. Maslen,  N. Nair,  D. P. O'Neill,  
 D. Neuhauser,  E. Neuscamman,  C. M. Oana,  R. Olivares-Amaya,  R. Olson,  
 T. M. Perrine,  B. Peters,  P. A. Pieniazek,  A. Prociuk,  Y. M. Rhee,  
 J. Ritchie,  M. A. Rohrdanz,  E. Rosta,  N. J. Russ,  H. F. Schaefer III,  
 M. W. Schmidt,  N. E. Schultz,  S. Sharma,  N. Shenvi,  C. D. Sherrill,  
 A. C. Simmonett,  A. Sodt,  T. Stein,  D. Stuck,  K. S. Thanthiriwatte,  
 V. Vanovschi,  L. Vogt,  Tao Wang,  A. Warshel,  M. A. Watson,  
 C. F. Williams,  Q. Wu,  X. Xu,  Jun Yang,  W. Zhang,  Yan Zhao

 Please cite Q-Chem as follows:
 Y. Shao et al., Mol. Phys. 113, 184-215 (2015)
 DOI: 10.1080/00268976.2014.952696

 Q-Chem 5.4.1 for Intel X86 EM64T Linux

 Parts of Q-Chem use Armadillo 9.800.1 (Horizon Scraper).
 http://arma.sourceforge.net/

 Q-Chem begins on Thu Nov 17 15:41:06 2022  

 Host: cpu185.baobab
0

     Scratch files written to /scratch/fum/qchem21781//
 Processing $rem in /home/share/wesolowski/qc5.aug2021.FDE/config/preferences:
 Processing $rem in /home/fum/.qchemrc:

 Checking the input file for inconsistencies... 	...done.

--------------------------------------------------------------
User input:
--------------------------------------------------------------
$comment
generated from CCJob.Templates
$end

$rem
sym_ignore = true
method = adc(2)
ee_states = 10
basis = cc-pVDZ
mem_static = 1024
mem_total = 40000
adc_davidson_maxiter = 900
adc_davidson_conv = 6
adc_print = 3
adc_prop_es = true
adc_prop_es2es = true
adc_prop_tpa = true
molden_format = True
state_analysis = true
print_orbitals = 15
gen_scfman = false
fde_export_density = true
fde_details = 3
$end

$molecule
0 1
H -0.0348278765 -0.2442097827 0.0636489606
C -1.0765972949 -0.5242748755 -0.0023551776
H -1.313264467 -1.5767591607 -0.0757276926
C -2.043634118 0.3926884087 0.0061254933
H -1.8137616575 1.4459188338 0.0804456828
H -3.085977293 0.114931858 -0.049338104199999996                     
$end
--------------------------------------------------------------
 ----------------------------------------------------------------
             Standard Nuclear Orientation (Angstroms)
    I     Atom           X                Y                Z
 ----------------------------------------------------------------
    1      H      -0.0348278765    -0.2442097827     0.0636489606
    2      C      -1.0765972949    -0.5242748755    -0.0023551776
    3      H      -1.3132644670    -1.5767591607    -0.0757276926
    4      C      -2.0436341180     0.3926884087     0.0061254933
    5      H      -1.8137616575     1.4459188338     0.0804456828
    6      H      -3.0859772930     0.1149318580    -0.0493381042
 ----------------------------------------------------------------
 Nuclear Repulsion Energy =          33.42547634 hartrees
 There are        8 alpha and        8 beta electrons
 Requested basis set is cc-pVDZ
 There are 24 shells and 48 basis functions
 Total memory of 40000 MB is distributed as follows: 
   MEM_STATIC is set to 1024 MB
   QALLOC/CCMAN JOB total memory use is  38976 MB
 Warning: actual memory use might exceed 40000 MB

 Total QAlloc Memory Limit  40000 MB
 Mega-Array Size      1001 MB
 MEM_STATIC part      1024 MB

                       Distance Matrix (Angstroms)
             H (  1)   C (  2)   H (  3)   C (  4)   H (  5)
   C (  2)  1.080776
   H (  3)  1.851895  1.081258
   C (  4)  2.108139  1.332687  2.102109
   H (  5)  2.453859  2.105215  3.067812  1.080583
   H (  6)  3.074290  2.109123  2.450515  1.080141  1.845780

 A cutoff of  1.0D-11 yielded    300 shell pairs
 There are      1220 function pairs (      1329 Cartesian)
 Smallest overlap matrix eigenvalue = 4.80E-03

 Scale SEOQF with 1.000000e-01/1.000000e-01/1.000000e+00

 Standard Electronic Orientation quadrupole field applied
 Nucleus-field energy     =     0.0000000022 hartrees
 Guess from superposition of atomic densities
 Warning:  Energy on first SCF cycle will be non-variational
 SAD guess density has 16.000000 electrons
 A restricted Hartree-Fock SCF calculation will be
 performed using Pulay DIIS extrapolation
 SCF converges when DIIS error is below 1.0E-08
 using 10 threads for integral computing
 -------------------------------------------------------
 OpenMP Integral computing Module                
 Release: version 1.0, May 2013, Q-Chem Inc. Pittsburgh 
 -------------------------------------------------------
 ---------------------------------------
  Cycle       Energy         DIIS Error
 ---------------------------------------
    1     -78.4392156292      1.01E-01
    2     -78.0176795907      7.21E-03
    3     -78.0383130352      1.84E-03
    4     -78.0397960179      5.73E-04
    5     -78.0399176678      5.80E-05
    6     -78.0399195445      9.41E-06
    7     -78.0399196054      2.41E-06
    8     -78.0399196084      1.02E-06
    9     -78.0399196088      9.18E-08
   10     -78.0399196088      1.26E-08
   11     -78.0399196088      3.49E-09 Convergence criterion met
 ---------------------------------------
 SCF time:  CPU 1.56 s  wall 2.90 s
 SCF   energy in the final basis set = -78.03991961
 Total energy in the final basis set = -78.03991961
Exporting Density Matrix to file 'Densmat_SCF.txt'.
Export successful
================================================================================
|                                                                              |
|                                 A D C  M A N                                 |
|                                                                              |
 ------------------------------------------------------------------------------ 
|                                                                              |
| Components:                                                                  |
|                                                                              |
| - libvmm - 1.3-trunk                                                         |
|   Authors:                                                                   |
|   Evgeny Epifanovsky, Ilya Kaliman                                           |
|                                                                              |
| - libtensor - 2.5-trunk                                                      |
|   Authors:                                                                   |
|   Evgeny Epifanovsky, Michael Wormit, Dmitry Zuev, Sam Manzer,               |
|   Ilya Kaliman                                                               |
|                                                                              |
| - libwfa - 1.1-trunk                                                         |
|   Authors:                                                                   |
|   Felix Plasser, Stefanie Mewes (Baeppler), Benjamin Thomitzni,              |
|   Michael Wormit, Feng Chen, Anna I. Krylov, Pavel Pokhilko                  |
|                                                                              |
| - libadc - 1.1-trunk                                                         |
|   Authors:                                                                   |
|   Michael Wormit, Adrian L. Dempwolff, Philipp H. P. Harbach,                |
|   Caroline Krauter, Dirk Rehn, Matthias Schneider, Jan Wenzel                |
|                                                                              |
| - adcman - 2.6-trunk                                                         |
|   Authors:                                                                   |
|   Michael Wormit, Adrian L. Dempwolff, Philipp H. P. Harbach,                |
|   Caroline Krauter, Daniel Lefrancois, Jan-Michael Mewes, Dirk Rehn,         |
|   Matthias Schneider, Jan Wenzel, Andreas Dreuw                              |
|                                                                              |
| Authors of earlier versions of ADCMAN:                                       |
| Andreas Dreuw, Jan Hendrik Starcke, Dirk Rehn, Michael Wormit                |
|                                                                              |
================================================================================

 Created directory /scratch/fum/qchem21781/plots
  Import QC data ...  CPU 0.00 s  wall 0.00 s

 Alpha MOs, Restricted
 -- Occupied --                  
-11.235 -11.233  -1.032  -0.790  -0.641  -0.582  -0.505  -0.374
  1 A     2 A     3 A     4 A     5 A     6 A     7 A     8 A                  
 -- Virtual --                   
  0.168   0.204   0.233   0.239   0.303   0.462   0.578   0.615
  9 A    10 A    11 A    12 A    13 A    14 A    15 A    16 A                  
  0.689   0.709   0.785   0.808   0.862   0.936   0.972   1.010
 17 A    18 A    19 A    20 A    21 A    22 A    23 A    24 A                  
  1.130   1.235   1.254   1.266   1.294   1.601   1.727   1.751
 25 A    26 A    27 A    28 A    29 A    30 A    31 A    32 A                  
  1.819   1.859   1.867   1.922   1.977   1.979   2.222   2.258
 33 A    34 A    35 A    36 A    37 A    38 A    39 A    40 A                  
  2.376   2.454   2.506   2.634   2.721   2.822   3.140   3.399
 41 A    42 A    43 A    44 A    45 A    46 A    47 A    48 A                  

 Beta MOs, Restricted
 -- Occupied --                  
-11.235 -11.233  -1.032  -0.790  -0.641  -0.582  -0.505  -0.374
  1 A     2 A     3 A     4 A     5 A     6 A     7 A     8 A                  
 -- Virtual --                   
  0.168   0.204   0.233   0.239   0.303   0.462   0.578   0.615
  9 A    10 A    11 A    12 A    13 A    14 A    15 A    16 A                  
  0.689   0.709   0.785   0.808   0.862   0.936   0.972   1.010
 17 A    18 A    19 A    20 A    21 A    22 A    23 A    24 A                  
  1.130   1.235   1.254   1.266   1.294   1.601   1.727   1.751
 25 A    26 A    27 A    28 A    29 A    30 A    31 A    32 A                  
  1.819   1.859   1.867   1.922   1.977   1.979   2.222   2.258
 33 A    34 A    35 A    36 A    37 A    38 A    39 A    40 A                  
  2.376   2.454   2.506   2.634   2.721   2.822   3.140   3.399
 41 A    42 A    43 A    44 A    45 A    46 A    47 A    48 A                  
  Import AO data ...  CPU 0.00 s  wall 0.01 s
  Using point group: C1
  Irreducible representations in point group: A
  Molecular orbitals: 
  Occupied MOs:
  Block   0:   1 (  A) A   2 (  A) A   3 (  A) A   4 (  A) A   5 (  A) A
                  -11.24      -11.23      -1.032     -0.7899     -0.6412
               6 (  A) A   7 (  A) A   8 (  A) A
                  -0.582     -0.5046      -0.374
  Block   1:   1 (  A) B   2 (  A) B   3 (  A) B   4 (  A) B   5 (  A) B
                  -11.24      -11.23      -1.032     -0.7899     -0.6412
               6 (  A) B   7 (  A) B   8 (  A) B
                  -0.582     -0.5046      -0.374
  Virtual MOs:
  Block   0:   9 (  A) A  10 (  A) A  11 (  A) A  12 (  A) A  13 (  A) A
                  0.1684      0.2037       0.233      0.2394      0.3033
              14 (  A) A  15 (  A) A  16 (  A) A  17 (  A) A  18 (  A) A
                  0.4621      0.5775      0.6151      0.6892       0.709
              19 (  A) A  20 (  A) A  21 (  A) A  22 (  A) A
                  0.7846       0.808      0.8623       0.936
  Block   1:  23 (  A) A  24 (  A) A  25 (  A) A  26 (  A) A  27 (  A) A
                  0.9725        1.01        1.13       1.235       1.254
              28 (  A) A  29 (  A) A  30 (  A) A  31 (  A) A  32 (  A) A
                   1.266       1.294       1.601       1.727       1.751
              33 (  A) A  34 (  A) A  35 (  A) A  36 (  A) A
                   1.819       1.859       1.867       1.922
  Block   2:  37 (  A) A  38 (  A) A  39 (  A) A  40 (  A) A  41 (  A) A
                   1.977       1.979       2.222       2.258       2.376
              42 (  A) A  43 (  A) A  44 (  A) A  45 (  A) A  46 (  A) A
                   2.454       2.506       2.634       2.721       2.822
              47 (  A) A  48 (  A) A
                    3.14       3.399
  Block   3:   9 (  A) B  10 (  A) B  11 (  A) B  12 (  A) B  13 (  A) B
                  0.1684      0.2037       0.233      0.2394      0.3033
              14 (  A) B  15 (  A) B  16 (  A) B  17 (  A) B  18 (  A) B
                  0.4621      0.5775      0.6151      0.6892       0.709
              19 (  A) B  20 (  A) B  21 (  A) B  22 (  A) B
                  0.7846       0.808      0.8623       0.936
  Block   4:  23 (  A) B  24 (  A) B  25 (  A) B  26 (  A) B  27 (  A) B
                  0.9725        1.01        1.13       1.235       1.254
              28 (  A) B  29 (  A) B  30 (  A) B  31 (  A) B  32 (  A) B
                   1.266       1.294       1.601       1.727       1.751
              33 (  A) B  34 (  A) B  35 (  A) B  36 (  A) B
                   1.819       1.859       1.867       1.922
  Block   5:  37 (  A) B  38 (  A) B  39 (  A) B  40 (  A) B  41 (  A) B
                   1.977       1.979       2.222       2.258       2.376
              42 (  A) B  43 (  A) B  44 (  A) B  45 (  A) B  46 (  A) B
                   2.454       2.506       2.634       2.721       2.822
              47 (  A) B  48 (  A) B
                    3.14       3.399
  Import MO data ...  CPU 0.01 s  wall 0.02 s
  Import HF data ...  CPU 0.08 s  wall 0.04 s
  Import 2e integrals ...  CPU 0.67 s  wall 0.12 s

--------------------------------------------------------------------------------
                                   HF Summary                                   
--------------------------------------------------------------------------------
  Energy:                                                  -78.0399196088 a.u.
  Dip. moment [a.u.]:                  [  -0.000946,    0.000526,    0.003194]
  Total dipole [Debye]:                                               0.008570
  <r^2> [a.u.]:                        [ 175.317280,   34.918871,   11.622323]
  Total <r^2> [a.u.]:                                               221.858474
--------------------------------------------------------------------------------
  HF properties ...  CPU 0.01 s  wall 0.01 s
  MP(1) calculation ...  CPU 0.01 s  wall 0.01 s
  N^6 prerequesite intermediates ...  CPU 0.51 s  wall 0.09 s
  Difference density matrix of state mp2_gs printed to ASCII file 'State_mp2_gs_Difference.txt'
Exporting MP density matrix to file 'Densmat_MP.txt'.
Export successful
  Total density matrix of state mp2_gs printed to ASCII file 'State_mp2_gs_Total.txt'
Exporting MP density matrix to file 'Densmat_MP.txt'.
Export successful

--------------------------------------------------------------------------------
                                 MP(2) Summary                                  
--------------------------------------------------------------------------------
  MP energy contribution:                                   -0.2796968568 a.u.
  Total energy:                                            -78.3196164656 a.u.
  Dip. moment [a.u.]:                  [  -0.000916,    0.000438,    0.003149]
  Total dipole [Debye]:                                               0.008409
  <r^2> [a.u.]:                        [ 175.364221,   34.959485,   11.454140]
  Total <r^2> [a.u.]:                                               221.777846

  Density matrix analysis:
  ------------------------
  NOs
    Occupation of frontier NOs:
       0.0453   1.9383
    Number of electrons: 16.000000
    Number of unpaired electrons: n_u =  0.40339, n_u,nl =  0.04507
    NO participation ratio (PR_NO): 13.856960
  
  
  Mulliken Population Analysis
  Atom      Charge (e)              h+              e-           Del q
  --------------------------------------------------------------------
   1 H        0.050955        0.014031       -0.011202        0.002829
   2 C       -0.100805        0.093232       -0.098847       -0.005615
   3 H        0.050544        0.014074       -0.011191        0.002883
   4 C       -0.101196        0.092941       -0.098885       -0.005944
   5 H        0.050093        0.014126       -0.011182        0.002944
   6 H        0.050410        0.014093       -0.011189        0.002903
  --------------------------------------------------------------------
  Sum:       -0.000000        0.242495       -0.242495        0.000000
  
  Multipole moment analysis of the density matrix
    Molecular charge:                      -0.000000
    Number of electrons:                   16.000000
      Center of electronic charge [Ang]: [ -1.560546,  -0.065617,   0.002499]
    Total nuclear charge:                  16.000000
      Center of nuclear charge [Ang]:    [ -1.560576,  -0.065602,   0.002603]
    Dipole moment [D]:                     0.008409
      Cartesian components [D]:          [ -0.002329,   0.001113,   0.008003]
    RMS size of the density [Ang]:         1.200788
      Cartesian components [Ang]:        [  0.796168,   0.779453,   0.447729]
  
  Exciton analysis of the difference density matrix
    <r_h> [Ang]:                  [ -1.560301,  -0.065872,   0.001980]
    <r_e> [Ang]:                  [ -1.560365,  -0.065680,   0.002078]
    |<r_e - r_h>| [Ang]:            0.000225
    Hole size [Ang]:                1.393639
      Cartesian components [Ang]: [  0.846550,   0.834153,   0.727855]
    Electron size [Ang]:            1.359760
      Cartesian components [Ang]: [  0.877869,   0.861822,   0.579273]
--------------------------------------------------------------------------------
  MP(2) calculation ...  CPU 0.13 s  wall 0.11 s
  Start ADC(2)-s ...  CPU 0.01 s  wall 0.00 s
  ADC(2) intermediates ...  CPU 0.02 s  wall 0.01 s
  Starting Davidson for singlet states of irrep A ... 
--------------------------------------------------------------------------------
   It NVec Conv  Avg. Norm  Max. Norm  Conv. states           Remark
--------------------------------------------------------------------------------
        10    0  1.330e-01  4.687e-01  0.4119 n n n n n n n n Guess.
    1   20    0  2.305e-02  1.109e-01  0.3262 n n n n n n n n 
    2   30    0  5.892e-03  2.550e-02  0.3215 n n n n n n n n 
    3   40    0  2.042e-03  1.272e-02  0.3211 n n n n n n n n 
    4   50    0  5.495e-04  3.388e-03  0.3211 n n n n n n n n 
    5   20    0  2.632e-04  1.748e-03  0.3211 n n n n n n n n Subspace collapsed.
    6   30    0  1.586e-04  1.254e-03  0.3211 n n n n n n n n 
    7   40    0  1.477e-04  1.196e-03  0.3211 n n n n n n n n 
    8   50    0  1.403e-04  1.136e-03  0.3211 n n n n n n n n 
    9   20    1  1.079e-04  7.592e-04  0.3211 n y n n n n n n Subspace collapsed.
   10   30    3  6.305e-05  4.699e-04  0.3211 n y y y n n n n 
   11   40    4  3.508e-05  2.662e-04  0.3211 n y y y y n n n 
   12   50    5  2.498e-05  2.281e-04  0.3211 n y y y y y n n 
   13   20    6  1.753e-05  1.676e-04  0.3211 y y y y y y n n Subspace collapsed.
   14   30    6  2.726e-05  2.663e-04  0.3211 y y y y y y n n 
   15   40    6  2.405e-05  2.382e-04  0.3211 y y y y y y n n 
   16   50    6  2.031e-05  2.021e-04  0.3211 y y y y y y n n 
   17   20    6  1.147e-05  1.141e-04  0.3211 y y y y y y n n Subspace collapsed.
   18   30    6  1.035e-05  1.031e-04  0.3211 y y y y y y n n 
   19   40    6  4.911e-06  4.893e-05  0.3211 y y y y y y n n 
   20   50    8  4.766e-06  4.754e-05  0.3211 y y y y y y y y 
   21   20    8  3.788e-06  3.780e-05  0.3211 y y y y y y y y Subspace collapsed.
   22   30    8  5.616e-06  5.608e-05  0.3211 y y y y y y y y 
   23   32    8  4.843e-06  4.836e-05  0.3211 y y y y y y y y 
   24   34    8  4.804e-06  4.798e-05  0.3211 y y y y y y y y 
   25   35    8  4.754e-06  4.748e-05  0.3211 y y y y y y y y 
   26   36    8  4.789e-06  4.782e-05  0.3211 y y y y y y y y 
   27   36    8  4.789e-06  4.782e-05  0.3211 y y y y y y y y 
   28   46    8  5.065e-06  5.062e-05  0.3211 y y y y y y y y 
   29   50    8  4.107e-06  4.105e-05  0.3211 y y y y y y y y 
   30   16    9  2.427e-06  2.426e-05  0.3211 y y y y y y y y Subspace collapsed.
   31   22    9  1.777e-06  1.776e-05  0.3211 y y y y y y y y 
   32   28    9  1.062e-06  1.062e-05  0.3211 y y y y y y y y 
   33   33    9  7.630e-07  7.628e-06  0.3211 y y y y y y y y 
   34   38    9  7.904e-07  7.902e-06  0.3211 y y y y y y y y 
   35   38    9  7.904e-07  7.902e-06  0.3211 y y y y y y y y 
   36   47    9  9.121e-07  9.120e-06  0.3211 y y y y y y y y 
   37   47    9  9.121e-07  9.120e-06  0.3211 y y y y y y y y 
   38   50    9  8.969e-07  8.968e-06  0.3211 y y y y y y y y 
   39   14    9  4.552e-07  4.552e-06  0.3211 y y y y y y y y Subspace collapsed.
   40   18    9  3.868e-07  3.868e-06  0.3211 y y y y y y y y 
   41   22    9  3.481e-07  3.481e-06  0.3211 y y y y y y y y 
   42   26    9  3.594e-07  3.594e-06  0.3211 y y y y y y y y 
   43   30    9  3.266e-07  3.266e-06  0.3211 y y y y y y y y 
   44   34    9  2.730e-07  2.730e-06  0.3211 y y y y y y y y 
   45   38    9  1.715e-07  1.714e-06  0.3211 y y y y y y y y 
   46   42   10  9.092e-08  9.092e-07  0.3211 y y y y y y y y Converged.
--------------------------------------------------------------------------------
  Davidson Summary: 
 ------------------------------------------------------------
  State  0: excitation energy =   0.3211 a.u.   (converged)
  State  1: excitation energy =   0.3328 a.u.   (converged)
  State  2: excitation energy =   0.3370 a.u.   (converged)
  State  3: excitation energy =   0.3614 a.u.   (converged)
  State  4: excitation energy =   0.3753 a.u.   (converged)
  State  5: excitation energy =   0.3872 a.u.   (converged)
  State  6: excitation energy =   0.4248 a.u.   (converged)
  State  7: excitation energy =   0.4471 a.u.   (converged)
  State  8: excitation energy =   0.4563 a.u.   (converged)
  State  9: excitation energy =   0.4648 a.u.   (converged)
 ------------------------------------------------------------

  Singlet states of irrep A ...  CPU 97.70 s  wall 35.34 s
  TDMs ...  CPU 0.67 s  wall 0.27 s
  SDMs ...  CPU 1.47 s  wall 0.52 s
  Starting TPA DIIS iterations ... 
------------------------------------ 
   It     Res. Norm  Remark
------------------------------------
                       Guess.
    1     4.405e+00  
    2     5.841e+00  
    3     1.077e+00  
    4     2.565e-01  
    5     6.575e-02  
    6     2.674e-02  
    7     8.237e-03  
    8     1.445e-03  
    9     5.351e-04  
   10     9.295e-05  
   11     2.895e-05  
   12     6.166e-06  
   13     2.052e-06  
   14     1.266e-06  
   15     2.757e-07  Converged.
   ... Converged in 15 steps (norm: 2.75655e-07)
------------------------------------
  Starting TPA DIIS iterations ... 
------------------------------------ 
   It     Res. Norm  Remark
------------------------------------
                       Guess.
    1     4.185e+00  
    2     5.541e+00  
    3     1.029e+00  
    4     2.555e-01  
    5     6.535e-02  
    6     2.673e-02  
    7     8.114e-03  
    8     1.453e-03  
    9     5.359e-04  
   10     9.117e-05  
   11     2.883e-05  
   12     5.422e-06  
   13     2.179e-06  
   14     9.967e-07  Converged.
   ... Converged in 14 steps (norm: 9.96715e-07)
------------------------------------
  Starting TPA DIIS iterations ... 
------------------------------------ 
   It     Res. Norm  Remark
------------------------------------
                       Guess.
    1     6.869e-01  
    2     4.816e-01  
    3     1.699e-01  
    4     4.789e-02  
    5     1.802e-02  
    6     7.068e-03  
    7     1.034e-03  
    8     4.474e-04  
    9     1.234e-04  
   10     2.988e-05  
   11     4.933e-06  
   12     1.423e-06  
   13     5.966e-07  Converged.
   ... Converged in 13 steps (norm: 5.96636e-07)
------------------------------------
  Starting TPA DIIS iterations ... 
------------------------------------ 
   It     Res. Norm  Remark
------------------------------------
                       Guess.
    1     4.694e+00  
    2     6.359e+00  
    3     1.158e+00  
    4     2.852e-01  
    5     7.411e-02  
    6     3.040e-02  
    7     9.346e-03  
    8     1.638e-03  
    9     6.111e-04  
   10     1.071e-04  
   11     3.374e-05  
   12     7.489e-06  
   13     2.537e-06  
   14     1.612e-06  
   15     3.501e-07  Converged.
   ... Converged in 15 steps (norm: 3.50112e-07)
------------------------------------
  Starting TPA DIIS iterations ... 
------------------------------------ 
   It     Res. Norm  Remark
------------------------------------
                       Guess.
    1     4.458e+00  
    2     6.032e+00  
    3     1.107e+00  
    4     2.838e-01  
    5     7.368e-02  
    6     3.041e-02  
    7     9.210e-03  
    8     1.647e-03  
    9     6.116e-04  
   10     1.048e-04  
   11     3.348e-05  
   12     6.500e-06  
   13     2.662e-06  
   14     1.241e-06  
   15     3.424e-07  Converged.
   ... Converged in 15 steps (norm: 3.42401e-07)
------------------------------------
  Starting TPA DIIS iterations ... 
------------------------------------ 
   It     Res. Norm  Remark
------------------------------------
                       Guess.
    1     6.989e-01  
    2     4.989e-01  
    3     1.798e-01  
    4     5.366e-02  
    5     1.967e-02  
    6     7.684e-03  
    7     1.168e-03  
    8     5.276e-04  
    9     1.493e-04  
   10     3.428e-05  
   11     5.570e-06  
   12     1.671e-06  
   13     7.444e-07  Converged.
   ... Converged in 13 steps (norm: 7.44353e-07)
------------------------------------
  Starting TPA DIIS iterations ... 
------------------------------------ 
   It     Res. Norm  Remark
------------------------------------
                       Guess.
    1     4.807e+00  
    2     6.565e+00  
    3     1.190e+00  
    4     2.968e-01  
    5     7.749e-02  
    6     3.189e-02  
    7     9.796e-03  
    8     1.716e-03  
    9     6.421e-04  
   10     1.129e-04  
   11     3.573e-05  
   12     8.057e-06  
   13     2.750e-06  
   14     1.765e-06  
   15     3.833e-07  Converged.
   ... Converged in 15 steps (norm: 3.83341e-07)
------------------------------------
  Starting TPA DIIS iterations ... 
------------------------------------ 
   It     Res. Norm  Remark
------------------------------------
                       Guess.
    1     4.566e+00  
    2     6.228e+00  
    3     1.137e+00  
    4     2.953e-01  
    5     7.705e-02  
    6     3.191e-02  
    7     9.654e-03  
    8     1.726e-03  
    9     6.424e-04  
   10     1.104e-04  
   11     3.539e-05  
   12     6.957e-06  
   13     2.869e-06  
   14     1.346e-06  
   15     3.669e-07  Converged.
   ... Converged in 15 steps (norm: 3.66888e-07)
------------------------------------
  Starting TPA DIIS iterations ... 
------------------------------------ 
   It     Res. Norm  Remark
------------------------------------
                       Guess.
    1     7.034e-01  
    2     5.055e-01  
    3     1.836e-01  
    4     5.605e-02  
    5     2.030e-02  
    6     7.931e-03  
    7     1.223e-03  
    8     5.611e-04  
    9     1.601e-04  
   10     3.573e-05  
   11     5.821e-06  
   12     1.775e-06  
   13     8.100e-07  Converged.
   ... Converged in 13 steps (norm: 8.09953e-07)
------------------------------------
  Starting TPA DIIS iterations ... 
------------------------------------ 
   It     Res. Norm  Remark
------------------------------------
                       Guess.
    1     5.548e+00  
    2     7.946e+00  
    3     1.398e+00  
    4     3.769e-01  
    5     1.009e-01  
    6     4.227e-02  
    7     1.290e-02  
    8     2.255e-03  
    9     8.583e-04  
   10     1.537e-04  
   11     5.014e-05  
   12     1.245e-05  
   13     4.490e-06  
   14     3.008e-06  
   15     6.627e-07  Converged.
   ... Converged in 15 steps (norm: 6.62658e-07)
------------------------------------
  Starting TPA DIIS iterations ... 
------------------------------------ 
   It     Res. Norm  Remark
------------------------------------
                       Guess.
    1     5.267e+00  
    2     7.538e+00  
    3     1.335e+00  
    4     3.743e-01  
    5     1.003e-01  
    6     4.236e-02  
    7     1.272e-02  
    8     2.266e-03  
    9     8.568e-04  
   10     1.495e-04  
   11     4.907e-05  
   12     1.041e-05  
   13     4.460e-06  
   14     2.178e-06  
   15     5.442e-07  Converged.
   ... Converged in 15 steps (norm: 5.44175e-07)
------------------------------------
  Starting TPA DIIS iterations ... 
------------------------------------ 
   It     Res. Norm  Remark
------------------------------------
                       Guess.
    1     7.302e-01  
    2     5.463e-01  
    3     2.078e-01  
    4     7.317e-02  
    5     2.419e-02  
    6     9.629e-03  
    7     1.620e-03  
    8     7.985e-04  
    9     2.353e-04  
   10     4.130e-05  
   11     7.487e-06  
   12     2.539e-06  
   13     1.354e-06  
   14     5.122e-07  Converged.
   ... Converged in 14 steps (norm: 5.12164e-07)
------------------------------------
  Starting TPA DIIS iterations ... 
------------------------------------ 
   It     Res. Norm  Remark
------------------------------------
                       Guess.
    1     6.059e+00  
    2     8.932e+00  
    3     1.540e+00  
    4     4.363e-01  
    5     1.182e-01  
    6     5.006e-02  
    7     1.521e-02  
    8     2.653e-03  
    9     1.021e-03  
   10     1.848e-04  
   11     6.151e-05  
   12     1.623e-05  
   13     6.104e-06  
   14     4.142e-06  
   15     9.277e-07  Converged.
   ... Converged in 15 steps (norm: 9.27691e-07)
------------------------------------
  Starting TPA DIIS iterations ... 
------------------------------------ 
   It     Res. Norm  Remark
------------------------------------
                       Guess.
    1     5.750e+00  
    2     8.472e+00  
    3     1.470e+00  
    4     4.328e-01  
    5     1.176e-01  
    6     5.022e-02  
    7     1.500e-02  
    8     2.666e-03  
    9     1.017e-03  
   10     1.790e-04  
   11     5.962e-05  
   12     1.329e-05  
   13     5.807e-06  
   14     2.907e-06  
   15     6.834e-07  Converged.
   ... Converged in 15 steps (norm: 6.83383e-07)
------------------------------------
  Starting TPA DIIS iterations ... 
------------------------------------ 
   It     Res. Norm  Remark
------------------------------------
                       Guess.
    1     7.463e-01  
    2     5.725e-01  
    3     2.239e-01  
    4     8.655e-02  
    5     2.673e-02  
    6     1.089e-02  
    7     1.930e-03  
    8     9.696e-04  
    9     2.885e-04  
   10     4.242e-05  
   11     8.698e-06  
   12     3.154e-06  
   13     1.856e-06  
   14     6.383e-07  Converged.
   ... Converged in 14 steps (norm: 6.38257e-07)
------------------------------------
  Starting TPA DIIS iterations ... 
------------------------------------ 
   It     Res. Norm  Remark
------------------------------------
                       Guess.
    1     6.558e+00  
    2     9.921e+00  
    3     1.678e+00  
    4     4.974e-01  
    5     1.360e-01  
    6     5.815e-02  
    7     1.758e-02  
    8     3.063e-03  
    9     1.190e-03  
   10     2.175e-04  
   11     7.376e-05  
   12     2.058e-05  
   13     8.070e-06  
   14     5.497e-06  
   15     1.253e-06  
   16     8.424e-07  Converged.
   ... Converged in 16 steps (norm: 8.42409e-07)
------------------------------------
  Starting TPA DIIS iterations ... 
------------------------------------ 
   It     Res. Norm  Remark
------------------------------------
                       Guess.
    1     6.224e+00  
    2     9.410e+00  
    3     1.602e+00  
    4     4.930e-01  
    5     1.353e-01  
    6     5.838e-02  
    7     1.734e-02  
    8     3.075e-03  
    9     1.183e-03  
   10     2.098e-04  
   11     7.076e-05  
   12     1.653e-05  
   13     7.325e-06  
   14     3.754e-06  
   15     8.336e-07  Converged.
   ... Converged in 15 steps (norm: 8.33595e-07)
------------------------------------
  Starting TPA DIIS iterations ... 
------------------------------------ 
   It     Res. Norm  Remark
------------------------------------
                       Guess.
    1     7.607e-01  
    2     5.968e-01  
    3     2.392e-01  
    4     1.009e-01  
    5     2.919e-02  
    6     1.220e-02  
    7     2.263e-03  
    8     1.132e-03  
    9     3.397e-04  
   10     4.280e-05  
   11     9.957e-06  
   12     3.825e-06  
   13     2.454e-06  
   14     7.678e-07  Converged.
   ... Converged in 14 steps (norm: 7.67773e-07)
------------------------------------
  Starting TPA DIIS iterations ... 
------------------------------------ 
   It     Res. Norm  Remark
------------------------------------
                       Guess.
    1     8.668e+00  
    2     1.434e+01  
    3     2.252e+00  
    4     7.828e-01  
    5     2.193e-01  
    6     9.671e-02  
    7     2.866e-02  
    8     4.981e-03  
    9     2.001e-03  
   10     3.782e-04  
   11     1.370e-04  
   12     4.662e-05  
   13     2.175e-05  
   14     1.429e-05  
   15     3.527e-06  
   16     1.955e-06  
   17     5.065e-07  Converged.
   ... Converged in 17 steps (norm: 5.06516e-07)
------------------------------------
  Starting TPA DIIS iterations ... 
------------------------------------ 
   It     Res. Norm  Remark
------------------------------------
                       Guess.
    1     8.222e+00  
    2     1.360e+01  
    3     2.148e+00  
    4     7.729e-01  
    5     2.184e-01  
    6     9.735e-02  
    7     2.830e-02  
    8     4.979e-03  
    9     1.971e-03  
   10     3.579e-04  
   11     1.251e-04  
   12     3.511e-05  
   13     1.580e-05  
   14     9.029e-06  
   15     1.688e-06  
   16     1.114e-06  
   17     3.414e-07  Converged.
   ... Converged in 17 steps (norm: 3.41412e-07)
------------------------------------
  Starting TPA DIIS iterations ... 
------------------------------------ 
   It     Res. Norm  Remark
------------------------------------
                       Guess.
    1     8.101e-01  
    2     6.881e-01  
    3     2.997e-01  
    4     1.731e-01  
    5     4.013e-02  
    6     1.834e-02  
    7     3.925e-03  
    8     1.648e-03  
    9     5.370e-04  
   10     5.115e-05  
   11     1.614e-05  
   12     7.423e-06  
   13     6.057e-06  
   14     1.364e-06  
   15     5.491e-07  Converged.
   ... Converged in 15 steps (norm: 5.49059e-07)
------------------------------------
  Starting TPA DIIS iterations ... 
------------------------------------ 
   It     Res. Norm  Remark
------------------------------------
                       Guess.
    1     1.049e+01  
    2     1.843e+01  
    3     2.734e+00  
    4     1.057e+00  
    5     3.000e-01  
    6     1.350e-01  
    7     3.941e-02  
    8     6.848e-03  
    9     2.815e-03  
   10     5.442e-04  
   11     2.059e-04  
   12     8.017e-05  
   13     4.222e-05  
   14     2.639e-05  
   15     6.838e-06  
   16     3.223e-06  
   17     8.890e-07  Converged.
   ... Converged in 17 steps (norm: 8.89049e-07)
------------------------------------
  Starting TPA DIIS iterations ... 
------------------------------------ 
   It     Res. Norm  Remark
------------------------------------
                       Guess.
    1     9.948e+00  
    2     1.748e+01  
    3     2.607e+00  
    4     1.041e+00  
    5     2.990e-01  
    6     1.361e-01  
    7     3.892e-02  
    8     6.810e-03  
    9     2.747e-03  
   10     5.065e-04  
   11     1.795e-04  
   12     5.813e-05  
   13     2.568e-05  
   14     1.634e-05  
   15     2.927e-06  
   16     2.320e-06  
   17     7.348e-07  Converged.
   ... Converged in 17 steps (norm: 7.34844e-07)
------------------------------------
  Starting TPA DIIS iterations ... 
------------------------------------ 
   It     Res. Norm  Remark
------------------------------------
                       Guess.
    1     8.429e-01  
    2     7.563e-01  
    3     3.477e-01  
    4     2.473e-01  
    5     5.058e-02  
    6     2.399e-02  
    7     5.600e-03  
    8     1.860e-03  
    9     6.883e-04  
   10     6.894e-05  
   11     2.254e-05  
   12     1.153e-05  
   13     1.030e-05  
   14     1.961e-06  
   15     8.648e-07  Converged.
   ... Converged in 15 steps (norm: 8.64826e-07)
------------------------------------
  Starting TPA DIIS iterations ... 
------------------------------------ 
   It     Res. Norm  Remark
------------------------------------
                       Guess.
    1     1.143e+01  
    2     2.063e+01  
    3     2.978e+00  
    4     1.206e+00  
    5     3.443e-01  
    6     1.563e-01  
    7     4.530e-02  
    8     7.875e-03  
    9     3.271e-03  
   10     6.388e-04  
   11     2.466e-04  
   12     1.017e-04  
   13     5.612e-05  
   14     3.431e-05  
   15     8.940e-06  
   16     3.970e-06  
   17     1.090e-06  
   18     4.356e-07  Converged.
   ... Converged in 18 steps (norm: 4.3564e-07)
------------------------------------
  Starting TPA DIIS iterations ... 
------------------------------------ 
   It     Res. Norm  Remark
------------------------------------
                       Guess.
    1     1.084e+01  
    2     1.956e+01  
    3     2.839e+00  
    4     1.186e+00  
    5     3.432e-01  
    6     1.576e-01  
    7     4.475e-02  
    8     7.810e-03  
    9     3.176e-03  
   10     5.897e-04  
   11     2.099e-04  
   12     7.272e-05  
   13     3.174e-05  
   14     2.133e-05  
   15     3.846e-06  
   16     3.274e-06  
   17     9.838e-07  Converged.
   ... Converged in 17 steps (norm: 9.83846e-07)
------------------------------------
  Starting TPA DIIS iterations ... 
------------------------------------ 
   It     Res. Norm  Remark
------------------------------------
                       Guess.
    1     8.573e-01  
    2     7.886e-01  
    3     3.711e-01  
    4     2.879e-01  
    5     5.625e-02  
    6     2.687e-02  
    7     6.513e-03  
    8     1.917e-03  
    9     7.620e-04  
   10     7.981e-05  
   11     2.622e-05  
   12     1.404e-05  
   13     1.282e-05  
   14     2.328e-06  
   15     1.083e-06  
   16     3.270e-07  Converged.
   ... Converged in 16 steps (norm: 3.26953e-07)
------------------------------------
  Starting TPA DIIS iterations ... 
------------------------------------ 
   It     Res. Norm  Remark
------------------------------------
                       Guess.
    1     1.241e+01  
    2     2.299e+01  
    3     3.230e+00  
    4     1.365e+00  
    5     3.921e-01  
    6     1.795e-01  
    7     5.167e-02  
    8     8.990e-03  
    9     3.771e-03  
   10     7.436e-04  
   11     2.932e-04  
   12     1.273e-04  
   13     7.280e-05  
   14     4.368e-05  
   15     1.130e-05  
   16     4.854e-06  
   17     1.289e-06  
   18     5.288e-07  Converged.
   ... Converged in 18 steps (norm: 5.28757e-07)
------------------------------------
  Starting TPA DIIS iterations ... 
------------------------------------ 
   It     Res. Norm  Remark
------------------------------------
                       Guess.
    1     1.176e+01  
    2     2.180e+01  
    3     3.078e+00  
    4     1.341e+00  
    5     3.909e-01  
    6     1.811e-01  
    7     5.104e-02  
    8     8.889e-03  
    9     3.643e-03  
   10     6.807e-04  
   11     2.432e-04  
   12     8.996e-05  
   13     3.881e-05  
   14     2.746e-05  
   15     5.057e-06  
   16     4.566e-06  
   17     1.273e-06  
   18     3.456e-07  Converged.
   ... Converged in 18 steps (norm: 3.4562e-07)
------------------------------------
  Starting TPA DIIS iterations ... 
------------------------------------ 
   It     Res. Norm  Remark
------------------------------------
                       Guess.
    1     8.710e-01  
    2     8.205e-01  
    3     3.947e-01  
    4     3.309e-01  
    5     6.230e-02  
    6     2.978e-02  
    7     7.487e-03  
    8     1.962e-03  
    9     8.367e-04  
   10     9.161e-05  
   11     3.035e-05  
   12     1.698e-05  
   13     1.566e-05  
   14     2.784e-06  
   15     1.375e-06  
   16     4.479e-07  Converged.
   ... Converged in 16 steps (norm: 4.4788e-07)
------------------------------------
  Two-photon absorbption ...  CPU 73.45 s  wall 18.40 s
  Transition density matrix of state singlet_A_1 printed to ASCII file 'State_singlet_A_1_Transition.txt'
  Transition density matrix of state singlet_A_2 printed to ASCII file 'State_singlet_A_2_Transition.txt'
  Transition density matrix of state singlet_A_3 printed to ASCII file 'State_singlet_A_3_Transition.txt'
  Transition density matrix of state singlet_A_4 printed to ASCII file 'State_singlet_A_4_Transition.txt'
  Transition density matrix of state singlet_A_5 printed to ASCII file 'State_singlet_A_5_Transition.txt'
  Transition density matrix of state singlet_A_6 printed to ASCII file 'State_singlet_A_6_Transition.txt'
  Transition density matrix of state singlet_A_7 printed to ASCII file 'State_singlet_A_7_Transition.txt'
  Transition density matrix of state singlet_A_8 printed to ASCII file 'State_singlet_A_8_Transition.txt'
  Transition density matrix of state singlet_A_9 printed to ASCII file 'State_singlet_A_9_Transition.txt'
  Transition density matrix of state singlet_A_10 printed to ASCII file 'State_singlet_A_10_Transition.txt'
  Transition properties ...  CPU 0.16 s  wall 0.34 s
  Difference density matrix of state singlet_A_1 printed to ASCII file 'State_singlet_A_1_Difference.txt'
  Total density matrix of state singlet_A_1 printed to ASCII file 'State_singlet_A_1_Total.txt'
  Difference density matrix of state singlet_A_2 printed to ASCII file 'State_singlet_A_2_Difference.txt'
  Total density matrix of state singlet_A_2 printed to ASCII file 'State_singlet_A_2_Total.txt'
  Difference density matrix of state singlet_A_3 printed to ASCII file 'State_singlet_A_3_Difference.txt'
  Total density matrix of state singlet_A_3 printed to ASCII file 'State_singlet_A_3_Total.txt'
  Difference density matrix of state singlet_A_4 printed to ASCII file 'State_singlet_A_4_Difference.txt'
  Total density matrix of state singlet_A_4 printed to ASCII file 'State_singlet_A_4_Total.txt'
  Difference density matrix of state singlet_A_5 printed to ASCII file 'State_singlet_A_5_Difference.txt'
  Total density matrix of state singlet_A_5 printed to ASCII file 'State_singlet_A_5_Total.txt'
  Difference density matrix of state singlet_A_6 printed to ASCII file 'State_singlet_A_6_Difference.txt'
  Total density matrix of state singlet_A_6 printed to ASCII file 'State_singlet_A_6_Total.txt'
  Difference density matrix of state singlet_A_7 printed to ASCII file 'State_singlet_A_7_Difference.txt'
  Total density matrix of state singlet_A_7 printed to ASCII file 'State_singlet_A_7_Total.txt'
  Difference density matrix of state singlet_A_8 printed to ASCII file 'State_singlet_A_8_Difference.txt'
  Total density matrix of state singlet_A_8 printed to ASCII file 'State_singlet_A_8_Total.txt'
  Difference density matrix of state singlet_A_9 printed to ASCII file 'State_singlet_A_9_Difference.txt'
  Total density matrix of state singlet_A_9 printed to ASCII file 'State_singlet_A_9_Total.txt'
  Difference density matrix of state singlet_A_10 printed to ASCII file 'State_singlet_A_10_Difference.txt'
  Total density matrix of state singlet_A_10 printed to ASCII file 'State_singlet_A_10_Total.txt'
  Properties ...  CPU 0.30 s  wall 0.53 s
  ISR TDMS ...  CPU 8.90 s  wall 3.16 s
  ISR transition properties ...  CPU 0.17 s  wall 0.08 s
  Sum-over-states TPA ...  CPU 0.00 s  wall 0.00 s

--------------------------------------------------------------------------------
                   State-averaged natural transition orbitals
--------------------------------------------------------------------------------
--------------------------------------------------------------------------------
  SA-NTO decomposition ...  CPU 0.01 s  wall 0.03 s

--------------------------------------------------------------------------------
                             Excited State Summary
--------------------------------------------------------------------------------
--------------------------------------------------------------------------------

  Excited state 1 (singlet, A)                                     [converged]
  ----------------------------------------------------------------------------
  Term symbol:  2 (1) A                                     R^2 =  8.12030e-14

  Total energy:                                            -77.9985564853 a.u.
  Excitation energy:                                               8.736486 eV

  Osc. strength:                                                      0.444982
  Trans. dip. moment [a.u.]:           [  -1.044685,    0.993742,    0.008711]
  <i|r^2|0> [a.u.]:                    [  -6.157429,    0.250026,   -0.005072]
  Two-photon absorption cross-section (SoS) [a.u.]:                   0.000633
  Two-photon absorption matrix (SoS) [a.u.]:
                                       |   -0.004696    0.002406    0.002330 |
                                       |    0.002406   -0.002010   -0.001384 |
                                       |    0.002330   -0.001384   -0.005551 |
  Two-photon absorption cross-section [a.u.]:                         0.005744
  Two-photon absorption matrix [a.u.]:
                                       |   -0.001045    0.001311    0.022620 |
                                       |    0.001311    0.003073    0.014094 |
                                       |    0.022620    0.014094   -0.000736 |

  Dip. moment [a.u.]:                  [  -0.000759,    0.000218,    0.003883]
  Total dipole [Debye]:                                               0.010073
  <r^2> [a.u.]:                        [ 176.116371,   35.647396,   11.865928]
  Total <r^2> [a.u.]:                                               223.629695

  V1^2 = 0.9714, V2^2 = 0.0286

  Important amplitudes:
      occ i     occ j     vir a      vir b          v   
    -----------------------------------------------------
     8 (A) A              9 (A) A                -0.6808
     6 (A) A             14 (A) A                 0.0623
     4 (A) A             10 (A) A                 0.0606
     7 (A) A             16 (A) A                -0.0569
     5 (A) A             13 (A) A                 0.0513
     6 (A) A             23 (A) A                 0.0486
     8 (A) A             20 (A) A                -0.0349
     6 (A) A             19 (A) A                 0.0309
     3 (A) A             12 (A) A                -0.0281
     5 (A) A             22 (A) A                -0.0215
     7 (A) A              9 (A) A                -0.0212
     7 (A) A             11 (A) A                -0.0209
     4 (A) A             24 (A) A                 0.0187
     3 (A) A             26 (A) A                 0.0185
     8 (A) A   8 (A) B   17 (A) A   20 (A) B      0.0184
     8 (A) A   8 (A) B    9 (A) A   28 (A) B      0.0167
     6 (A) A             26 (A) A                 0.0163
     7 (A) A             21 (A) A                -0.0148
     3 (A) A             14 (A) A                 0.0139
     6 (A) A             12 (A) A                 0.0132
     3 (A) A   4 (A) B    9 (A) A    9 (A) B     -0.0129
     3 (A) A             19 (A) A                 0.0119
     8 (A) A   8 (A) B   18 (A) A   19 (A) B     -0.0113
     7 (A) A             32 (A) A                -0.0096
     7 (A) A             36 (A) A                -0.0086
     3 (A) A             23 (A) A                 0.0080
     8 (A) A   8 (A) B   25 (A) A   29 (A) B     -0.0076
     6 (A) A             35 (A) A                 0.0072
     6 (A) A             40 (A) A                 0.0068
     3 (A) A   6 (A) B    9 (A) A   28 (A) B      0.0064
     6 (A) A   8 (A) A   19 (A) A   28 (A) A      0.0060
     5 (A) A   7 (A) B    9 (A) A    9 (A) B      0.0060
     5 (A) A   8 (A) B   11 (A) A   20 (A) B      0.0059
     7 (A) A   8 (A) B   13 (A) A   20 (A) B     -0.0059
     5 (A) A   8 (A) B   16 (A) A    9 (A) B      0.0059
     5 (A) A   8 (A) B   11 (A) A    9 (A) B     -0.0059
     3 (A) A   5 (A) B    9 (A) A   25 (A) B      0.0058
     3 (A) A             40 (A) A                 0.0057
     7 (A) A   8 (A) B   22 (A) A   20 (A) B      0.0057
     6 (A) A   8 (A) A    9 (A) A   18 (A) A      0.0057
    -----------------------------------------------------

  Density matrix analysis:
  ------------------------
  NOs
    Occupation of frontier NOs:
       0.9496   1.0216
    Number of electrons: 16.000000
    Number of unpaired electrons: n_u =  2.31340, n_u,nl =  2.03263
    NO participation ratio (PR_NO):  2.863614
  
  
  Mulliken Population Analysis
  Atom      Charge (e)              h+              e-           Del q
  --------------------------------------------------------------------
   1 H        0.058852        0.020429       -0.012531        0.007898
   2 C       -0.116269        0.490592       -0.506056       -0.015465
   3 H        0.058224        0.020272       -0.012592        0.007680
   4 C       -0.116997        0.490421       -0.506222       -0.015800
   5 H        0.057867        0.020343       -0.012569        0.007774
   6 H        0.058323        0.020433       -0.012520        0.007913
  --------------------------------------------------------------------
  Sum:       -0.000000        1.062491       -1.062491       -0.000000
  
  Multipole moment analysis of the density matrix
    Molecular charge:                      -0.000000
    Number of electrons:                   16.000000
      Center of electronic charge [Ang]: [ -1.560551,  -0.065610,   0.002475]
    Total nuclear charge:                  16.000000
      Center of nuclear charge [Ang]:    [ -1.560576,  -0.065602,   0.002603]
    Dipole moment [D]:                     0.010073
      Cartesian components [D]:          [ -0.001930,   0.000554,   0.009871]
    RMS size of the density [Ang]:         1.214203
      Cartesian components [Ang]:        [  0.804382,   0.787139,   0.455707]
  
  Exciton analysis of the difference density matrix
    <r_h> [Ang]:                  [ -1.560155,  -0.065691,   0.000928]
    <r_e> [Ang]:                  [ -1.560233,  -0.065582,   0.000562]
    |<r_e - r_h>| [Ang]:            0.000390
    Hole size [Ang]:                1.285698
      Cartesian components [Ang]: [  0.728851,   0.712977,   0.783236]
    Electron size [Ang]:            1.463168
      Cartesian components [Ang]: [  0.853941,   0.830455,   0.849700]

  Transition density matrix analysis:
  -----------------------------------
  
  CT numbers (Mulliken)
    omega =     0.9535
    <Phe> =    -0.1605
  
  Exciton analysis of the transition density matrix
    Trans. dipole moment [D]:             1.832423
      Cartesian components [D]:         [ -1.327662,   1.262920,   0.011070]
    <r_h> [Ang]:                        [ -1.560029,  -0.065842,   0.001195]
    <r_e> [Ang]:                        [ -1.560250,  -0.065565,   0.000303]
    |<r_e - r_h>| [Ang]:                  0.000959
    Hole size [Ang]:                      1.214569
      Cartesian components [Ang]:       [  0.650217,   0.636927,   0.804189]
    Electron size [Ang]:                  1.485970
      Cartesian components [Ang]:       [  0.864354,   0.839326,   0.869788]
    RMS electron-hole separation [Ang]:   1.936901
      Cartesian components [Ang]:       [  1.107012,   1.075355,   1.170352]
    Covariance(r_h, r_e) [Ang^2]:        -0.034152
    Correlation coefficient:             -0.018922
    Center-of-mass size [Ang]:            0.950655
      Cartesian components [Ang]:       [  0.527803,   0.515727,   0.599328]

  Decomposition into state-averaged NTOs
    H- 0 -> L+ 0: -0.6696 ( 89.7%)
    H- 2 -> L+ 5:  0.0836 (  1.4%)
                   omega =  95.3%
  ----------------------------------------------------------------------------


  Excited state 2 (singlet, A)                                     [converged]
  ----------------------------------------------------------------------------
  Term symbol:  3 (1) A                                     R^2 =  6.78596e-14

  Total energy:                                            -77.9868535768 a.u.
  Excitation energy:                                               9.054939 eV

  Osc. strength:                                                      0.000558
  Trans. dip. moment [a.u.]:           [   0.037883,   -0.032842,   -0.001881]
  <i|r^2|0> [a.u.]:                    [   0.288991,    0.071340,   -0.145085]
  Two-photon absorption cross-section (SoS) [a.u.]:                   4.890966
  Two-photon absorption matrix (SoS) [a.u.]:
                                       |    0.058162    0.056844   -0.539371 |
                                       |    0.056844    0.055911   -0.554597 |
                                       |   -0.539371   -0.554597   -0.113012 |
  Two-photon absorption cross-section [a.u.]:                         0.081517
  Two-photon absorption matrix [a.u.]:
                                       |    0.022292   -0.005767    0.057768 |
                                       |   -0.005767   -0.036500    0.076161 |
                                       |    0.057768    0.076161    0.014426 |

  Dip. moment [a.u.]:                  [  -0.005040,    0.008267,    0.007472]
  Total dipole [Debye]:                                               0.031084
  <r^2> [a.u.]:                        [ 174.517293,   33.969979,   13.168804]
  Total <r^2> [a.u.]:                                               221.656075

  V1^2 = 0.9542, V2^2 = 0.0458

  Important amplitudes:
      occ i     occ j     vir a      vir b          v   
    -----------------------------------------------------
     7 (A) A              9 (A) A                -0.6689
     8 (A) A             11 (A) A                -0.1481
     7 (A) A             20 (A) A                -0.0758
     5 (A) A   8 (A) B    9 (A) A    9 (A) B      0.0316
     8 (A) A             16 (A) A                 0.0273
     8 (A) A              9 (A) A                 0.0207
     8 (A) A             21 (A) A                -0.0175
     5 (A) A             28 (A) A                 0.0149
     4 (A) A   7 (A) B    9 (A) A   19 (A) B      0.0135
     5 (A) A   7 (A) B    9 (A) A   16 (A) B     -0.0134
     7 (A) A   8 (A) B   20 (A) A   17 (A) B      0.0105
     7 (A) A   8 (A) A    9 (A) A   28 (A) A     -0.0097
     5 (A) A   8 (A) B    9 (A) A   20 (A) B      0.0096
     4 (A) A   6 (A) B    9 (A) A   16 (A) B     -0.0091
     5 (A) A   6 (A) A    9 (A) A   23 (A) A      0.0091
     5 (A) A   6 (A) A    9 (A) A   14 (A) A      0.0089
     5 (A) A   6 (A) B    9 (A) A   19 (A) B      0.0087
     4 (A) A   5 (A) A    9 (A) A   10 (A) A     -0.0084
     8 (A) A   7 (A) B    9 (A) A   28 (A) B      0.0084
     6 (A) A   7 (A) B    9 (A) A   18 (A) B      0.0083
     5 (A) A   6 (A) B    9 (A) A   23 (A) B      0.0080
     3 (A) A   7 (A) B    9 (A) A   18 (A) B     -0.0080
     5 (A) A   7 (A) A    9 (A) A   16 (A) A     -0.0079
     4 (A) A   8 (A) B    9 (A) A   25 (A) B     -0.0077
     7 (A) A   8 (A) B   17 (A) A   20 (A) B      0.0074
     4 (A) A   7 (A) B   19 (A) A    9 (A) B      0.0074
     5 (A) A   5 (A) B    9 (A) A   13 (A) B      0.0072
     7 (A) A   8 (A) B   19 (A) A   18 (A) B     -0.0072
     5 (A) A   8 (A) A    9 (A) A   20 (A) A      0.0069
     4 (A) A   5 (A) B    9 (A) A   18 (A) B      0.0068
     7 (A) A   7 (A) B   20 (A) A   22 (A) B      0.0065
     7 (A) A   8 (A) B   17 (A) A    9 (A) B      0.0065
     5 (A) A   6 (A) B    9 (A) A   14 (A) B      0.0063
     4 (A) A   7 (A) A    9 (A) A   19 (A) A      0.0061
     4 (A) A   5 (A) B   10 (A) A    9 (A) B      0.0061
     5 (A) A             38 (A) A                 0.0060
     5 (A) A   7 (A) B   11 (A) A   20 (A) B      0.0060
     4 (A) A   7 (A) B    9 (A) A   14 (A) B     -0.0060
     4 (A) A   8 (A) A    9 (A) A   25 (A) A     -0.0057
     6 (A) A   7 (A) A   19 (A) A   28 (A) A      0.0056
    -----------------------------------------------------

  Density matrix analysis:
  ------------------------
  NOs
    Occupation of frontier NOs:
       0.9580   1.0536
    Number of electrons: 16.000000
    Number of unpaired electrons: n_u =  2.35524, n_u,nl =  2.06265
    NO participation ratio (PR_NO):  3.026711
  
  
  Mulliken Population Analysis
  Atom      Charge (e)              h+              e-           Del q
  --------------------------------------------------------------------
   1 H        0.148579        0.121365       -0.023740        0.097625
   2 C       -0.301754        0.271080       -0.472029       -0.200949
   3 H        0.152345        0.127049       -0.025248        0.101801
   4 C       -0.302076        0.273293       -0.474173       -0.200879
   5 H        0.154290        0.128014       -0.023816        0.104197
   6 H        0.148615        0.123068       -0.024863        0.098206
  --------------------------------------------------------------------
  Sum:       -0.000000        1.043869       -1.043869        0.000000
  
  Multipole moment analysis of the density matrix
    Molecular charge:                      -0.000000
    Number of electrons:                   16.000000
      Center of electronic charge [Ang]: [ -1.560410,  -0.065876,   0.002356]
    Total nuclear charge:                  16.000000
      Center of nuclear charge [Ang]:    [ -1.560576,  -0.065602,   0.002603]
    Dipole moment [D]:                     0.031084
      Cartesian components [D]:          [ -0.012809,   0.021012,   0.018991]
    RMS size of the density [Ang]:         1.200064
      Cartesian components [Ang]:        [  0.787074,   0.768242,   0.480075]
  
  Exciton analysis of the difference density matrix
    <r_h> [Ang]:                  [ -1.564723,  -0.062795,   0.002912]
    <r_e> [Ang]:                  [ -1.562633,  -0.066763,   0.000721]
    |<r_e - r_h>| [Ang]:            0.004992
    Hole size [Ang]:                1.486037
      Cartesian components [Ang]: [  0.998534,   1.002230,   0.454718]
    Electron size [Ang]:            1.477048
      Cartesian components [Ang]: [  0.881142,   0.859364,   0.816549]

  Transition density matrix analysis:
  -----------------------------------
  
  CT numbers (Mulliken)
    omega =     0.9218
    <Phe> =    -0.0123
  
  Exciton analysis of the transition density matrix
    Trans. dipole moment [D]:             0.063762
      Cartesian components [D]:         [  0.048144,  -0.041737,  -0.002391]
    <r_h> [Ang]:                        [ -1.565384,  -0.062225,   0.003401]
    <r_e> [Ang]:                        [ -1.562178,  -0.067296,   0.000235]
    |<r_e - r_h>| [Ang]:                  0.006783
    Hole size [Ang]:                      1.514564
      Cartesian components [Ang]:       [  1.021007,   1.026643,   0.444358]
    Electron size [Ang]:                  1.474152
      Cartesian components [Ang]:       [  0.871797,   0.848716,   0.832332]
    RMS electron-hole separation [Ang]:   2.093753
      Cartesian components [Ang]:       [  1.326723,   1.317123,   0.942758]
    Covariance(r_h, r_e) [Ang^2]:         0.041638
    Correlation coefficient:              0.018649
    Center-of-mass size [Ang]:            1.066572
      Cartesian components [Ang]:       [  0.679114,   0.673394,   0.472144]

  Decomposition into state-averaged NTOs
    H- 1 -> L+ 0:  0.6613 ( 87.5%)
    H- 0 -> L+ 2: -0.1481 (  4.4%)
                   omega =  92.2%
  ----------------------------------------------------------------------------


  Excited state 3 (singlet, A)                                     [converged]
  ----------------------------------------------------------------------------
  Term symbol:  4 (1) A                                     R^2 =  5.75215e-14

  Total energy:                                            -77.9825682499 a.u.
  Excitation energy:                                               9.171548 eV

  Osc. strength:                                                      0.025231
  Trans. dip. moment [a.u.]:           [   0.010149,    0.023998,   -0.334082]
  <i|r^2|0> [a.u.]:                    [   0.038181,    0.022267,    0.005158]
  Two-photon absorption cross-section (SoS) [a.u.]:                   0.136689
  Two-photon absorption matrix (SoS) [a.u.]:
                                       |   -0.122005   -0.004805   -0.016976 |
                                       |   -0.004805    0.131107    0.000854 |
                                       |   -0.016976    0.000854    0.028018 |
  Two-photon absorption cross-section [a.u.]:                         0.076524
  Two-photon absorption matrix [a.u.]:
                                       |   -0.076500   -0.007667   -0.017885 |
                                       |   -0.007667    0.105650    0.002672 |
                                       |   -0.017885    0.002672    0.016893 |

  Dip. moment [a.u.]:                  [  -0.001790,    0.011958,   -0.003636]
  Total dipole [Debye]:                                               0.032092
  <r^2> [a.u.]:                        [ 180.853518,   40.611066,   11.022045]
  Total <r^2> [a.u.]:                                               232.486629

  V1^2 = 0.9587, V2^2 = 0.0413

  Important amplitudes:
      occ i     occ j     vir a      vir b          v   
    -----------------------------------------------------
     8 (A) A             10 (A) A                 0.6891
     8 (A) A             24 (A) A                 0.0507
     8 (A) A             18 (A) A                -0.0312
     4 (A) A              9 (A) A                -0.0238
     8 (A) A   8 (A) B    9 (A) A   12 (A) B      0.0219
     8 (A) A   8 (A) B   10 (A) A   17 (A) B      0.0173
     8 (A) A             15 (A) A                 0.0169
     5 (A) A   8 (A) B   11 (A) A   10 (A) B      0.0165
     7 (A) A   8 (A) B   13 (A) A   10 (A) B     -0.0141
     4 (A) A   8 (A) B   12 (A) A   10 (A) B     -0.0111
     6 (A) A   8 (A) A   10 (A) A   15 (A) A     -0.0110
     7 (A) A   8 (A) B   22 (A) A   10 (A) B      0.0108
     6 (A) A   8 (A) B   15 (A) A   10 (A) B      0.0108
     4 (A) A   8 (A) A   10 (A) A   12 (A) A      0.0106
     7 (A) A   8 (A) A   10 (A) A   22 (A) A     -0.0099
     7 (A) A   8 (A) A   10 (A) A   13 (A) A      0.0097
     5 (A) A   8 (A) B   21 (A) A   10 (A) B      0.0094
     5 (A) A   8 (A) A   10 (A) A   11 (A) A     -0.0094
     6 (A) A   8 (A) A   10 (A) A   18 (A) A     -0.0088
     6 (A) A   8 (A) B   10 (A) A   10 (A) B     -0.0087
     7 (A) A   8 (A) A   12 (A) A   16 (A) A      0.0082
     5 (A) A   8 (A) A   10 (A) A   21 (A) A     -0.0080
     3 (A) A   4 (A) B   10 (A) A    9 (A) B      0.0079
     4 (A) A   8 (A) B   19 (A) A   10 (A) B      0.0075
     8 (A) A   8 (A) B    9 (A) A   23 (A) B      0.0075
     8 (A) A   8 (A) B   10 (A) A   28 (A) B     -0.0072
     3 (A) A   8 (A) B   10 (A) A   10 (A) B      0.0072
     5 (A) A   8 (A) B   10 (A) A   11 (A) B      0.0071
     3 (A) A   8 (A) A   10 (A) A   24 (A) A     -0.0071
     7 (A) A   8 (A) B   16 (A) A   12 (A) B     -0.0070
     3 (A) A   8 (A) B   10 (A) A   18 (A) B     -0.0069
     8 (A) A   8 (A) B    9 (A) A   19 (A) B     -0.0068
     6 (A) A   8 (A) B   18 (A) A   10 (A) B      0.0067
     3 (A) A   6 (A) B   10 (A) A   28 (A) B     -0.0062
     7 (A) A   8 (A) B   12 (A) A   11 (A) B      0.0058
     6 (A) A             28 (A) A                 0.0056
     3 (A) A   5 (A) B   10 (A) A   25 (A) B     -0.0056
     5 (A) A   8 (A) A   10 (A) A   16 (A) A      0.0056
     3 (A) A   8 (A) A   10 (A) A   18 (A) A     -0.0056
     4 (A) A   8 (A) A   10 (A) A   23 (A) A      0.0055
    -----------------------------------------------------

  Density matrix analysis:
  ------------------------
  NOs
    Occupation of frontier NOs:
       0.9814   0.9850
    Number of electrons: 16.000000
    Number of unpaired electrons: n_u =  2.28522, n_u,nl =  2.02440
    NO participation ratio (PR_NO):  2.691820
  
  
  Mulliken Population Analysis
  Atom      Charge (e)              h+              e-           Del q
  --------------------------------------------------------------------
   1 H       -0.163243        0.053865       -0.268062       -0.214197
   2 C        0.327953        0.539038       -0.110280        0.428758
   3 H       -0.166139        0.053755       -0.270439       -0.216683
   4 C        0.327088        0.537449       -0.109165        0.428284
   5 H       -0.162649        0.053972       -0.266714       -0.212742
   6 H       -0.163009        0.053887       -0.267306       -0.213419
  --------------------------------------------------------------------
  Sum:       -0.000000        1.291967       -1.291967        0.000000
  
  Multipole moment analysis of the density matrix
    Molecular charge:                      -0.000000
    Number of electrons:                   16.000000
      Center of electronic charge [Ang]: [ -1.560517,  -0.065998,   0.002723]
    Total nuclear charge:                  16.000000
      Center of nuclear charge [Ang]:    [ -1.560576,  -0.065602,   0.002603]
    Dipole moment [D]:                     0.032092
      Cartesian components [D]:          [ -0.004550,   0.030394,  -0.009241]
    RMS size of the density [Ang]:         1.276461
      Cartesian components [Ang]:        [  0.854427,   0.840482,   0.439202]
  
  Exciton analysis of the difference density matrix
    <r_h> [Ang]:                  [ -1.559946,  -0.066114,   0.001619]
    <r_e> [Ang]:                  [ -1.559588,  -0.070833,   0.004398]
    |<r_e - r_h>| [Ang]:            0.005488
    Hole size [Ang]:                1.410251
      Cartesian components [Ang]: [  0.833929,   0.819840,   0.788184]
    Electron size [Ang]:            2.076138
      Cartesian components [Ang]: [  1.373440,   1.377116,   0.726335]

  Transition density matrix analysis:
  -----------------------------------
  
  CT numbers (Mulliken)
    omega =     0.9259
    <Phe> =    -0.0109
  
  Exciton analysis of the transition density matrix
    Trans. dipole moment [D]:             0.425865
      Cartesian components [D]:         [  0.012899,   0.030499,  -0.424575]
    <r_h> [Ang]:                        [ -1.559761,  -0.065723,   0.000784]
    <r_e> [Ang]:                        [ -1.559171,  -0.072645,   0.005115]
    |<r_e - r_h>| [Ang]:                  0.008187
    Hole size [Ang]:                      1.212952
      Cartesian components [Ang]:       [  0.636348,   0.623550,   0.823102]
    Electron size [Ang]:                  2.296582
      Cartesian components [Ang]:       [  1.518109,   1.524729,   0.803016]
    RMS electron-hole separation [Ang]:   2.587325
      Cartesian components [Ang]:       [  1.638593,   1.640334,   1.148289]
    Covariance(r_h, r_e) [Ang^2]:         0.025678
    Correlation coefficient:              0.009218
    Center-of-mass size [Ang]:            1.303543
      Cartesian components [Ang]:       [  0.826771,   0.827131,   0.575785]

  Decomposition into state-averaged NTOs
    H- 0 -> L+ 1: -0.6798 ( 92.4%)
                   omega =  92.6%
  ----------------------------------------------------------------------------


  Excited state 4 (singlet, A)                                     [converged]
  ----------------------------------------------------------------------------
  Term symbol:  5 (1) A                                     R^2 =  6.99740e-14

  Total energy:                                            -77.9582128964 a.u.
  Excitation energy:                                               9.834291 eV

  Osc. strength:                                                      0.000092
  Trans. dip. moment [a.u.]:           [  -0.014384,    0.013123,    0.000879]
  <i|r^2|0> [a.u.]:                    [  -0.067335,    0.020801,   -0.034969]
  Two-photon absorption cross-section (SoS) [a.u.]:                 149.754140
  Two-photon absorption matrix (SoS) [a.u.]:
                                       |    0.306261    0.314481   -3.012211 |
                                       |    0.314481    0.321745   -3.041657 |
                                       |   -3.012211   -3.041657   -0.627091 |
  Two-photon absorption cross-section [a.u.]:                        91.988402
  Two-photon absorption matrix [a.u.]:
                                       |    0.260358    0.247629   -2.353702 |
                                       |    0.247629    0.232714   -2.390707 |
                                       |   -2.353702   -2.390707   -0.491664 |

  Dip. moment [a.u.]:                  [  -0.010991,   -0.003741,   -0.005424]
  Total dipole [Debye]:                                               0.032572
  <r^2> [a.u.]:                        [ 181.224870,   40.546329,   10.759003]
  Total <r^2> [a.u.]:                                               232.530203

  V1^2 = 0.9635, V2^2 = 0.0365

  Important amplitudes:
      occ i     occ j     vir a      vir b          v   
    -----------------------------------------------------
     8 (A) A             11 (A) A                -0.6697
     7 (A) A              9 (A) A                 0.1501
     8 (A) A             21 (A) A                -0.0781
     8 (A) A             16 (A) A                 0.0645
     8 (A) A   8 (A) B    9 (A) A   13 (A) B      0.0167
     5 (A) A   8 (A) B   11 (A) A   11 (A) B     -0.0155
     8 (A) A   8 (A) B   11 (A) A   17 (A) B     -0.0140
     7 (A) A             20 (A) A                 0.0137
     7 (A) A   8 (A) B   13 (A) A   11 (A) B      0.0127
     5 (A) A   8 (A) A   11 (A) A   21 (A) A      0.0110
     4 (A) A   8 (A) B   12 (A) A   11 (A) B      0.0110
     8 (A) A             12 (A) A                -0.0110
     8 (A) A   8 (A) B    9 (A) A   22 (A) B     -0.0107
     7 (A) A   8 (A) A   11 (A) A   22 (A) A      0.0096
     6 (A) A   8 (A) B   15 (A) A   11 (A) B     -0.0090
     6 (A) A   8 (A) B   10 (A) A   11 (A) B      0.0090
     7 (A) A   8 (A) B   22 (A) A   11 (A) B     -0.0089
     3 (A) A   4 (A) B   11 (A) A    9 (A) B     -0.0083
     3 (A) A   8 (A) B   11 (A) A   18 (A) B      0.0081
     6 (A) A   8 (A) A   11 (A) A   15 (A) A      0.0080
     7 (A) A   8 (A) A   13 (A) A   16 (A) A      0.0078
     7 (A) A   8 (A) A   11 (A) A   13 (A) A     -0.0077
     6 (A) A              9 (A) A                -0.0075
     5 (A) A   8 (A) B   21 (A) A   11 (A) B     -0.0071
     4 (A) A   8 (A) B   19 (A) A   11 (A) B     -0.0070
     5 (A) A   8 (A) B    9 (A) A    9 (A) B     -0.0068
     4 (A) A   8 (A) A   11 (A) A   12 (A) A     -0.0062
     6 (A) A   8 (A) A   11 (A) A   18 (A) A      0.0062
     3 (A) A   6 (A) B   11 (A) A   28 (A) B      0.0060
     6 (A) A   8 (A) B   18 (A) A   11 (A) B     -0.0060
     7 (A) A   8 (A) B   16 (A) A   13 (A) B     -0.0057
     3 (A) A   8 (A) A   11 (A) A   18 (A) A      0.0056
     5 (A) A   8 (A) B   10 (A) A   10 (A) B     -0.0056
     3 (A) A   8 (A) B   11 (A) A   30 (A) B      0.0055
     3 (A) A   5 (A) B   11 (A) A   25 (A) B      0.0055
     6 (A) A   8 (A) B   11 (A) A   10 (A) B      0.0054
     7 (A) A   8 (A) B   12 (A) A   10 (A) B     -0.0054
     8 (A) A   8 (A) B   20 (A) A   22 (A) B     -0.0053
     3 (A) A   8 (A) A   11 (A) A   24 (A) A      0.0053
     5 (A) A   8 (A) A   11 (A) A   16 (A) A     -0.0048
    -----------------------------------------------------

  Density matrix analysis:
  ------------------------
  NOs
    Occupation of frontier NOs:
       0.9408   1.0277
    Number of electrons: 16.000000
    Number of unpaired electrons: n_u =  2.31910, n_u,nl =  2.04904
    NO participation ratio (PR_NO):  2.913861
  
  
  Mulliken Population Analysis
  Atom      Charge (e)              h+              e-           Del q
  --------------------------------------------------------------------
   1 H       -0.145864        0.045758       -0.242576       -0.196819
   2 C        0.275027        0.497254       -0.121422        0.375832
   3 H       -0.129628        0.046927       -0.227099       -0.180172
   4 C        0.273485        0.496808       -0.122127        0.374681
   5 H       -0.131040        0.047053       -0.228186       -0.181132
   6 H       -0.141979        0.045833       -0.238222       -0.192389
  --------------------------------------------------------------------
  Sum:       -0.000000        1.179633       -1.179633        0.000000
  
  Multipole moment analysis of the density matrix
    Molecular charge:                      -0.000000
    Number of electrons:                   16.000000
      Center of electronic charge [Ang]: [ -1.560213,  -0.065479,   0.002783]
    Total nuclear charge:                  16.000000
      Center of nuclear charge [Ang]:    [ -1.560576,  -0.065602,   0.002603]
    Dipole moment [D]:                     0.032572
      Cartesian components [D]:          [ -0.027937,  -0.009509,  -0.013786]
    RMS size of the density [Ang]:         1.277159
      Cartesian components [Ang]:        [  0.858775,   0.839849,   0.433929]
  
  Exciton analysis of the difference density matrix
    <r_h> [Ang]:                  [ -1.560086,  -0.065480,   0.001501]
    <r_e> [Ang]:                  [ -1.555566,  -0.063605,   0.005347]
    |<r_e - r_h>| [Ang]:            0.006223
    Hole size [Ang]:                1.394805
      Cartesian components [Ang]: [  0.818133,   0.806906,   0.790596]
    Electron size [Ang]:            2.124203
      Cartesian components [Ang]: [  1.440368,   1.406264,   0.678233]

  Transition density matrix analysis:
  -----------------------------------
  
  CT numbers (Mulliken)
    omega =     0.9298
    <Phe> =    -0.0135
  
  Exciton analysis of the transition density matrix
    Trans. dipole moment [D]:             0.024770
      Cartesian components [D]:         [ -0.018280,   0.016678,   0.001118]
    <r_h> [Ang]:                        [ -1.560382,  -0.065566,   0.000879]
    <r_e> [Ang]:                        [ -1.554741,  -0.063110,   0.005920]
    |<r_e - r_h>| [Ang]:                  0.007954
    Hole size [Ang]:                      1.227922
      Cartesian components [Ang]:       [  0.657721,   0.650233,   0.807708]
    Electron size [Ang]:                  2.262331
      Cartesian components [Ang]:       [  1.534572,   1.498031,   0.720507]
    RMS electron-hole separation [Ang]:   2.563411
      Cartesian components [Ang]:       [  1.661039,   1.625268,   1.081909]
    Covariance(r_h, r_e) [Ang^2]:         0.027460
    Correlation coefficient:              0.009885
    Center-of-mass size [Ang]:            1.292367
      Cartesian components [Ang]:       [  0.839047,   0.820413,   0.541420]

  Decomposition into state-averaged NTOs
    H- 0 -> L+ 2: -0.6650 ( 88.5%)
    H- 1 -> L+ 0: -0.1481 (  4.4%)
                   omega =  93.0%
  ----------------------------------------------------------------------------


  Excited state 5 (singlet, A)                                     [converged]
  ----------------------------------------------------------------------------
  Term symbol:  6 (1) A                                     R^2 =  1.71516e-13

  Total energy:                                            -77.9443029025 a.u.
  Excitation energy:                                              10.212801 eV

  Osc. strength:                                                      0.000002
  Trans. dip. moment [a.u.]:           [   0.001421,    0.002285,    0.000098]
  <i|r^2|0> [a.u.]:                    [  -0.074770,    0.101592,   -0.019903]
  Two-photon absorption cross-section (SoS) [a.u.]:                 178.797551
  Two-photon absorption matrix (SoS) [a.u.]:
[...]
    16   -1.447939989605e-03
    17   -1.856555872048e-03
    18   -9.833889477354e-05
    19   -3.328597797122e-03
    20    1.076235278946e-02
    21    9.348592007101e-01
    22   -2.702940654823e-04
    23    1.398650942320e-02
    24    8.621344269359e-04
    25    7.019961589095e-02
    26   -5.218105296479e-02
    27   -1.398819993685e+00
    28    9.775217844258e-02
    29   -9.271877612450e-02
    30   -2.630589471553e-03
    31    3.847740005247e-01
    32   -3.626823467696e-01
    33   -1.032819323520e-02
    34    1.566555466521e-02
    35   -1.151476426359e-03
    36   -1.798322734615e-03
    37   -8.104272400586e-05
    38   -3.140529517442e-03
    39    9.829848833494e-03
    40    9.323783356806e-01
    41    2.286354059866e-04
    42   -1.393063664778e-02
    43   -8.519010495048e-04
    44    9.951629249892e-03
    45    9.391940786121e-01
    46    1.412966428806e-02
    47    3.814617300083e-04
    48    5.234428892512e-04
Sym=X
Ene= 0.232994
Spin=Alpha
Occup=0
     1    2.611510428731e-02
     2    1.231889761229e+00
     3   -1.428441724905e-02
     4   -3.802253670948e-03
     5   -9.124935405341e-04
     6    2.833478075689e-03
     7   -3.267703701448e-03
     8   -4.409366504805e-02
     9   -1.546934092916e-01
    10   -1.587660348440e-01
    11   -1.743287296707e-02
    12   -5.560097456031e-01
    13   -5.589330701612e-01
    14   -6.267999607720e-02
    15    4.783141132929e-04
    16   -7.426334237460e-05
    17    6.738602380777e-05
    18   -2.158620449479e-04
    19   -3.237942172438e-04
    20   -2.506584302222e-02
    21   -1.163549493816e+00
    22   -2.507124985743e-03
    23   -1.361461287993e-02
    24   -9.951535934601e-04
    25   -2.620977589693e-03
    26    3.070796830686e-03
    27    3.872468598097e-02
    28   -1.539224983080e-01
    29   -1.591527619870e-01
    30   -1.485108165050e-02
    31   -5.482002568445e-01
    32   -5.557269942944e-01
    33   -5.153620318426e-02
    34   -4.867645752916e-04
    35   -1.299203193675e-04
    36   -4.523463301567e-05
    37    3.926764450820e-04
    38    3.450884170736e-04
    39    2.513675080411e-02
    40    1.159723138889e+00
    41   -2.469859929132e-03
    42   -1.364894371492e-02
    43   -8.661162808319e-04
    44   -2.612471322102e-02
    45   -1.221224318092e+00
    46   -1.423823356355e-02
    47   -3.761422665667e-03
    48   -7.475153482474e-04
Sym=X
Ene= 0.239419
Spin=Alpha
Occup=0
     1   -1.599756059688e-02
     2   -1.053032972607e+00
     3    1.654117155943e-02
     4    9.108606450354e-03
     5    1.338845052342e-03
     6   -8.647569564266e-02
     7    7.971590834631e-02
     8    1.592443403063e+00
     9    5.341173992365e-02
    10   -6.033413677666e-02
    11   -3.642144026133e-04
    12    2.117910607362e-01
    13   -2.348391569663e-01
    14   -5.250355259895e-04
    15   -2.255146665072e-02
    16    2.649507198923e-03
    17    2.842348965535e-03
    18   -5.113382530592e-04
    19    1.286273879599e-02
    20   -1.699434615024e-02
    21   -1.122290270400e+00
    22   -8.538583304977e-03
    23   -1.774114739427e-02
    24   -1.395200978936e-03
    25    8.645336779758e-02
    26   -7.929446128162e-02
    27   -1.597279775784e+00
    28    5.372291976841e-02
    29   -6.083234179188e-02
    30   -2.933571077089e-03
    31    2.129504108681e-01
    32   -2.396473091630e-01
    33   -1.146394357020e-02
    34    2.266529998307e-02
    35   -2.302581356095e-03
    36   -2.998024393940e-03
    37    6.877875776787e-04
    38   -1.280605353193e-02
    39    1.671375017374e-02
    40    1.128681324087e+00
    41   -8.635999356873e-03
    42   -1.787295364602e-02
    43   -1.531879361266e-03
    44    1.560143408101e-02
    45    1.052263858752e+00
    46    1.650549595867e-02
    47    9.292735711339e-03
    48    1.128020008024e-03
Sym=X
Ene= 0.303268
Spin=Alpha
Occup=0
     1   -2.076001221819e-02
     2    1.691194559592e+00
     3   -2.291121146195e-02
     4    2.785399517459e-04
     5   -1.131844134702e-03
     6   -1.927754764668e-04
     7    1.722137724004e-04
     8    1.562463010711e-03
     9   -1.338556768576e-01
    10   -1.395016823173e-01
    11   -1.481229237731e-02
    12   -1.144089179355e+00
    13   -1.193799818654e+00
    14   -1.230346806561e-01
    15   -1.314792096566e-04
    16   -1.713808481312e-03
    17    1.733005033334e-03
    18   -3.266362690435e-02
    19   -1.576891485897e-03
    20    1.994261393912e-02
    21   -1.689449262688e+00
    22    1.429122250670e-03
    23   -2.290285767896e-02
    24   -1.248528300265e-03
    25    7.715186414654e-05
    26    2.653686596505e-04
    27   -9.257335721811e-03
    28    1.347862072878e-01
    29    1.403638200014e-01
    30    1.347938759058e-02
    31    1.140734638463e+00
    32    1.197907925443e+00
    33    1.183263238323e-01
    34    1.304968193253e-04
    35   -1.221192716825e-03
    36    2.091469861842e-03
    37   -3.252819770148e-02
    38   -1.732949729249e-03
    39    1.952260958020e-02
    40   -1.692585464922e+00
    41   -1.629743594565e-03
    42    2.284569339096e-02
    43    1.264860659330e-03
    44   -2.018525395800e-02
    45    1.699956154517e+00
    46    2.305831540125e-02
    47   -3.626352197208e-04
    48    8.988393528980e-04
Sym=X
Ene= 0.462081
Spin=Alpha
Occup=0
     1   -1.155883757446e-01
     2   -7.145377998650e-01
     3   -1.566620769210e-02
     4   -1.033673296747e-02
     5   -1.366457406248e-03
     6    6.081524827174e-02
     7    1.735039412526e-02
     8   -3.592421346291e+00
     9    1.030189486702e-01
    10   -9.894875799957e-02
    11   -1.346476562932e-03
    12    2.426470879291e+00
    13   -2.303810273527e+00
    14   -1.883838590729e-02
    15    5.365197428401e-02
    16   -3.262201722675e-03
    17   -4.925373789505e-03
    18   -7.719950602205e-04
    19    1.799223674447e-02
    20   -1.213212376392e-01
    21   -7.024075222434e-01
    22    8.726089001643e-03
    23    1.638142218465e-02
    24    1.436872331240e-03
    25   -6.095519258275e-02
    26   -1.620983115508e-02
    27    3.591289756910e+00
    28    1.052402153340e-01
    29   -1.003923183072e-01
    30   -2.890415704417e-03
    31    2.423679708417e+00
    32   -2.298282151606e+00
    33   -2.573801694415e-02
    34   -5.272004448290e-02
    35    2.841965823341e-03
    36    4.196673832796e-03
    37    6.414374739492e-04
    38   -1.902189575173e-02
    39    1.150877379204e-01
    40    7.090675628838e-01
    41    8.563971696892e-03
    42    1.625701525497e-02
    43    1.206342325165e-03
    44    1.103784636331e-01
    45    7.196701195603e-01
    46   -1.545282255933e-02
    47   -9.951047971407e-03
    48   -1.237716206549e-03
Sym=X
Ene= 0.577524
Spin=Alpha
Occup=0
     1    2.468833596985e-01
     2    4.071364889774e-02
     3   -1.848864036694e-02
     4    2.568822365998e-02
     5    6.549214112504e-04
     6   -4.430191040963e-03
     7   -1.572549524488e-01
     8   -4.676074577416e-01
     9    2.988831547449e-01
    10   -2.880288037594e-01
    11   -3.137159654759e-03
    12   -7.189171574673e-01
    13    6.952817775693e-01
    14    8.937601224953e-03
    15   -5.866819974060e-03
    16    3.830996263053e-03
    17    3.547246259388e-03
    18   -4.405566399599e-03
    19    6.022953530287e-02
    20    2.552902496580e-01
    21    2.882678472185e-02
    22   -2.642427920148e-02
    23    1.646890924360e-02
    24   -2.608652975635e-04
    25   -5.667801584815e-03
    26   -1.579482810117e-01
    27   -4.086784792837e-01
    28   -2.973140483910e-01
    29    2.852603595770e-01
    30    2.760447462627e-03
    31    7.641667353668e-01
    32   -7.338890183602e-01
    33   -1.070166489939e-02
    34   -5.835898770233e-03
    35    3.794331493532e-03
    36    3.497498213973e-03
    37   -3.818646297680e-03
    38    6.018695179561e-02
    39    2.506787449854e-01
    40    5.025063440661e-02
    41    2.723560664609e-02
    42   -1.702000233677e-02
    43    9.075422903444e-05
    44    2.488562506349e-01
    45    5.746511967268e-02
    46    1.842164095290e-02
    47   -2.584221962557e-02
    48   -7.924612172274e-04
Sym=X
Ene= 0.615123
Spin=Alpha
Occup=0
     1   -5.222777218256e-01
     2    1.999706068293e-01
     3   -6.136164518503e-02
     4    3.762042631115e-02
     5   -5.800208571038e-04
     6   -5.910059684960e-04
     7    9.340584286656e-05
     8   -1.751110805734e-02
     9   -4.040410274528e-02
    10   -3.856492678807e-02
    11   -3.701210949324e-03
    12    3.051034323768e-01
    13    2.781583921261e-01
    14    3.294210028557e-02
    15    1.890052041196e-03
    16   -7.512001845599e-03
    17    7.865977706091e-03
    18   -1.479640264882e-01
    19   -6.423240626447e-03
    20    5.079894933839e-01
    21   -2.052338706729e-01
    22    4.178432444071e-02
    23   -5.844727204873e-02
    24   -1.337553521541e-03
    25    4.167718165636e-04
    26   -8.227443668115e-04
    27    2.443242284834e-02
    28   -4.024495835538e-02
    29   -4.036615800159e-02
    30   -4.535638523864e-03
    31    3.056793269127e-01
    32    2.899607112219e-01
    33    2.751061710923e-02
    34   -1.553431912000e-03
    35    6.205450218560e-03
    36   -9.108603529791e-03
    37    1.491108562319e-01
    38    6.326001155953e-03
    39   -5.150092413126e-01
    40    2.073611906257e-01
    41    4.091564279286e-02
    42   -5.856231371750e-02
    43   -1.956335834773e-03
    44    5.217198930889e-01
    45   -2.026423792517e-01
    46   -6.144910149038e-02
    47    3.754545521215e-02
    48   -3.550294602533e-04
Sym=X
Ene= 0.689156
Spin=Alpha
Occup=0
     1    3.291041033597e-03
     2   -5.967120021041e-04
     3    1.558844446821e-03
     4    1.780998339546e-03
     5   -2.095427484539e-02
     6    1.991087750537e-04
     7    1.898862639827e-03
     8    5.741912566892e-04
     9    3.045798779780e-02
    10    4.109836337689e-02
    11   -6.703450912282e-01
    12   -3.250661012526e-02
    13   -3.429374913951e-02
    14    6.135496276749e-01
    15   -2.127664369792e-03
    16    8.280057586440e-02
    17   -7.825520835553e-02
    18   -7.846073649993e-03
    19   -5.440162608074e-04
    20    2.741014953024e-03
    21    1.832272210492e-03
    22    8.262989992065e-04
    23    8.465344547085e-04
    24   -2.095880932287e-02
    25    5.434503591609e-05
    26    3.311574813528e-03
    27   -3.691707495966e-03
    28    2.898802262956e-02
    29    3.747147951004e-02
    30   -6.703457363710e-01
    31   -3.014005950346e-02
    32   -2.981050223972e-02
    33    6.135920501567e-01
    34    4.288023683611e-04
    35   -8.270864440959e-02
    36    7.852728141753e-02
    37    8.729911293258e-03
    38    1.217089441754e-03
    39    3.347998218993e-04
    40   -2.433782630645e-03
    41    7.094079478876e-04
    42    1.915160822891e-03
    43   -2.104253300329e-02
    44    8.653604120520e-04
    45   -4.915234695436e-03
    46   -1.448028689246e-05
    47    9.988689751360e-04
    48   -2.120186689962e-02
Sym=X
Ene= 0.708994
Spin=Alpha
Occup=0
     1   -4.760727175847e-01
     2    1.591062043304e-01
     3   -8.080407746945e-02
     4   -4.431604717096e-02
     5   -6.664820838176e-03
     6   -4.792643272215e-02
     7   -3.198206408148e-01
     8    5.119966723384e-01
     9    2.036478168140e-01
    10   -1.919271536008e-01
    11   -5.103300406704e-03
    12   -9.913555646026e-02
    13    8.216665638061e-02
    14    9.038181573700e-04
    15    1.943193546169e-01
    16   -2.010489677321e-02
    17   -2.379675068254e-02
    18    3.149368268886e-03
    19   -7.754964895389e-02
    20   -4.792043563914e-01
    21    1.509999187790e-01
    22    4.098836431995e-02
    23    8.183699806013e-02
    24    6.498342496415e-03
    25   -4.662612742360e-02
    26   -3.215024482379e-01
    27    4.619844602228e-01
    28   -2.038812771643e-01
    29    1.921602154516e-01
    30   -9.899961643372e-04
    31    6.231557694312e-02
    32   -5.077111650251e-02
    33    6.481701040542e-03
    34    1.937199624931e-01
    35   -1.890678433758e-02
    36   -2.269762890686e-02
    37    2.405064716686e-03
    38   -7.564727219341e-02
    39   -4.718261433799e-01
    40    1.345562854637e-01
    41   -4.071933835103e-02
    42   -8.092762765674e-02
    43   -6.324181515437e-03
    44   -4.737062622099e-01
    45    1.439658299952e-01
    46    8.046053982743e-02
    47    4.399528016166e-02
    48    5.998774278835e-03
Sym=X
Ene= 0.784621
Spin=Alpha
Occup=0
     1    5.260496066406e-01
     2   -4.683494335928e-01
     3    1.101697611426e-01
     4    2.589568105713e-02
     5    6.856975929500e-03
     6    9.090392566235e-02
     7   -2.163647311283e-01
     8   -6.397429931032e-01
     9    1.106655973688e-01
    10   -1.064953855576e-01
    11    4.688259110798e-03
    12    3.168922003098e-01
    13   -2.916759095885e-01
    14   -1.289111521192e-02
    15   -2.060517883773e-01
    16    1.781234327363e-02
    17    2.189258664709e-02
    18   -1.159622709653e-03
    19    9.025131149448e-03
    20    5.354462697749e-01
    21   -4.680700108709e-01
    22   -2.024432583892e-02
    23   -1.122451710664e-01
    24   -7.568582602191e-03
    25   -9.146051334579e-02
    26    2.121269994292e-01
    27    6.571380053790e-01
    28    1.122454517406e-01
    29   -1.048705561018e-01
    30   -5.595381469743e-03
    31    3.068358590539e-01
    32   -2.883993315491e-01
    33    7.411811398450e-03
    34    2.082749563073e-01
    35   -1.469127830149e-02
    36   -2.177402093580e-02
    37    1.822218263673e-03
    38   -9.000363887589e-03
    39   -5.424150629493e-01
    40    4.670630033206e-01
    41   -2.059894092934e-02
    42   -1.131056584692e-01
    43   -7.369527154909e-03
    44   -5.318061330876e-01
    45    4.625951445896e-01
    46    1.100715685673e-01
    47    2.681700808308e-02
    48    6.080381031642e-03
Sym=X
Ene= 0.807969
Spin=Alpha
Occup=0
     1    3.186292089957e-03
     2   -3.559454614743e-04
     3    2.077405476362e-03
     4    1.659943842028e-03
     5   -3.380756400132e-02
     6    6.795460835286e-04
     7   -2.505556354625e-03
     8   -4.761853393459e-04
     9    3.847059259153e-02
    10    4.461865428179e-02
    11   -7.628860988515e-01
    12   -5.347297769468e-02
    13   -6.978680421847e-02
    14    1.126718981296e+00
    15   -7.940362933196e-04
    16   -6.517908103609e-02
    17    6.206808760635e-02
    18    5.663300538286e-03
    19    3.787661723102e-04
    20    3.419575955009e-03
    21   -6.967186270706e-03
    22    1.437122902985e-03
    23    7.942368151791e-04
    24   -3.456413462260e-02
    25   -5.734091008086e-04
    26    8.963427659113e-05
    27    1.847750450203e-03
    28   -3.002001144013e-02
    29   -4.396112276162e-02
    30    7.635799232498e-01
    31    4.806027979343e-02
    32    6.049349355482e-02
    33   -1.127653647491e+00
    34    2.992731602616e-03
    35   -6.530005725743e-02
    36    6.161001408925e-02
    37    7.404930690494e-03
    38    1.284081286037e-03
    39   -3.394204522946e-03
    40    7.682281376981e-03
    41   -1.429704285927e-03
    42   -3.805881757229e-03
    43    3.415745149349e-02
    44   -3.200389746986e-03
    45    9.094262530502e-04
    46   -3.725291171070e-04
    47   -2.445800589677e-03
    48    3.385570435401e-02
Sym=X
Ene= 0.862289
Spin=Alpha
Occup=0
     1    1.409478546116e-02
     2   -1.096787294561e+00
     3    1.486229014948e-01
     4    5.640846006866e-02
     5    1.010299130563e-02
     6    2.506709407812e-04
     7   -7.675891525753e-04
     8    2.318493511273e-03
     9   -4.067852354126e-01
    10   -4.292949712126e-01
    11   -4.687675665440e-02
    12    9.476436519068e-01
    13    9.991295495951e-01
    14    1.087769565446e-01
    15   -9.186866608839e-04
    16    1.093303804364e-02
    17   -1.346989868307e-02
    18    2.354845760696e-01
    19    9.410226297507e-03
    20   -1.374373597905e-02
    21    1.103769325534e+00
    22    5.033872009709e-02
    23    1.514075944545e-01
    24    1.143634553167e-02
    25   -1.898136927952e-04
    26    1.512775250778e-03
    27   -2.351497023376e-03
    28   -4.062135536822e-01
    29   -4.297779138848e-01
    30   -3.951421156907e-02
    31    9.466508816922e-01
    32    1.002929639600e+00
    33    9.252815037473e-02
    34    7.373096651195e-04
    35   -1.074534490202e-02
    36    1.372577803184e-02
    37   -2.365471800528e-01
    38   -1.014602533444e-02
    39    1.140137274611e-02
    40   -1.102083803205e+00
    41    4.891557551040e-02
    42    1.514763900144e-01
    43    1.128192254373e-02
    44   -1.152977516579e-02
    45    1.094799886419e+00
    46    1.488166672039e-01
    47    5.561057158893e-02
    48    9.079416573431e-03
Sym=X
Ene= 0.935999
Spin=Alpha
Occup=0
     1   -1.130611210934e-01
     2    1.278596321812e+00
     3   -1.810040554991e-01
     4    5.441600144058e-03
     5   -8.667170513529e-03
     6    1.775742623563e-05
     7   -3.710096576703e-03
     8    1.581875183983e-03
     9    4.728744406564e-01
    10    4.990666882115e-01
    11    5.138898432085e-02
    12   -1.466147168476e+00
    13   -1.540063409234e+00
    14   -1.586129315285e-01
    15   -1.076570316050e-03
    16   -6.816205116613e-03
    17    6.623695626919e-03
    18   -1.200819964612e-01
    19   -2.287963828505e-03
    20    1.170919789245e-01
    21   -1.286524094624e+00
    22    1.157606096228e-02
    23   -1.829401812710e-01
    24   -9.972049932504e-03
    25   -3.049882589931e-05
    26   -2.184596488483e-03
    27    2.689152671647e-03
    28   -4.746301611273e-01
    29   -4.980804649211e-01
    30   -4.897278482002e-02
    31    1.470549235725e+00
    32    1.534315512616e+00
    33    1.515913770506e-01
    34   -3.127266315619e-04
    35   -4.547451814275e-03
    36    6.944969608214e-03
    37   -1.210684339797e-01
    38   -4.618743451626e-03
    39    1.165756273668e-01
    40   -1.283545905692e+00
    41   -1.333278690897e-02
    42    1.822601554556e-01
    43    9.838840339627e-03
    44   -1.152422112003e-01
    45    1.286762272536e+00
    46    1.820120283078e-01
    47   -5.576086063449e-03
    48    7.272142508375e-03
Sym=X
Ene= 0.972494
Spin=Alpha
Occup=0
     1   -6.474972411672e-02
     2    9.282054005252e-01
     3   -9.132401274052e-02
     4   -9.862998472953e-02
     5   -9.953647488678e-03
     6    2.532146236556e-02
     7    2.553274520598e-01
     8    5.146018971633e-01
     9    4.815306790612e-01
    10   -4.545389020103e-01
    11   -3.310633623870e-03
    12   -1.496175644376e+00
    13    1.407931459870e+00
    14    1.006143686917e-02
    15   -5.371406710054e-02
    16   -1.234372083109e-02
    17   -9.395301937400e-03
    18    1.331012447512e-02
    19   -3.018198045778e-01
    20   -6.263390361758e-02
    21    9.105219425647e-01
    22    9.540790311173e-02
    23    9.318977705146e-02
    24    9.783390662836e-03
    25   -2.509996728673e-02
    26   -2.357512847968e-01
    27   -5.471251104758e-01
    28    4.777486714816e-01
    29   -4.546031895451e-01
    30   -7.429869869753e-03
    31   -1.484244403845e+00
    32    1.415195272804e+00
    33    2.185827966876e-02
    34    5.251211194290e-02
    35    1.201321876249e-02
    36    9.677786958370e-03
    37   -1.392354248003e-02
    38    2.988208774347e-01
    39    6.227261921575e-02
    40   -9.078838770119e-01
    41    9.414880836016e-02
    42    9.265446978069e-02
    43    1.025544784888e-02
    44    6.596012972574e-02
    45   -9.104840901432e-01
    46   -8.892941061942e-02
    47   -9.784521692710e-02
    48   -8.813919047936e-03
[5D]

======= END OF MOLDEN-FORMATTED INPUT FILE =======


        *************************************************************
        *                                                           *
        *  Thank you very much for using Q-Chem.  Have a nice day.  *
        *                                                           *
        *************************************************************


