                  Welcome to Q-Chem
     A Quantum Leap Into The Future Of Chemistry


 Q-Chem 5.4 (devel), Q-Chem, Inc., Pleasanton, CA (2021)

 E. Epifanovsky,  A. T. B. Gilbert,  Xintian Feng,  Joonho Lee,  Yuezhi Mao,  
 N. Mardirossian,  P. Pokhilko,  A. White,  M. Wormit,  M. P. Coons,  
 A. L. Dempwolff,  Zhengting Gan,  D. Hait,  P. R. Horn,  L. D. Jacobson,  
 I. Kaliman,  J. Kussmann,  A. W. Lange,  Ka Un Lao,  D. S. Levine,  Jie Liu,  
 S. C. McKenzie,  A. F. Morrison,  K. Nanda,  F. Plasser,  D. R. Rehn,  
 M. L. Vidal,  Zhi-Qiang You,  Ying Zhu,  B. Alam,  B. Albrecht,  
 A. Aldossary,  E. Alguire,  J. H. Andersen,  D. Barton,  K. Begam,  A. Behn,  
 Y. A. Bernard,  E. J. Berquist,  H. Burton,  A. Carreras,  K. Carter-Fenk,  
 R. Chakraborty,  A. D. Chien,  K. D. Closser,  V. Cofer-Shabica,  
 S. Dasgupta,  Jia Deng,  M. de Wergifosse,  M. Diedenhofen,  Hainam Do,  
 S. Ehlert,  Po-Tung Fang,  S. Fatehi,  Qingguo Feng,  T. Friedhoff,  
 J. Gayvert,  Qinghui Ge,  G. Gidofalvi,  M. Goldey,  J. Gomes,  
 C. Gonzalez-Espinoza,  S. Gulania,  A. Gunina,  M. W. D. Hanson-Heine,  
 P. H. P. Harbach,  A. W. Hauser,  M. F. Herbst,  M. Hernandez Vera,  
 M. Hodecker,  Z. C. Holden,  S. Houck,  Xunkun Huang,  Kerwin Hui,  
 B. C. Huynh,  M. Ivanov,  Hyunjun Ji,  Hanjie Jiang,  B. Kaduk,  S. Kaehler,  
 K. Khistyaev,  Jaehoon Kim,  P. Klunzinger,  Z. Koczor-Benda,  
 Joong Hoon Koh,  D. Kosenkov,  L. Koulias,  T. Kowalczyk,  C. M. Krauter,  
 K. Kue,  A. Kunitsa,  T. Kus,  A. Landau,  K. V. Lawler,  D. Lefrancois,  
 S. Lehtola,  Rain Li,  Yi-Pei Li,  Jiashu Liang,  M. Liebenthal,  
 Hung-Hsuan Lin,  You-Sheng Lin,  Fenglai Liu,  Kuan-Yu Liu,  
 M. Loipersberger,  A. Luenser,  A. Manjanath,  P. Manohar,  E. Mansoor,  
 S. F. Manzer,  Shan-Ping Mao,  A. V. Marenich,  T. Markovich,  S. Mason,  
 S. A. Maurer,  P. F. McLaughlin,  M. F. S. J. Menger,  J.-M. Mewes,  
 S. A. Mewes,  P. Morgante,  J. W. Mullinax,  K. J. Oosterbaan,  G. Paran,  
 Alexander C. Paul,  Suranjan K. Paul,  F. Pavosevic,  Zheng Pei,  S. Prager,  
 E. I. Proynov,  E. Ramos,  B. Rana,  A. E. Rask,  A. Rettig,  R. M. Richard,  
 F. Rob,  E. Rossomme,  T. Scheele,  M. Scheurer,  M. Schneider,  
 N. Sergueev,  S. M. Sharada,  W. Skomorowski,  D. W. Small,  C. J. Stein,  
 Yu-Chuan Su,  E. J. Sundstrom,  Zhen Tao,  J. Thirman,  T. Tsuchimochi,  
 N. M. Tubman,  S. P. Veccham,  O. Vydrov,  J. Wenzel,  J. Witte,  A. Yamada,  
 Kun Yao,  S. Yeganeh,  S. R. Yost,  A. Zech,  Igor Ying Zhang,  Xing Zhang,  
 Yu Zhang,  D. Zuev,  A. Aspuru-Guzik,  A. T. Bell,  N. A. Besley,  
 K. B. Bravaya,  B. R. Brooks,  D. Casanova,  Jeng-Da Chai,  S. Coriani,  
 C. J. Cramer,  A. E. DePrince, III,  R. A. DiStasio Jr.,  A. Dreuw,  
 B. D. Dunietz,  T. R. Furlani,  W. A. Goddard III,  S. Grimme,  
 S. Hammes-Schiffer,  T. Head-Gordon,  W. J. Hehre,  Chao-Ping Hsu,  
 T.-C. Jagau,  Yousung Jung,  A. Klamt,  Jing Kong,  D. S. Lambrecht,  
 WanZhen Liang,  N. J. Mayhall,  C. W. McCurdy,  J. B. Neaton,  
 C. Ochsenfeld,  J. A. Parkhill,  R. Peverati,  V. A. Rassolov,  Yihan Shao,  
 L. V. Slipchenko,  T. Stauch,  R. P. Steele,  J. E. Subotnik,  
 A. J. W. Thom,  A. Tkatchenko,  D. G. Truhlar,  T. Van Voorhis,  
 T. A. Wesolowski,  K. B. Whaley,  H. L. Woodcock III,  P. M. Zimmerman,  
 S. Faraji,  P. M. W. Gill,  M. Head-Gordon,  J. M. Herbert,  A. I. Krylov

 Additional authors for Version 5.4.1: 
 S. Kotaru,  Shaozhi Li,  Xiangyuan Li,  F. Matz,  A. Molle,  Haisheng Ren,  
 Yingli Su,  Hung-Yi Tsai,  C. Utku,  Fang Wang

 Contributors to earlier versions of Q-Chem not listed above: 
 R. D. Adamson,  B. Austin,  R. Baer,  J. Baker,  G. J. O. Beran,  
 K. Brandhorst,  S. T. Brown,  E. F. C. Byrd,  A. K. Chakraborty,  
 G. K. L. Chan,  Chun-Min Chang,  Yunqing Chen,  C.-L. Cheng,  
 Siu Hung Chien,  D. M. Chipman,  D. L. Crittenden,  H. Dachsel,  
 R. J. Doerksen,  A. D. Dutoi,  R. G. Edgar,  J. Fosso-Tande,  
 L. Fusti-Molnar,  D. Ghosh,  A. Ghysels,  A. Golubeva-Zadorozhnaya,  
 J. Gonthier,  M. S. Gordon,  S. R. Gwaltney,  G. Hawkins,  J. E. Herr,  
 A. Heyden,  S. Hirata,  E. G. Hohenstein,  G. Kedziora,  F. J. Keil,  
 C. Kelley,  Jihan Kim,  R. A. King,  R. Z. Khaliullin,  P. P. Korambath,  
 W. Kurlancheek,  A. Laurent,  A. M. Lee,  M. S. Lee,  S. V. Levchenko,  
 Ching Yeh Lin,  D. Liotard,  E. Livshits,  R. C. Lochan,  I. Lotan,  
 L. A. Martinez-Martinez,  P. E. Maslen,  N. Nair,  D. P. O'Neill,  
 D. Neuhauser,  E. Neuscamman,  C. M. Oana,  R. Olivares-Amaya,  R. Olson,  
 T. M. Perrine,  B. Peters,  P. A. Pieniazek,  A. Prociuk,  Y. M. Rhee,  
 J. Ritchie,  M. A. Rohrdanz,  E. Rosta,  N. J. Russ,  H. F. Schaefer III,  
 M. W. Schmidt,  N. E. Schultz,  S. Sharma,  N. Shenvi,  C. D. Sherrill,  
 A. C. Simmonett,  A. Sodt,  T. Stein,  D. Stuck,  K. S. Thanthiriwatte,  
 V. Vanovschi,  L. Vogt,  Tao Wang,  A. Warshel,  M. A. Watson,  
 C. F. Williams,  Q. Wu,  X. Xu,  Jun Yang,  W. Zhang,  Yan Zhao

 Please cite Q-Chem as follows:
 Y. Shao et al., Mol. Phys. 113, 184-215 (2015)
 DOI: 10.1080/00268976.2014.952696

 Q-Chem 5.4.1 for Intel X86 EM64T Linux

 Parts of Q-Chem use Armadillo 9.800.1 (Horizon Scraper).
 http://arma.sourceforge.net/

 Q-Chem begins on Mon Mar 20 18:23:27 2023  

 Host: cpu186.baobab
0

     Scratch files written to /scratch/fum/qchem74847//
 Processing $rem in /home/share/wesolowski/qc5.aug2021.FDE/config/preferences:
 Processing $rem in /home/fum/.qchemrc:

 Checking the input file for inconsistencies... 	...done.

--------------------------------------------------------------
User input:
--------------------------------------------------------------
$comment
generated from CCJob.Templates
$end

$rem
sym_ignore = true
method = adc(2)
ee_states = 10
basis = cc-pVDZ
mem_static = 1024
mem_total = 40000
adc_davidson_maxiter = 900
adc_davidson_conv = 6
adc_print = 3
adc_prop_es = true
adc_prop_es2es = true
adc_prop_tpa = true
molden_format = True
state_analysis = true
print_orbitals = 15
gen_scfman = false
fde_export_density = true
fde_details = 3
$end

$molecule
0 1
H -0.023215495301924353 -0.24299762661082547 0.04817514832830397
C -1.083414745816852 -0.523748095419819 -0.011147818830661788
H -1.3011242207139484 -1.5950684318379702 -0.05369514278756177
C -2.0566716386720256 0.38824119940069785 -0.05079762984456558
H -1.8266331269844216 1.4630748811933432 0.03873917171440989
H -3.1045124344965602 0.11100567636578397 -0.06303254760142725                     
$end
--------------------------------------------------------------
 ----------------------------------------------------------------
             Standard Nuclear Orientation (Angstroms)
    I     Atom           X                Y                Z
 ----------------------------------------------------------------
    1      H      -0.0232154953    -0.2429976266     0.0481751483
    2      C      -1.0834147458    -0.5237480954    -0.0111478188
    3      H      -1.3011242207    -1.5950684318    -0.0536951428
    4      C      -2.0566716387     0.3882411994    -0.0507976298
    5      H      -1.8266331270     1.4630748812     0.0387391717
    6      H      -3.1045124345     0.1110056764    -0.0630325476
 ----------------------------------------------------------------
 Nuclear Repulsion Energy =          33.19345271 hartrees
 There are        8 alpha and        8 beta electrons
 Requested basis set is cc-pVDZ
 There are 24 shells and 48 basis functions
 Total memory of 40000 MB is distributed as follows: 
   MEM_STATIC is set to 1024 MB
   QALLOC/CCMAN JOB total memory use is  38976 MB
 Warning: actual memory use might exceed 40000 MB

 Total QAlloc Memory Limit  40000 MB
 Mega-Array Size      1001 MB
 MEM_STATIC part      1024 MB

                       Distance Matrix (Angstroms)
             H (  1)   C (  2)   H (  3)   C (  4)   H (  5)
   C (  2)  1.098345
   H (  3)  1.863203  1.094045
   C (  4)  2.131479  1.334363  2.122352
   H (  5)  2.482557  2.121869  3.104343  1.102815
   H (  6)  3.103559  2.119066  2.482536  1.083965  1.863176

 A cutoff of  1.0D-11 yielded    300 shell pairs
 There are      1220 function pairs (      1329 Cartesian)
 Smallest overlap matrix eigenvalue = 4.83E-03

 Scale SEOQF with 1.000000e-01/1.000000e-01/1.000000e+00

 Standard Electronic Orientation quadrupole field applied
 Nucleus-field energy     =     0.0000000022 hartrees
 Guess from superposition of atomic densities
 Warning:  Energy on first SCF cycle will be non-variational
 SAD guess density has 16.000000 electrons
 A restricted Hartree-Fock SCF calculation will be
 performed using Pulay DIIS extrapolation
 SCF converges when DIIS error is below 1.0E-08
 using 10 threads for integral computing
 -------------------------------------------------------
 OpenMP Integral computing Module                
 Release: version 1.0, May 2013, Q-Chem Inc. Pittsburgh 
 -------------------------------------------------------
 ---------------------------------------
  Cycle       Energy         DIIS Error
 ---------------------------------------
    1     -78.3947879940      9.91E-02
    2     -78.0170756842      7.12E-03
    3     -78.0375157489      1.82E-03
    4     -78.0389903206      5.62E-04
    5     -78.0391071877      5.85E-05
    6     -78.0391090653      9.91E-06
    7     -78.0391091296      3.14E-06
    8     -78.0391091338      1.13E-06
    9     -78.0391091343      1.28E-07
   10     -78.0391091344      3.70E-08
   11     -78.0391091344      7.80E-09 Convergence criterion met
 ---------------------------------------
 SCF time:  CPU 2.08 s  wall 2.92 s
 SCF   energy in the final basis set = -78.03910913
 Total energy in the final basis set = -78.03910913
Exporting Density Matrix to file 'Densmat_SCF.txt'.
Export successful
================================================================================
|                                                                              |
|                                 A D C  M A N                                 |
|                                                                              |
 ------------------------------------------------------------------------------ 
|                                                                              |
| Components:                                                                  |
|                                                                              |
| - libvmm - 1.3-trunk                                                         |
|   Authors:                                                                   |
|   Evgeny Epifanovsky, Ilya Kaliman                                           |
|                                                                              |
| - libtensor - 2.5-trunk                                                      |
|   Authors:                                                                   |
|   Evgeny Epifanovsky, Michael Wormit, Dmitry Zuev, Sam Manzer,               |
|   Ilya Kaliman                                                               |
|                                                                              |
| - libwfa - 1.1-trunk                                                         |
|   Authors:                                                                   |
|   Felix Plasser, Stefanie Mewes (Baeppler), Benjamin Thomitzni,              |
|   Michael Wormit, Feng Chen, Anna I. Krylov, Pavel Pokhilko                  |
|                                                                              |
| - libadc - 1.1-trunk                                                         |
|   Authors:                                                                   |
|   Michael Wormit, Adrian L. Dempwolff, Philipp H. P. Harbach,                |
|   Caroline Krauter, Dirk Rehn, Matthias Schneider, Jan Wenzel                |
|                                                                              |
| - adcman - 2.6-trunk                                                         |
|   Authors:                                                                   |
|   Michael Wormit, Adrian L. Dempwolff, Philipp H. P. Harbach,                |
|   Caroline Krauter, Daniel Lefrancois, Jan-Michael Mewes, Dirk Rehn,         |
|   Matthias Schneider, Jan Wenzel, Andreas Dreuw                              |
|                                                                              |
| Authors of earlier versions of ADCMAN:                                       |
| Andreas Dreuw, Jan Hendrik Starcke, Dirk Rehn, Michael Wormit                |
|                                                                              |
================================================================================

 Created directory /scratch/fum/qchem74847/plots
  Import QC data ...  CPU 0.00 s  wall 0.00 s

 Alpha MOs, Restricted
 -- Occupied --                  
-11.239 -11.237  -1.030  -0.786  -0.635  -0.582  -0.499  -0.374
  1 A     2 A     3 A     4 A     5 A     6 A     7 A     8 A                  
 -- Virtual --                   
  0.167   0.203   0.231   0.236   0.303   0.462   0.580   0.609
  9 A    10 A    11 A    12 A    13 A    14 A    15 A    16 A                  
  0.689   0.705   0.776   0.807   0.858   0.927   0.970   1.006
 17 A    18 A    19 A    20 A    21 A    22 A    23 A    24 A                  
  1.121   1.236   1.240   1.262   1.298   1.592   1.728   1.744
 25 A    26 A    27 A    28 A    29 A    30 A    31 A    32 A                  
  1.809   1.851   1.856   1.900   1.962   1.973   2.219   2.251
 33 A    34 A    35 A    36 A    37 A    38 A    39 A    40 A                  
  2.352   2.424   2.493   2.621   2.677   2.797   3.094   3.363
 41 A    42 A    43 A    44 A    45 A    46 A    47 A    48 A                  

 Beta MOs, Restricted
 -- Occupied --                  
-11.239 -11.237  -1.030  -0.786  -0.635  -0.582  -0.499  -0.374
  1 A     2 A     3 A     4 A     5 A     6 A     7 A     8 A                  
 -- Virtual --                   
  0.167   0.203   0.231   0.236   0.303   0.462   0.580   0.609
  9 A    10 A    11 A    12 A    13 A    14 A    15 A    16 A                  
  0.689   0.705   0.776   0.807   0.858   0.927   0.970   1.006
 17 A    18 A    19 A    20 A    21 A    22 A    23 A    24 A                  
  1.121   1.236   1.240   1.262   1.298   1.592   1.728   1.744
 25 A    26 A    27 A    28 A    29 A    30 A    31 A    32 A                  
  1.809   1.851   1.856   1.900   1.962   1.973   2.219   2.251
 33 A    34 A    35 A    36 A    37 A    38 A    39 A    40 A                  
  2.352   2.424   2.493   2.621   2.677   2.797   3.094   3.363
 41 A    42 A    43 A    44 A    45 A    46 A    47 A    48 A                  
  Import AO data ...  CPU 0.00 s  wall 0.00 s
  Using point group: C1
  Irreducible representations in point group: A
  Molecular orbitals: 
  Occupied MOs:
  Block   0:   1 (  A) A   2 (  A) A   3 (  A) A   4 (  A) A   5 (  A) A
                  -11.24      -11.24       -1.03     -0.7858     -0.6348
               6 (  A) A   7 (  A) A   8 (  A) A
                  -0.582     -0.4993     -0.3743
  Block   1:   1 (  A) B   2 (  A) B   3 (  A) B   4 (  A) B   5 (  A) B
                  -11.24      -11.24       -1.03     -0.7858     -0.6348
               6 (  A) B   7 (  A) B   8 (  A) B
                  -0.582     -0.4993     -0.3743
  Virtual MOs:
  Block   0:   9 (  A) A  10 (  A) A  11 (  A) A  12 (  A) A  13 (  A) A
                  0.1672      0.2026       0.231      0.2364      0.3029
              14 (  A) A  15 (  A) A  16 (  A) A  17 (  A) A  18 (  A) A
                  0.4624        0.58      0.6087      0.6889      0.7053
              19 (  A) A  20 (  A) A  21 (  A) A  22 (  A) A
                  0.7757      0.8072      0.8583      0.9271
  Block   1:  23 (  A) A  24 (  A) A  25 (  A) A  26 (  A) A  27 (  A) A
                    0.97       1.006       1.121       1.236        1.24
              28 (  A) A  29 (  A) A  30 (  A) A  31 (  A) A  32 (  A) A
                   1.262       1.298       1.592       1.728       1.744
              33 (  A) A  34 (  A) A  35 (  A) A  36 (  A) A
                   1.809       1.851       1.856         1.9
  Block   2:  37 (  A) A  38 (  A) A  39 (  A) A  40 (  A) A  41 (  A) A
                   1.962       1.973       2.219       2.251       2.352
              42 (  A) A  43 (  A) A  44 (  A) A  45 (  A) A  46 (  A) A
                   2.424       2.493       2.621       2.677       2.797
              47 (  A) A  48 (  A) A
                   3.094       3.363
  Block   3:   9 (  A) B  10 (  A) B  11 (  A) B  12 (  A) B  13 (  A) B
                  0.1672      0.2026       0.231      0.2364      0.3029
              14 (  A) B  15 (  A) B  16 (  A) B  17 (  A) B  18 (  A) B
                  0.4624        0.58      0.6087      0.6889      0.7053
              19 (  A) B  20 (  A) B  21 (  A) B  22 (  A) B
                  0.7757      0.8072      0.8583      0.9271
  Block   4:  23 (  A) B  24 (  A) B  25 (  A) B  26 (  A) B  27 (  A) B
                    0.97       1.006       1.121       1.236        1.24
              28 (  A) B  29 (  A) B  30 (  A) B  31 (  A) B  32 (  A) B
                   1.262       1.298       1.592       1.728       1.744
              33 (  A) B  34 (  A) B  35 (  A) B  36 (  A) B
                   1.809       1.851       1.856         1.9
  Block   5:  37 (  A) B  38 (  A) B  39 (  A) B  40 (  A) B  41 (  A) B
                   1.962       1.973       2.219       2.251       2.352
              42 (  A) B  43 (  A) B  44 (  A) B  45 (  A) B  46 (  A) B
                   2.424       2.493       2.621       2.677       2.797
              47 (  A) B  48 (  A) B
                   3.094       3.363
  Import MO data ...  CPU 0.10 s  wall 0.02 s
  Import HF data ...  CPU 0.55 s  wall 0.17 s
  Import 2e integrals ...  CPU 1.33 s  wall 0.24 s

--------------------------------------------------------------------------------
                                   HF Summary                                   
--------------------------------------------------------------------------------
  Energy:                                                  -78.0391091344 a.u.
  Dip. moment [a.u.]:                  [  -0.001404,   -0.005168,    0.025217]
  Total dipole [Debye]:                                               0.065524
  <r^2> [a.u.]:                        [ 177.231337,   35.232566,   11.713266]
  Total <r^2> [a.u.]:                                               224.177169
--------------------------------------------------------------------------------
  HF properties ...  CPU 0.03 s  wall 0.02 s
  MP(1) calculation ...  CPU 0.04 s  wall 0.02 s
  N^6 prerequesite intermediates ...  CPU 0.59 s  wall 0.09 s
  Difference density matrix of state mp2_gs printed to ASCII file 'State_mp2_gs_Difference.txt'
Exporting MP density matrix to file 'Densmat_MP.txt'.
Export successful
  Total density matrix of state mp2_gs printed to ASCII file 'State_mp2_gs_Total.txt'
Exporting MP density matrix to file 'Densmat_MP.txt'.
Export successful

--------------------------------------------------------------------------------
                                 MP(2) Summary                                  
--------------------------------------------------------------------------------
  MP energy contribution:                                   -0.2806283116 a.u.
  Total energy:                                            -78.3197374460 a.u.
  Dip. moment [a.u.]:                  [  -0.001271,   -0.004226,    0.024900]
  Total dipole [Debye]:                                               0.064277
  <r^2> [a.u.]:                        [ 177.274787,   35.265809,   11.539806]
  Total <r^2> [a.u.]:                                               224.080401

  Density matrix analysis:
  ------------------------
  NOs
    Occupation of frontier NOs:
       0.0456   1.9379
    Number of electrons: 16.000000
    Number of unpaired electrons: n_u =  0.40785, n_u,nl =  0.04598
    NO participation ratio (PR_NO): 13.881838
  
  
  Mulliken Population Analysis
  Atom      Charge (e)              h+              e-           Del q
  --------------------------------------------------------------------
   1 H        0.056237        0.013854       -0.011337        0.002517
   2 C       -0.112513        0.094695       -0.100164       -0.005469
   3 H        0.054684        0.013967       -0.011311        0.002656
   4 C       -0.108342        0.094868       -0.099756       -0.004888
   5 H        0.056352        0.013867       -0.011330        0.002537
   6 H        0.053581        0.013971       -0.011324        0.002647
  --------------------------------------------------------------------
  Sum:       -0.000000        0.245223       -0.245223        0.000000
  
  Multipole moment analysis of the density matrix
    Molecular charge:                      -0.000000
    Number of electrons:                   16.000000
      Center of electronic charge [Ang]: [ -1.568458,  -0.067174,  -0.025916]
    Total nuclear charge:                  16.000000
      Center of nuclear charge [Ang]:    [ -1.568500,  -0.067314,  -0.025093]
    Dipole moment [D]:                     0.064277
      Cartesian components [D]:          [ -0.003232,  -0.010742,   0.063290]
    RMS size of the density [Ang]:         1.206881
      Cartesian components [Ang]:        [  0.801601,   0.782753,   0.448660]
  
  Exciton analysis of the difference density matrix
    <r_h> [Ang]:                  [ -1.567083,  -0.065382,  -0.029852]
    <r_e> [Ang]:                  [ -1.567368,  -0.067414,  -0.029169]
    |<r_e - r_h>| [Ang]:            0.002162
    Hole size [Ang]:                1.402209
      Cartesian components [Ang]: [  0.852898,   0.840720,   0.729346]
    Electron size [Ang]:            1.361824
      Cartesian components [Ang]: [  0.880998,   0.862845,   0.577845]
--------------------------------------------------------------------------------
  MP(2) calculation ...  CPU 0.35 s  wall 0.20 s
  Start ADC(2)-s ...  CPU 0.02 s  wall 0.01 s
  ADC(2) intermediates ...  CPU 0.04 s  wall 0.01 s
  Starting Davidson for singlet states of irrep A ... 
--------------------------------------------------------------------------------
   It NVec Conv  Avg. Norm  Max. Norm  Conv. states           Remark
--------------------------------------------------------------------------------
        10    0  1.329e-01  4.686e-01  0.4114 n n n n n n n n Guess.
    1   20    0  2.843e-02  1.637e-01  0.3255 n n n n n n n n 
    2   30    0  6.695e-03  2.927e-02  0.3207 n n n n n n n n 
    3   40    0  2.649e-03  1.531e-02  0.3203 n n n n n n n n 
    4   50    0  1.103e-03  8.398e-03  0.3203 n n n n n n n n 
    5   20    0  7.792e-04  6.380e-03  0.3203 n n n n n n n n Subspace collapsed.
    6   30    0  1.012e-03  8.054e-03  0.3203 n n n n n n n n 
    7   40    0  7.425e-04  5.207e-03  0.3203 n n n n n n n n 
    8   50    0  4.110e-04  2.982e-03  0.3203 n n n n n n n n 
    9   20    0  2.627e-04  1.917e-03  0.3203 n n n n n n n n Subspace collapsed.
   10   30    0  1.445e-04  1.109e-03  0.3203 n n n n n n n n 
   11   40    4  7.477e-05  5.763e-04  0.3203 y y y y n n n n 
   12   50    4  3.207e-05  2.403e-04  0.3203 y y y y n n n n 
   13   20    5  2.739e-05  1.962e-04  0.3203 y y y y y n n n Subspace collapsed.
   14   30    6  2.647e-05  1.701e-04  0.3203 y y y y y y n n 
   15   40    6  2.335e-05  1.579e-04  0.3203 y y y y y y n n 
   16   50    6  1.458e-05  9.776e-05  0.3203 y y y y y y n n 
   17   20    6  6.739e-06  4.439e-05  0.3203 y y y y y y n n Subspace collapsed.
   18   30    6  5.014e-06  3.326e-05  0.3203 y y y y y y n n 
   19   40    7  2.238e-06  1.510e-05  0.3203 y y y y y y y n 
   20   50    7  2.167e-06  1.526e-05  0.3203 y y y y y y y n 
   21   20    7  1.131e-06  8.119e-06  0.3203 y y y y y y y n Subspace collapsed.
   22   30    7  2.368e-06  1.791e-05  0.3203 y y y y y y y n 
   23   40    7  2.217e-06  1.799e-05  0.3203 y y y y y y y n 
   24   50    7  1.617e-06  1.401e-05  0.3203 y y y y y y y n 
   25   18    8  9.362e-07  8.166e-06  0.3203 y y y y y y y y Subspace collapsed.
   26   25    8  7.545e-07  6.561e-06  0.3203 y y y y y y y y 
   27   32    8  3.294e-07  2.895e-06  0.3203 y y y y y y y y 
   28   39    8  3.276e-07  2.942e-06  0.3203 y y y y y y y y 
   29   45    8  4.210e-07  3.881e-06  0.3203 y y y y y y y y 
   30   50    8  3.548e-07  3.368e-06  0.3203 y y y y y y y y 
   31   15    9  1.744e-07  1.657e-06  0.3203 y y y y y y y y Subspace collapsed.
   32   19    9  1.421e-07  1.353e-06  0.3203 y y y y y y y y 
   33   23   10  9.474e-08  9.055e-07  0.3203 y y y y y y y y Converged.
--------------------------------------------------------------------------------
  Davidson Summary: 
 ------------------------------------------------------------
  State  0: excitation energy =   0.3203 a.u.   (converged)
  State  1: excitation energy =   0.3283 a.u.   (converged)
  State  2: excitation energy =   0.3358 a.u.   (converged)
  State  3: excitation energy =   0.3578 a.u.   (converged)
  State  4: excitation energy =   0.3730 a.u.   (converged)
  State  5: excitation energy =   0.3861 a.u.   (converged)
  State  6: excitation energy =   0.4199 a.u.   (converged)
  State  7: excitation energy =   0.4429 a.u.   (converged)
  State  8: excitation energy =   0.4534 a.u.   (converged)
  State  9: excitation energy =   0.4583 a.u.   (converged)
 ------------------------------------------------------------

  Singlet states of irrep A ...  CPU 221.57 s  wall 71.89 s
  TDMs ...  CPU 3.33 s  wall 1.04 s
  SDMs ...  CPU 8.76 s  wall 2.32 s
  Starting TPA DIIS iterations ... 
------------------------------------ 
   It     Res. Norm  Remark
------------------------------------
                       Guess.
    1     4.431e+00  
    2     5.882e+00  
    3     1.088e+00  
    4     2.627e-01  
    5     6.616e-02  
    6     2.772e-02  
    7     8.481e-03  
    8     1.575e-03  
    9     5.975e-04  
   10     1.001e-04  
   11     3.699e-05  
   12     6.409e-06  
   13     3.323e-06  
   14     1.056e-06  
   15     5.012e-07  Converged.
   ... Converged in 15 steps (norm: 5.01237e-07)
------------------------------------
  Starting TPA DIIS iterations ... 
------------------------------------ 
   It     Res. Norm  Remark
------------------------------------
                       Guess.
    1     4.163e+00  
    2     5.522e+00  
    3     1.039e+00  
    4     2.659e-01  
    5     6.607e-02  
    6     2.841e-02  
    7     8.394e-03  
    8     1.674e-03  
    9     6.322e-04  
   10     1.021e-04  
   11     3.902e-05  
   12     6.441e-06  
   13     3.153e-06  
   14     9.223e-07  Converged.
   ... Converged in 14 steps (norm: 9.223e-07)
------------------------------------
  Starting TPA DIIS iterations ... 
------------------------------------ 
   It     Res. Norm  Remark
------------------------------------
                       Guess.
    1     7.656e-01  
    2     6.456e-01  
    3     2.028e-01  
    4     1.344e-01  
    5     1.718e-02  
    6     6.337e-03  
    7     1.110e-03  
    8     4.532e-04  
    9     1.588e-04  
   10     2.321e-05  
   11     1.764e-05  
   12     6.573e-06  
   13     2.895e-06  
   14     9.354e-07  Converged.
   ... Converged in 14 steps (norm: 9.35403e-07)
------------------------------------
  Starting TPA DIIS iterations ... 
------------------------------------ 
   It     Res. Norm  Remark
------------------------------------
                       Guess.
    1     4.625e+00  
    2     6.231e+00  
    3     1.144e+00  
    4     2.824e-01  
    5     7.178e-02  
    6     3.027e-02  
    7     9.250e-03  
    8     1.721e-03  
    9     6.566e-04  
   10     1.100e-04  
   11     4.135e-05  
   12     7.228e-06  
   13     3.843e-06  
   14     1.241e-06  
   15     5.884e-07  Converged.
   ... Converged in 15 steps (norm: 5.88434e-07)
------------------------------------
  Starting TPA DIIS iterations ... 
------------------------------------ 
   It     Res. Norm  Remark
------------------------------------
                       Guess.
    1     4.345e+00  
    2     5.849e+00  
    3     1.091e+00  
    4     2.856e-01  
    5     7.169e-02  
    6     3.106e-02  
    7     9.159e-03  
    8     1.833e-03  
    9     6.957e-04  
   10     1.122e-04  
   11     4.359e-05  
   12     7.231e-06  
   13     3.636e-06  
   14     1.081e-06  
   15     5.115e-07  Converged.
   ... Converged in 15 steps (norm: 5.11532e-07)
------------------------------------
  Starting TPA DIIS iterations ... 
------------------------------------ 
   It     Res. Norm  Remark
------------------------------------
                       Guess.
    1     7.797e-01  
    2     6.713e-01  
    3     2.115e-01  
    4     1.404e-01  
    5     1.818e-02  
    6     6.785e-03  
    7     1.205e-03  
    8     5.012e-04  
    9     1.764e-04  
   10     2.648e-05  
   11     1.990e-05  
   12     7.456e-06  
   13     3.369e-06  
   14     1.026e-06  
   15     4.021e-07  Converged.
   ... Converged in 15 steps (norm: 4.02108e-07)
------------------------------------
  Starting TPA DIIS iterations ... 
------------------------------------ 
   It     Res. Norm  Remark
------------------------------------
                       Guess.
    1     4.821e+00  
    2     6.587e+00  
    3     1.199e+00  
    4     3.027e-01  
    5     7.762e-02  
    6     3.293e-02  
    7     1.005e-02  
    8     1.872e-03  
    9     7.186e-04  
   10     1.203e-04  
   11     4.601e-05  
   12     8.107e-06  
   13     4.414e-06  
   14     1.450e-06  
   15     6.853e-07  Converged.
   ... Converged in 15 steps (norm: 6.8535e-07)
------------------------------------
  Starting TPA DIIS iterations ... 
------------------------------------ 
   It     Res. Norm  Remark
------------------------------------
                       Guess.
    1     4.529e+00  
    2     6.183e+00  
    3     1.143e+00  
    4     3.060e-01  
    5     7.752e-02  
    6     3.382e-02  
    7     9.954e-03  
    8     1.998e-03  
    9     7.624e-04  
   10     1.227e-04  
   11     4.846e-05  
   12     8.073e-06  
   13     4.167e-06  
   14     1.260e-06  
   15     5.969e-07  Converged.
   ... Converged in 15 steps (norm: 5.96923e-07)
------------------------------------
  Starting TPA DIIS iterations ... 
------------------------------------ 
   It     Res. Norm  Remark
------------------------------------
                       Guess.
    1     7.936e-01  
    2     6.974e-01  
    3     2.201e-01  
    4     1.463e-01  
    5     1.920e-02  
    6     7.249e-03  
    7     1.304e-03  
    8     5.516e-04  
    9     1.949e-04  
   10     3.032e-05  
   11     2.233e-05  
   12     8.421e-06  
   13     3.909e-06  
   14     1.195e-06  
   15     4.861e-07  Converged.
   ... Converged in 15 steps (norm: 4.86147e-07)
------------------------------------
  Starting TPA DIIS iterations ... 
------------------------------------ 
   It     Res. Norm  Remark
------------------------------------
                       Guess.
    1     5.483e+00  
    2     7.820e+00  
    3     1.385e+00  
    4     3.756e-01  
    5     9.850e-02  
    6     4.256e-02  
    7     1.291e-02  
    8     2.422e-03  
    9     9.457e-04  
   10     1.577e-04  
   11     6.364e-05  
   12     1.147e-05  
   13     6.718e-06  
   14     2.333e-06  
   15     1.083e-06  
   16     4.109e-07  Converged.
   ... Converged in 16 steps (norm: 4.10942e-07)
------------------------------------
  Starting TPA DIIS iterations ... 
------------------------------------ 
   It     Res. Norm  Remark
------------------------------------
                       Guess.
    1     5.148e+00  
    2     7.339e+00  
    3     1.320e+00  
    4     3.791e-01  
    5     9.840e-02  
    6     4.383e-02  
    7     1.281e-02  
    8     2.601e-03  
    9     1.007e-03  
   10     1.606e-04  
   11     6.679e-05  
   12     1.124e-05  
   13     6.301e-06  
   14     2.031e-06  
   15     9.493e-07  Converged.
   ... Converged in 15 steps (norm: 9.49306e-07)
------------------------------------
  Starting TPA DIIS iterations ... 
------------------------------------ 
   It     Res. Norm  Remark
------------------------------------
                       Guess.
    1     8.393e-01  
    2     7.867e-01  
    3     2.485e-01  
    4     1.655e-01  
    5     2.271e-02  
    6     8.899e-03  
    7     1.672e-03  
    8     7.304e-04  
    9     2.613e-04  
   10     4.740e-05  
   11     3.179e-05  
   12     1.227e-05  
   13     6.093e-06  
   14     2.157e-06  
   15     1.182e-06  
   16     4.343e-07  Converged.
   ... Converged in 16 steps (norm: 4.34252e-07)
------------------------------------
  Starting TPA DIIS iterations ... 
------------------------------------ 
   It     Res. Norm  Remark
------------------------------------
                       Guess.
    1     6.033e+00  
    2     8.878e+00  
    3     1.539e+00  
    4     4.407e-01  
    5     1.171e-01  
    6     5.127e-02  
    7     1.546e-02  
    8     2.919e-03  
    9     1.154e-03  
   10     1.913e-04  
   11     8.042e-05  
   12     1.473e-05  
   13     9.083e-06  
   14     3.293e-06  
   15     1.502e-06  
   16     5.718e-07  Converged.
   ... Converged in 16 steps (norm: 5.71844e-07)
------------------------------------
  Starting TPA DIIS iterations ... 
------------------------------------ 
   It     Res. Norm  Remark
------------------------------------
                       Guess.
    1     5.662e+00  
    2     8.332e+00  
    3     1.466e+00  
    4     4.442e-01  
    5     1.170e-01  
    6     5.291e-02  
    7     1.536e-02  
    8     3.150e-03  
    9     1.233e-03  
   10     1.945e-04  
   11     8.412e-05  
   12     1.424e-05  
   13     8.487e-06  
   14     2.883e-06  
   15     1.322e-06  
   16     4.837e-07  Converged.
   ... Converged in 16 steps (norm: 4.83662e-07)
------------------------------------
  Starting TPA DIIS iterations ... 
------------------------------------ 
   It     Res. Norm  Remark
------------------------------------
                       Guess.
    1     8.760e-01  
    2     8.624e-01  
    3     2.710e-01  
    4     1.806e-01  
    5     2.569e-02  
    6     1.037e-02  
    7     2.014e-03  
    8     8.795e-04  
    9     3.193e-04  
   10     6.580e-05  
   11     4.114e-05  
   12     1.621e-05  
   13     8.217e-06  
   14     3.191e-06  
   15     1.833e-06  
   16     6.100e-07  Converged.
   ... Converged in 16 steps (norm: 6.09964e-07)
------------------------------------
  Starting TPA DIIS iterations ... 
------------------------------------ 
   It     Res. Norm  Remark
------------------------------------
                       Guess.
    1     6.582e+00  
    2     9.965e+00  
    3     1.692e+00  
    4     5.094e-01  
    5     1.368e-01  
    6     6.057e-02  
    7     1.816e-02  
    8     3.453e-03  
    9     1.380e-03  
   10     2.269e-04  
   11     9.900e-05  
   12     1.840e-05  
   13     1.186e-05  
   14     4.476e-06  
   15     2.005e-06  
   16     7.578e-07  Converged.
   ... Converged in 16 steps (norm: 7.57795e-07)
------------------------------------
  Starting TPA DIIS iterations ... 
------------------------------------ 
   It     Res. Norm  Remark
------------------------------------
                       Guess.
    1     6.176e+00  
    2     9.351e+00  
    3     1.610e+00  
    4     5.130e-01  
    5     1.367e-01  
    6     6.261e-02  
    7     1.806e-02  
    8     3.742e-03  
    9     1.477e-03  
   10     2.304e-04  
   11     1.031e-04  
   12     1.757e-05  
   13     1.105e-05  
   14     3.944e-06  
   15     1.771e-06  
   16     6.515e-07  Converged.
   ... Converged in 16 steps (norm: 6.51483e-07)
------------------------------------
  Starting TPA DIIS iterations ... 
------------------------------------ 
   It     Res. Norm  Remark
------------------------------------
                       Guess.
    1     9.119e-01  
    2     9.395e-01  
    3     2.926e-01  
    4     1.952e-01  
    5     2.874e-02  
    6     1.191e-02  
    7     2.388e-03  
    8     1.020e-03  
    9     3.787e-04  
   10     8.722e-05  
   11     5.185e-05  
   12     2.089e-05  
   13     1.051e-05  
   14     4.320e-06  
   15     2.564e-06  
   16     8.365e-07  Converged.
   ... Converged in 16 steps (norm: 8.3651e-07)
------------------------------------
  Starting TPA DIIS iterations ... 
------------------------------------ 
   It     Res. Norm  Remark
------------------------------------
                       Guess.
    1     8.435e+00  
    2     1.383e+01  
    3     2.198e+00  
    4     7.648e-01  
    5     2.099e-01  
    6     9.590e-02  
    7     2.823e-02  
    8     5.513e-03  
    9     2.263e-03  
   10     3.596e-04  
   11     1.729e-04  
   12     3.392e-05  
   13     2.424e-05  
   14     1.025e-05  
   15     4.432e-06  
   16     1.564e-06  
   17     6.949e-07  Converged.
   ... Converged in 17 steps (norm: 6.94879e-07)
------------------------------------
  Starting TPA DIIS iterations ... 
------------------------------------ 
   It     Res. Norm  Remark
------------------------------------
                       Guess.
    1     7.911e+00  
    2     1.297e+01  
    3     2.090e+00  
    4     7.680e-01  
    5     2.100e-01  
    6     9.961e-02  
    7     2.814e-02  
    8     6.053e-03  
    9     2.434e-03  
   10     3.636e-04  
   11     1.776e-04  
   12     3.142e-05  
   13     2.234e-05  
   14     9.196e-06  
   15     3.989e-06  
   16     1.414e-06  
   17     6.470e-07  Converged.
   ... Converged in 17 steps (norm: 6.4696e-07)
------------------------------------
  Starting TPA DIIS iterations ... 
------------------------------------ 
   It     Res. Norm  Remark
------------------------------------
                       Guess.
    1     1.030e+00  
    2     1.211e+00  
    3     3.600e-01  
    4     2.420e-01  
    5     3.941e-02  
    6     1.758e-02  
    7     3.852e-03  
    8     1.387e-03  
    9     5.838e-04  
   10     1.755e-04  
   11     9.816e-05  
   12     4.256e-05  
   13     1.839e-05  
   14     7.477e-06  
   15     5.379e-06  
   16     1.885e-06  
   17     4.857e-07  Converged.
   ... Converged in 17 steps (norm: 4.85742e-07)
------------------------------------
  Starting TPA DIIS iterations ... 
------------------------------------ 
   It     Res. Norm  Remark
------------------------------------
                       Guess.
    1     1.024e+01  
    2     1.785e+01  
    3     2.679e+00  
    4     1.040e+00  
    5     2.894e-01  
    6     1.353e-01  
    7     3.921e-02  
    8     7.887e-03  
    9     3.283e-03  
   10     5.032e-04  
   11     2.577e-04  
   12     5.432e-05  
   13     4.018e-05  
   14     1.851e-05  
   15     8.159e-06  
   16     2.689e-06  
   17     1.487e-06  
   18     3.379e-07  Converged.
   ... Converged in 18 steps (norm: 3.37944e-07)
------------------------------------
  Starting TPA DIIS iterations ... 
------------------------------------ 
   It     Res. Norm  Remark
------------------------------------
                       Guess.
    1     9.598e+00  
    2     1.674e+01  
    3     2.545e+00  
    4     1.042e+00  
    5     2.897e-01  
    6     1.410e-01  
    7     3.915e-02  
    8     8.752e-03  
    9     3.538e-03  
   10     5.072e-04  
   11     2.615e-04  
   12     4.997e-05  
   13     3.667e-05  
   14     1.675e-05  
   15     7.523e-06  
   16     2.537e-06  
   17     1.448e-06  
   18     3.816e-07  Converged.
   ... Converged in 18 steps (norm: 3.81554e-07)
------------------------------------
  Starting TPA DIIS iterations ... 
------------------------------------ 
   It     Res. Norm  Remark
------------------------------------
                       Guess.
    1     1.142e+00  
    2     1.492e+00  
    3     4.188e-01  
    4     2.851e-01  
    5     5.031e-02  
    6     2.342e-02  
    7     5.494e-03  
    8     1.615e-03  
    9     7.883e-04  
   10     2.774e-04  
   11     1.579e-04  
   12     7.290e-05  
   13     2.691e-05  
   14     1.378e-05  
   15     5.864e-06  
   16     3.484e-06  
   17     1.330e-06  
   18     3.768e-07  Converged.
   ... Converged in 18 steps (norm: 3.76791e-07)
------------------------------------
  Starting TPA DIIS iterations ... 
------------------------------------ 
   It     Res. Norm  Remark
------------------------------------
                       Guess.
    1     1.126e+01  
    2     2.024e+01  
    3     2.948e+00  
    4     1.206e+00  
    5     3.379e-01  
    6     1.597e-01  
    7     4.590e-02  
    8     9.399e-03  
    9     3.927e-03  
   10     5.900e-04  
   11     3.105e-04  
   12     6.868e-05  
   13     5.072e-05  
   14     2.426e-05  
   15     1.098e-05  
   16     3.544e-06  
   17     2.180e-06  
   18     4.848e-07  Converged.
   ... Converged in 18 steps (norm: 4.84794e-07)
------------------------------------
  Starting TPA DIIS iterations ... 
------------------------------------ 
   It     Res. Norm  Remark
------------------------------------
                       Guess.
    1     1.056e+01  
    2     1.898e+01  
    3     2.799e+00  
    4     1.207e+00  
    5     3.383e-01  
    6     1.667e-01  
    7     4.587e-02  
    8     1.049e-02  
    9     4.235e-03  
   10     5.941e-04  
   11     3.136e-04  
   12     6.343e-05  
   13     4.613e-05  
   14     2.202e-05  
   15     1.022e-05  
   16     3.396e-06  
   17     2.141e-06  
   18     6.788e-07  Converged.
   ... Converged in 18 steps (norm: 6.78796e-07)
------------------------------------
  Starting TPA DIIS iterations ... 
------------------------------------ 
   It     Res. Norm  Remark
------------------------------------
                       Guess.
    1     1.207e+00  
    2     1.658e+00  
    3     4.499e-01  
    4     3.089e-01  
    5     5.671e-02  
    6     2.672e-02  
    7     6.488e-03  
    8     1.728e-03  
    9     9.070e-04  
   10     3.402e-04  
   11     1.982e-04  
   12     9.443e-05  
   13     3.469e-05  
   14     2.364e-05  
   15     8.125e-06  
   16     4.680e-06  
   17     1.707e-06  
   18     4.513e-07  Converged.
   ... Converged in 18 steps (norm: 4.51344e-07)
------------------------------------
  Starting TPA DIIS iterations ... 
------------------------------------ 
   It     Res. Norm  Remark
------------------------------------
                       Guess.
    1     1.180e+01  
    2     2.152e+01  
    3     3.088e+00  
    4     1.296e+00  
    5     3.642e-01  
    6     1.731e-01  
    7     4.953e-02  
    8     1.024e-02  
    9     4.283e-03  
   10     6.370e-04  
   11     3.396e-04  
   12     7.711e-05  
   13     5.667e-05  
   14     2.756e-05  
   15     1.266e-05  
   16     4.065e-06  
   17     2.621e-06  
   18     6.426e-07  Converged.
   ... Converged in 18 steps (norm: 6.4265e-07)
------------------------------------
  Starting TPA DIIS iterations ... 
------------------------------------ 
   It     Res. Norm  Remark
------------------------------------
                       Guess.
    1     1.106e+01  
    2     2.019e+01  
    3     2.931e+00  
    4     1.295e+00  
    5     3.646e-01  
    6     1.808e-01  
    7     4.953e-02  
    8     1.146e-02  
    9     4.619e-03  
   10     6.411e-04  
   11     3.422e-04  
   12     7.146e-05  
   13     5.149e-05  
   14     2.506e-05  
   15     1.182e-05  
   16     3.915e-06  
   17     2.584e-06  
   18     9.046e-07  Converged.
   ... Converged in 18 steps (norm: 9.04607e-07)
------------------------------------
  Starting TPA DIIS iterations ... 
------------------------------------ 
   It     Res. Norm  Remark
------------------------------------
                       Guess.
    1     1.240e+00  
    2     1.748e+00  
    3     4.657e-01  
    4     3.212e-01  
    5     6.012e-02  
    6     2.843e-02  
    7     7.023e-03  
    8     1.789e-03  
    9     9.701e-04  
   10     3.743e-04  
   11     2.211e-04  
   12     1.070e-04  
   13     4.023e-05  
   14     2.914e-05  
   15     8.848e-06  
   16     5.376e-06  
   17     1.975e-06  
   18     4.974e-07  Converged.
   ... Converged in 18 steps (norm: 4.97356e-07)
------------------------------------
  Two-photon absorbption ...  CPU 178.20 s  wall 49.00 s
  Transition density matrix of state singlet_A_1 printed to ASCII file 'State_singlet_A_1_Transition.txt'
  Transition density matrix of state singlet_A_2 printed to ASCII file 'State_singlet_A_2_Transition.txt'
  Transition density matrix of state singlet_A_3 printed to ASCII file 'State_singlet_A_3_Transition.txt'
  Transition density matrix of state singlet_A_4 printed to ASCII file 'State_singlet_A_4_Transition.txt'
  Transition density matrix of state singlet_A_5 printed to ASCII file 'State_singlet_A_5_Transition.txt'
  Transition density matrix of state singlet_A_6 printed to ASCII file 'State_singlet_A_6_Transition.txt'
  Transition density matrix of state singlet_A_7 printed to ASCII file 'State_singlet_A_7_Transition.txt'
  Transition density matrix of state singlet_A_8 printed to ASCII file 'State_singlet_A_8_Transition.txt'
  Transition density matrix of state singlet_A_9 printed to ASCII file 'State_singlet_A_9_Transition.txt'
  Transition density matrix of state singlet_A_10 printed to ASCII file 'State_singlet_A_10_Transition.txt'
  Transition properties ...  CPU 0.33 s  wall 0.50 s
  Difference density matrix of state singlet_A_1 printed to ASCII file 'State_singlet_A_1_Difference.txt'
  Total density matrix of state singlet_A_1 printed to ASCII file 'State_singlet_A_1_Total.txt'
  Difference density matrix of state singlet_A_2 printed to ASCII file 'State_singlet_A_2_Difference.txt'
  Total density matrix of state singlet_A_2 printed to ASCII file 'State_singlet_A_2_Total.txt'
  Difference density matrix of state singlet_A_3 printed to ASCII file 'State_singlet_A_3_Difference.txt'
  Total density matrix of state singlet_A_3 printed to ASCII file 'State_singlet_A_3_Total.txt'
  Difference density matrix of state singlet_A_4 printed to ASCII file 'State_singlet_A_4_Difference.txt'
  Total density matrix of state singlet_A_4 printed to ASCII file 'State_singlet_A_4_Total.txt'
  Difference density matrix of state singlet_A_5 printed to ASCII file 'State_singlet_A_5_Difference.txt'
  Total density matrix of state singlet_A_5 printed to ASCII file 'State_singlet_A_5_Total.txt'
  Difference density matrix of state singlet_A_6 printed to ASCII file 'State_singlet_A_6_Difference.txt'
  Total density matrix of state singlet_A_6 printed to ASCII file 'State_singlet_A_6_Total.txt'
  Difference density matrix of state singlet_A_7 printed to ASCII file 'State_singlet_A_7_Difference.txt'
  Total density matrix of state singlet_A_7 printed to ASCII file 'State_singlet_A_7_Total.txt'
  Difference density matrix of state singlet_A_8 printed to ASCII file 'State_singlet_A_8_Difference.txt'
  Total density matrix of state singlet_A_8 printed to ASCII file 'State_singlet_A_8_Total.txt'
  Difference density matrix of state singlet_A_9 printed to ASCII file 'State_singlet_A_9_Difference.txt'
  Total density matrix of state singlet_A_9 printed to ASCII file 'State_singlet_A_9_Total.txt'
  Difference density matrix of state singlet_A_10 printed to ASCII file 'State_singlet_A_10_Difference.txt'
  Total density matrix of state singlet_A_10 printed to ASCII file 'State_singlet_A_10_Total.txt'
  Properties ...  CPU 0.69 s  wall 0.86 s
  ISR TDMS ...  CPU 30.29 s  wall 9.69 s
  ISR transition properties ...  CPU 0.51 s  wall 0.26 s
  Sum-over-states TPA ...  CPU 0.00 s  wall 0.00 s

--------------------------------------------------------------------------------
                   State-averaged natural transition orbitals
--------------------------------------------------------------------------------
--------------------------------------------------------------------------------
  SA-NTO decomposition ...  CPU 0.01 s  wall 0.03 s

--------------------------------------------------------------------------------
                             Excited State Summary
--------------------------------------------------------------------------------
--------------------------------------------------------------------------------

  Excited state 1 (singlet, A)                                     [converged]
  ----------------------------------------------------------------------------
  Term symbol:  2 (1) A                                     R^2 =  7.37870e-13

  Total energy:                                            -77.9994292206 a.u.
  Excitation energy:                                               8.716030 eV

  Osc. strength:                                                      0.443242
  Trans. dip. moment [a.u.]:           [   1.046348,   -0.989257,    0.047170]
  <i|r^2|0> [a.u.]:                    [   6.186765,   -0.236783,    0.010256]
  Two-photon absorption cross-section (SoS) [a.u.]:                   0.017580
  Two-photon absorption matrix (SoS) [a.u.]:
                                       |   -0.016279   -0.009371   -0.019886 |
                                       |   -0.009371    0.018380    0.028747 |
                                       |   -0.019886    0.028747    0.027244 |
  Two-photon absorption cross-section [a.u.]:                         0.054552
  Two-photon absorption matrix [a.u.]:
                                       |    0.008965   -0.002487   -0.043502 |
                                       |   -0.002487    0.047469    0.047010 |
                                       |   -0.043502    0.047010    0.017938 |

  Dip. moment [a.u.]:                  [   0.003446,   -0.009373,    0.030210]
  Total dipole [Debye]:                                               0.080874
  <r^2> [a.u.]:                        [ 178.076108,   35.958844,   11.948245]
  Total <r^2> [a.u.]:                                               225.983196

  V1^2 = 0.9712, V2^2 = 0.0288

  Important amplitudes:
      occ i     occ j     vir a      vir b          v   
    -----------------------------------------------------
     8 (A) A              9 (A) A                -0.6805
     6 (A) A             14 (A) A                 0.0618
     4 (A) A             10 (A) A                -0.0609
     7 (A) A             16 (A) A                -0.0571
     5 (A) A             13 (A) A                -0.0526
     6 (A) A             23 (A) A                 0.0482
     8 (A) A             20 (A) A                 0.0346
     6 (A) A             19 (A) A                 0.0302
     3 (A) A             12 (A) A                 0.0283
     5 (A) A             22 (A) A                -0.0216
     4 (A) A             24 (A) A                -0.0187
     7 (A) A             11 (A) A                -0.0186
     8 (A) A   8 (A) B   17 (A) A   20 (A) B     -0.0183
     8 (A) A             10 (A) A                 0.0183
     3 (A) A             26 (A) A                 0.0177
     8 (A) A   8 (A) B    9 (A) A   28 (A) B      0.0167
     6 (A) A             26 (A) A                -0.0156
     7 (A) A             21 (A) A                 0.0152
     3 (A) A             14 (A) A                -0.0143
     6 (A) A             12 (A) A                 0.0136
     3 (A) A   4 (A) B    9 (A) A    9 (A) B      0.0129
     6 (A) A              9 (A) A                 0.0128
     3 (A) A             19 (A) A                -0.0121
     8 (A) A   8 (A) B   18 (A) A   19 (A) B      0.0110
     7 (A) A             32 (A) A                 0.0096
     7 (A) A             36 (A) A                 0.0085
     3 (A) A             23 (A) A                -0.0082
     4 (A) A              9 (A) A                 0.0072
     6 (A) A             35 (A) A                 0.0068
     8 (A) A   8 (A) B   25 (A) A   29 (A) B      0.0068
     3 (A) A   6 (A) B    9 (A) A   28 (A) B     -0.0064
     6 (A) A             40 (A) A                -0.0062
     5 (A) A   8 (A) B   11 (A) A    9 (A) B      0.0062
     7 (A) A   8 (A) B   13 (A) A   20 (A) B      0.0060
     5 (A) A   7 (A) B    9 (A) A    9 (A) B     -0.0060
     5 (A) A   8 (A) B   11 (A) A   20 (A) B      0.0060
     6 (A) A   8 (A) A   19 (A) A   28 (A) A      0.0059
     5 (A) A   8 (A) B   16 (A) A    9 (A) B     -0.0059
     3 (A) A             27 (A) A                 0.0057
     7 (A) A   8 (A) B   22 (A) A   20 (A) B      0.0057
    -----------------------------------------------------

  Density matrix analysis:
  ------------------------
  NOs
    Occupation of frontier NOs:
       0.9494   1.0216
    Number of electrons: 16.000000
    Number of unpaired electrons: n_u =  2.31709, n_u,nl =  2.03333
    NO participation ratio (PR_NO):  2.873011
  
  
  Mulliken Population Analysis
  Atom      Charge (e)              h+              e-           Del q
  --------------------------------------------------------------------
   1 H        0.064365        0.020685       -0.012557        0.008128
   2 C       -0.127561        0.490450       -0.505499       -0.015048
   3 H        0.062567        0.020455       -0.012572        0.007883
   4 C       -0.121966        0.490901       -0.504526       -0.013625
   5 H        0.062555        0.020666       -0.014464        0.006203
   6 H        0.060041        0.020578       -0.014118        0.006460
  --------------------------------------------------------------------
  Sum:       -0.000000        1.063736       -1.063736        0.000000
  
  Multipole moment analysis of the density matrix
    Molecular charge:                      -0.000000
    Number of electrons:                   16.000000
      Center of electronic charge [Ang]: [ -1.568614,  -0.067004,  -0.026092]
    Total nuclear charge:                  16.000000
      Center of nuclear charge [Ang]:    [ -1.568500,  -0.067314,  -0.025093]
    Dipole moment [D]:                     0.080874
      Cartesian components [D]:          [  0.008759,  -0.023824,   0.076787]
    RMS size of the density [Ang]:         1.220405
      Cartesian components [Ang]:        [  0.809999,   0.790477,   0.456547]
  
  Exciton analysis of the difference density matrix
    <r_h> [Ang]:                  [ -1.569600,  -0.066528,  -0.038341]
    <r_e> [Ang]:                  [ -1.571947,  -0.063968,  -0.040983]
    |<r_e - r_h>| [Ang]:            0.004364
    Hole size [Ang]:                1.288283
      Cartesian components [Ang]: [  0.732582,   0.713557,   0.783475]
    Electron size [Ang]:            1.467425
      Cartesian components [Ang]: [  0.860379,   0.831828,   0.849203]

  Transition density matrix analysis:
  -----------------------------------
  
  CT numbers (Mulliken)
    omega =     0.9530
    <Phe> =    -0.1603
  
  Exciton analysis of the transition density matrix
    Trans. dipole moment [D]:             1.830983
      Cartesian components [D]:         [  1.329775,  -1.257220,   0.059947]
    <r_h> [Ang]:                        [ -1.569944,  -0.067002,  -0.036101]
    <r_e> [Ang]:                        [ -1.571835,  -0.063730,  -0.043047]
    |<r_e - r_h>| [Ang]:                  0.007907
    Hole size [Ang]:                      1.214940
      Cartesian components [Ang]:       [  0.651962,   0.635179,   0.804719]
    Electron size [Ang]:                  1.490708
      Cartesian components [Ang]:       [  0.871127,   0.840763,   0.869750]
    RMS electron-hole separation [Ang]:   1.940716
      Cartesian components [Ang]:       [  1.113583,   1.074639,   1.171095]
    Covariance(r_h, r_e) [Ang^2]:        -0.034015
    Correlation coefficient:             -0.018781
    Center-of-mass size [Ang]:            0.952662
      Cartesian components [Ang]:       [  0.530982,   0.516195,   0.599304]

  Decomposition into state-averaged NTOs
    H- 0 -> L+ 0:  0.6686 ( 89.4%)
    H- 2 -> L+ 5:  0.0829 (  1.4%)
                   omega =  95.3%
  ----------------------------------------------------------------------------


  Excited state 2 (singlet, A)                                     [converged]
  ----------------------------------------------------------------------------
  Term symbol:  3 (1) A                                     R^2 =  3.99098e-13

  Total energy:                                            -77.9914447794 a.u.
  Excitation energy:                                               8.933298 eV

  Osc. strength:                                                      0.000202
  Trans. dip. moment [a.u.]:           [  -0.016322,   -0.007892,   -0.024345]
  <i|r^2|0> [a.u.]:                    [  -0.227699,    0.022075,    0.104865]
  Two-photon absorption cross-section (SoS) [a.u.]:                   4.535343
  Two-photon absorption matrix (SoS) [a.u.]:
                                       |   -0.123919   -0.052090    0.484286 |
                                       |   -0.052090    0.098800    0.558464 |
                                       |    0.484286    0.558464    0.091038 |
  Two-photon absorption cross-section [a.u.]:                         1.066561
  Two-photon absorption matrix [a.u.]:
                                       |   -0.304424   -0.012941   -0.083885 |
                                       |   -0.012941    0.351315   -0.133017 |
                                       |   -0.083885   -0.133017   -0.012392 |

  Dip. moment [a.u.]:                  [  -0.005884,   -0.033292,    0.055225]
  Total dipole [Debye]:                                               0.164584
  <r^2> [a.u.]:                        [ 176.473446,   34.164536,   13.256246]
  Total <r^2> [a.u.]:                                               223.894228

  V1^2 = 0.9540, V2^2 = 0.0460

  Important amplitudes:
      occ i     occ j     vir a      vir b          v   
    -----------------------------------------------------
     7 (A) A              9 (A) A                -0.6675
     8 (A) A             11 (A) A                -0.1486
     7 (A) A             20 (A) A                 0.0754
     8 (A) A             10 (A) A                 0.0430
     5 (A) A   8 (A) B    9 (A) A    9 (A) B     -0.0314
     8 (A) A             16 (A) A                 0.0278
     8 (A) A             21 (A) A                 0.0176
     7 (A) A             10 (A) A                -0.0155
     5 (A) A             28 (A) A                -0.0150
     4 (A) A   7 (A) B    9 (A) A   19 (A) B      0.0135
     5 (A) A   7 (A) B    9 (A) A   16 (A) B      0.0134
     7 (A) A   8 (A) B   20 (A) A   17 (A) B     -0.0105
     7 (A) A   8 (A) A    9 (A) A   28 (A) A     -0.0098
     5 (A) A   8 (A) B    9 (A) A   20 (A) B      0.0094
     7 (A) A             12 (A) A                -0.0092
     4 (A) A   6 (A) B    9 (A) A   16 (A) B     -0.0090
     5 (A) A   6 (A) A    9 (A) A   23 (A) A     -0.0090
     5 (A) A   6 (A) A    9 (A) A   14 (A) A     -0.0089
     5 (A) A   6 (A) B    9 (A) A   19 (A) B     -0.0085
     8 (A) A   7 (A) B    9 (A) A   28 (A) B      0.0085
     4 (A) A   5 (A) A    9 (A) A   10 (A) A     -0.0085
     6 (A) A   7 (A) B    9 (A) A   18 (A) B     -0.0084
     3 (A) A   7 (A) B    9 (A) A   18 (A) B     -0.0079
     5 (A) A   6 (A) B    9 (A) A   23 (A) B     -0.0079
     5 (A) A   7 (A) A    9 (A) A   16 (A) A      0.0078
     4 (A) A   7 (A) B   19 (A) A    9 (A) B      0.0074
     7 (A) A   8 (A) B   17 (A) A   20 (A) B     -0.0074
     4 (A) A   8 (A) B    9 (A) A   25 (A) B     -0.0073
     5 (A) A   5 (A) B    9 (A) A   13 (A) B      0.0072
     7 (A) A   8 (A) B   19 (A) A   18 (A) B      0.0070
     4 (A) A   5 (A) B    9 (A) A   18 (A) B      0.0068
     5 (A) A   8 (A) A    9 (A) A   20 (A) A      0.0068
     7 (A) A   7 (A) B   20 (A) A   22 (A) B      0.0065
     7 (A) A   8 (A) B   17 (A) A    9 (A) B      0.0065
     5 (A) A   6 (A) B    9 (A) A   14 (A) B     -0.0063
     5 (A) A   7 (A) B   11 (A) A   20 (A) B      0.0061
     4 (A) A   5 (A) B   10 (A) A    9 (A) B      0.0061
     4 (A) A   7 (A) A    9 (A) A   19 (A) A      0.0061
     4 (A) A   6 (A) B   16 (A) A    9 (A) B     -0.0058
     5 (A) A             38 (A) A                -0.0055
    -----------------------------------------------------

  Density matrix analysis:
  ------------------------
  NOs
    Occupation of frontier NOs:
       0.9540   1.0573
    Number of electrons: 16.000000
    Number of unpaired electrons: n_u =  2.35870, n_u,nl =  2.06643
    NO participation ratio (PR_NO):  3.057695
  
  
  Mulliken Population Analysis
  Atom      Charge (e)              h+              e-           Del q
  --------------------------------------------------------------------
   1 H        0.147866        0.122832       -0.031204        0.091628
   2 C       -0.311611        0.274525       -0.473623       -0.199098
   3 H        0.164743        0.128826       -0.018767        0.110059
   4 C       -0.306196        0.270975       -0.468829       -0.197854
   5 H        0.155466        0.132545       -0.033431        0.099113
   6 H        0.149732        0.114216       -0.018064        0.096152
  --------------------------------------------------------------------
  Sum:       -0.000000        1.043918       -1.043918       -0.000000
  
  Multipole moment analysis of the density matrix
    Molecular charge:                      -0.000000
    Number of electrons:                   16.000000
      Center of electronic charge [Ang]: [ -1.568306,  -0.066213,  -0.026919]
    Total nuclear charge:                  16.000000
      Center of nuclear charge [Ang]:    [ -1.568500,  -0.067314,  -0.025093]
    Dipole moment [D]:                     0.164583
      Cartesian components [D]:          [ -0.014957,  -0.084621,   0.140369]
    RMS size of the density [Ang]:         1.205760
      Cartesian components [Ang]:        [  0.793106,   0.770426,   0.480919]
  
  Exciton analysis of the difference density matrix
    <r_h> [Ang]:                  [ -1.552195,  -0.062759,  -0.021275]
    <r_e> [Ang]:                  [ -1.549857,  -0.048025,  -0.036647]
    |<r_e - r_h>| [Ang]:            0.021421
    Hole size [Ang]:                1.496300
      Cartesian components [Ang]: [  0.995487,   1.019817,   0.455952]
    Electron size [Ang]:            1.482217
      Cartesian components [Ang]: [  0.885037,   0.863855,   0.816966]

  Transition density matrix analysis:
  -----------------------------------
  
  CT numbers (Mulliken)
    omega =     0.9212
    <Phe> =    -0.0116
  
  Exciton analysis of the transition density matrix
    Trans. dipole moment [D]:             0.038576
      Cartesian components [D]:         [ -0.020743,  -0.010029,  -0.030940]
    <r_h> [Ang]:                        [ -1.550618,  -0.063296,  -0.017643]
    <r_e> [Ang]:                        [ -1.550149,  -0.046540,  -0.040478]
    |<r_e - r_h>| [Ang]:                  0.028327
    Hole size [Ang]:                      1.526499
      Cartesian components [Ang]:       [  1.017622,   1.046289,   0.447129]
    Electron size [Ang]:                  1.477731
      Cartesian components [Ang]:       [  0.874632,   0.851653,   0.832703]
    RMS electron-hole separation [Ang]:   2.105108
      Cartesian components [Ang]:       [  1.326125,   1.334289,   0.944748]
    Covariance(r_h, r_e) [Ang^2]:         0.041606
    Correlation coefficient:              0.018444
    Center-of-mass size [Ang]:            1.072043
      Cartesian components [Ang]:       [  0.678687,   0.681914,   0.472920]

  Decomposition into state-averaged NTOs
    H- 1 -> L+ 0: -0.6600 ( 87.1%)
    H- 0 -> L+ 2: -0.1500 (  4.5%)
                   omega =  92.1%
  ----------------------------------------------------------------------------


  Excited state 3 (singlet, A)                                     [converged]
  ----------------------------------------------------------------------------
  Term symbol:  4 (1) A                                     R^2 =  1.34257e-13

  Total energy:                                            -77.9839458711 a.u.
  Excitation energy:                                               9.137353 eV

  Osc. strength:                                                      0.025161
  Trans. dip. moment [a.u.]:           [  -0.042609,    0.065794,   -0.325962]
  <i|r^2|0> [a.u.]:                    [  -0.264097,   -0.003007,   -0.027173]
  Two-photon absorption cross-section (SoS) [a.u.]:                   0.519845
  Two-photon absorption matrix (SoS) [a.u.]:
                                       |    0.004042   -0.015339    0.084450 |
                                       |   -0.015339    0.058903    0.072323 |
                                       |    0.084450    0.072323    0.237164 |
  Two-photon absorption cross-section [a.u.]:                         0.575270
  Two-photon absorption matrix [a.u.]:
                                       |    0.092764   -0.048069    0.077122 |
                                       |   -0.048069    0.131120    0.071967 |
                                       |    0.077122    0.071967    0.148136 |

  Dip. moment [a.u.]:                  [  -0.146261,   -0.110418,   -0.042634]
  Total dipole [Debye]:                                               0.478243
  <r^2> [a.u.]:                        [ 181.851834,   40.908358,   11.078365]
  Total <r^2> [a.u.]:                                               233.838557

  V1^2 = 0.9580, V2^2 = 0.0420

  Important amplitudes:
      occ i     occ j     vir a      vir b          v   
    -----------------------------------------------------
     8 (A) A             10 (A) A                 0.6868
     8 (A) A             24 (A) A                 0.0504
     7 (A) A              9 (A) A                 0.0467
     8 (A) A             18 (A) A                -0.0331
     4 (A) A              9 (A) A                 0.0243
     8 (A) A   8 (A) B    9 (A) A   12 (A) B     -0.0221
     8 (A) A              9 (A) A                 0.0176
     8 (A) A   8 (A) B   10 (A) A   17 (A) B      0.0171
     5 (A) A   8 (A) B   11 (A) A   10 (A) B     -0.0168
     8 (A) A             15 (A) A                -0.0148
     7 (A) A   8 (A) B   13 (A) A   10 (A) B     -0.0142
     8 (A) A             11 (A) A                -0.0123
     4 (A) A   8 (A) B   12 (A) A   10 (A) B     -0.0112
     6 (A) A   8 (A) A   10 (A) A   15 (A) A     -0.0111
     6 (A) A   8 (A) B   15 (A) A   10 (A) B      0.0108
     7 (A) A   8 (A) B   22 (A) A   10 (A) B     -0.0108
     4 (A) A   8 (A) A   10 (A) A   12 (A) A      0.0107
     7 (A) A   8 (A) A   10 (A) A   22 (A) A      0.0099
     7 (A) A   8 (A) A   10 (A) A   13 (A) A      0.0098
     5 (A) A   8 (A) A   10 (A) A   11 (A) A      0.0097
     5 (A) A   8 (A) B   21 (A) A   10 (A) B      0.0093
     6 (A) A   8 (A) B   10 (A) A   10 (A) B      0.0089
     6 (A) A   8 (A) A   10 (A) A   18 (A) A      0.0085
     7 (A) A   8 (A) A   12 (A) A   16 (A) A     -0.0083
     3 (A) A   4 (A) B   10 (A) A    9 (A) B     -0.0079
     5 (A) A   8 (A) A   10 (A) A   21 (A) A     -0.0078
     4 (A) A   8 (A) B   19 (A) A   10 (A) B      0.0075
     8 (A) A   8 (A) B    9 (A) A   23 (A) B     -0.0075
     8 (A) A   8 (A) B   10 (A) A   28 (A) B     -0.0073
     5 (A) A   8 (A) B   10 (A) A   11 (A) B     -0.0071
     7 (A) A   8 (A) B   16 (A) A   12 (A) B      0.0071
     3 (A) A   8 (A) A   10 (A) A   24 (A) A     -0.0071
     3 (A) A   8 (A) B   10 (A) A   10 (A) B      0.0070
     8 (A) A   8 (A) B    9 (A) A   19 (A) B      0.0069
     3 (A) A   8 (A) B   10 (A) A   18 (A) B     -0.0067
     6 (A) A   8 (A) B   18 (A) A   10 (A) B     -0.0065
     3 (A) A   6 (A) B   10 (A) A   28 (A) B      0.0061
     7 (A) A   8 (A) B   12 (A) A   11 (A) B     -0.0059
     6 (A) A             28 (A) A                -0.0057
     5 (A) A   8 (A) A   10 (A) A   16 (A) A     -0.0057
    -----------------------------------------------------

  Density matrix analysis:
  ------------------------
  NOs
    Occupation of frontier NOs:
       0.9800   0.9859
    Number of electrons: 16.000000
    Number of unpaired electrons: n_u =  2.29828, n_u,nl =  2.02723
    NO participation ratio (PR_NO):  2.723268
  
  
  Mulliken Population Analysis
  Atom      Charge (e)              h+              e-           Del q
  --------------------------------------------------------------------
   1 H       -0.174355        0.053766       -0.284358       -0.230592
   2 C        0.304392        0.534788       -0.117884        0.416904
   3 H       -0.136296        0.055247       -0.246227       -0.190981
   4 C        0.304999        0.531557       -0.118217        0.413340
   5 H       -0.169250        0.054227       -0.279830       -0.225602
   6 H       -0.129489        0.054952       -0.238022       -0.183070
  --------------------------------------------------------------------
  Sum:       -0.000000        1.284537       -1.284537        0.000000
  
  Multipole moment analysis of the density matrix
    Molecular charge:                      0.000000
    Number of electrons:                   16.000000
      Center of electronic charge [Ang]: [ -1.563663,  -0.063662,  -0.023683]
    Total nuclear charge:                  16.000000
      Center of nuclear charge [Ang]:    [ -1.568500,  -0.067314,  -0.025093]
    Dipole moment [D]:                     0.478242
      Cartesian components [D]:          [ -0.371760,  -0.280656,  -0.108365]
    RMS size of the density [Ang]:         1.281771
      Cartesian components [Ang]:        [  0.858889,   0.843751,   0.439693]
  
  Exciton analysis of the difference density matrix
    <r_h> [Ang]:                  [ -1.566295,  -0.066788,  -0.032557]
    <r_e> [Ang]:                  [ -1.506565,  -0.023041,  -0.004735]
    |<r_e - r_h>| [Ang]:            0.079092
    Hole size [Ang]:                1.414099
      Cartesian components [Ang]: [  0.838312,   0.822727,   0.787419]
    Electron size [Ang]:            2.077368
      Cartesian components [Ang]: [  1.372626,   1.382347,   0.721438]

  Transition density matrix analysis:
  -----------------------------------
  
  CT numbers (Mulliken)
    omega =     0.9250
    <Phe> =    -0.0115
  
  Exciton analysis of the transition density matrix
    Trans. dipole moment [D]:             0.426066
      Cartesian components [D]:         [ -0.054151,   0.083615,  -0.414256]
    <r_h> [Ang]:                        [ -1.572351,  -0.069379,  -0.039708]
    <r_e> [Ang]:                        [ -1.486009,  -0.008041,   0.002810]
    |<r_e - r_h>| [Ang]:                  0.114127
    Hole size [Ang]:                      1.215068
      Cartesian components [Ang]:       [  0.640159,   0.624695,   0.822400]
    Electron size [Ang]:                  2.292853
      Cartesian components [Ang]:       [  1.512937,   1.527654,   0.796535]
    RMS electron-hole separation [Ang]:   2.587202
      Cartesian components [Ang]:       [  1.637288,   1.644375,   1.144086]
    Covariance(r_h, r_e) [Ang^2]:         0.026487
    Correlation coefficient:              0.009507
    Center-of-mass size [Ang]:            1.302549
      Cartesian components [Ang]:       [  0.825274,   0.828815,   0.573257]

  Decomposition into state-averaged NTOs
    H- 0 -> L+ 1: -0.6757 ( 91.3%)
                   omega =  92.5%
  ----------------------------------------------------------------------------


  Excited state 4 (singlet, A)                                     [converged]
  ----------------------------------------------------------------------------
  Term symbol:  5 (1) A                                     R^2 =  6.47142e-13

  Total energy:                                            -77.9619377078 a.u.
  Excitation energy:                                               9.736226 eV

  Osc. strength:                                                      0.000179
  Trans. dip. moment [a.u.]:           [   0.000400,    0.001358,    0.027352]
  <i|r^2|0> [a.u.]:                    [  -0.022124,    0.003656,    0.025890]
  Two-photon absorption cross-section (SoS) [a.u.]:                 135.605732
  Two-photon absorption matrix (SoS) [a.u.]:
                                       |   -0.594516   -0.262202    2.755101 |
                                       |   -0.262202    0.185735    3.001090 |
                                       |    2.755101    3.001090    0.426136 |
  Two-photon absorption cross-section [a.u.]:                        82.774947
  Two-photon absorption matrix [a.u.]:
                                       |   -0.735940   -0.207132    2.088492 |
                                       |   -0.207132    0.410318    2.352179 |
                                       |    2.088492    2.352179    0.329941 |

  Dip. moment [a.u.]:                  [   0.156667,    0.185398,   -0.021705]
  Total dipole [Debye]:                                               0.619414
  <r^2> [a.u.]:                        [ 183.631270,   41.254039,   10.788149]
  Total <r^2> [a.u.]:                                               235.673458

  V1^2 = 0.9633, V2^2 = 0.0367

  Important amplitudes:
      occ i     occ j     vir a      vir b          v   
    -----------------------------------------------------
     8 (A) A             11 (A) A                -0.6692
     7 (A) A              9 (A) A                 0.1495
     8 (A) A             21 (A) A                 0.0777
     8 (A) A             16 (A) A                 0.0673
     8 (A) A             10 (A) A                -0.0225
     8 (A) A   8 (A) B    9 (A) A   13 (A) B      0.0167
     5 (A) A   8 (A) B   11 (A) A   11 (A) B      0.0157
     8 (A) A   8 (A) B   11 (A) A   17 (A) B     -0.0137
     7 (A) A             20 (A) A                -0.0135
     7 (A) A   8 (A) B   13 (A) A   11 (A) B      0.0127
     4 (A) A   8 (A) B   12 (A) A   11 (A) B      0.0110
     8 (A) A   8 (A) B    9 (A) A   22 (A) B      0.0109
     5 (A) A   8 (A) A   11 (A) A   21 (A) A      0.0109
     7 (A) A   8 (A) A   11 (A) A   22 (A) A     -0.0095
     6 (A) A   8 (A) B   10 (A) A   11 (A) B     -0.0091
     6 (A) A   8 (A) B   15 (A) A   11 (A) B     -0.0089
     7 (A) A   8 (A) B   22 (A) A   11 (A) B      0.0088
     3 (A) A   4 (A) B   11 (A) A    9 (A) B      0.0083
     3 (A) A   8 (A) B   11 (A) A   18 (A) B      0.0079
     6 (A) A   8 (A) A   11 (A) A   15 (A) A      0.0079
     7 (A) A   8 (A) A   13 (A) A   16 (A) A      0.0079
     7 (A) A   8 (A) A   11 (A) A   13 (A) A     -0.0075
     4 (A) A   8 (A) B   19 (A) A   11 (A) B     -0.0070
     5 (A) A   8 (A) B   21 (A) A   11 (A) B     -0.0069
     5 (A) A   8 (A) B    9 (A) A    9 (A) B      0.0067
     4 (A) A   8 (A) A   11 (A) A   12 (A) A     -0.0062
     3 (A) A   6 (A) B   11 (A) A   28 (A) B     -0.0060
     6 (A) A   8 (A) A   11 (A) A   18 (A) A     -0.0059
     6 (A) A   8 (A) B   18 (A) A   11 (A) B      0.0058
     7 (A) A   8 (A) B   16 (A) A   13 (A) B     -0.0057
     3 (A) A   8 (A) B   11 (A) A   30 (A) B      0.0056
     5 (A) A   8 (A) B   10 (A) A   10 (A) B      0.0055
     7 (A) A   8 (A) B   12 (A) A   10 (A) B      0.0055
     8 (A) A   8 (A) B   20 (A) A   22 (A) B     -0.0054
     6 (A) A   8 (A) B   11 (A) A   10 (A) B     -0.0054
     3 (A) A   8 (A) A   11 (A) A   18 (A) A      0.0054
     8 (A) A             12 (A) A                -0.0053
     3 (A) A   8 (A) A   11 (A) A   24 (A) A      0.0053
     3 (A) A   5 (A) B   11 (A) A   25 (A) B      0.0053
     5 (A) A   8 (A) A   11 (A) A   16 (A) A      0.0049
    -----------------------------------------------------

  Density matrix analysis:
  ------------------------
  NOs
    Occupation of frontier NOs:
       0.9411   1.0270
    Number of electrons: 16.000000
    Number of unpaired electrons: n_u =  2.32253, n_u,nl =  2.04948
    NO participation ratio (PR_NO):  2.919418
  
  
  Mulliken Population Analysis
  Atom      Charge (e)              h+              e-           Del q
  --------------------------------------------------------------------
   1 H       -0.086013        0.045073       -0.187323       -0.142250
   2 C        0.250583        0.497463       -0.134366        0.363096
   3 H       -0.167894        0.046524       -0.269102       -0.222578
   4 C        0.254371        0.495831       -0.133118        0.362713
   5 H       -0.100199        0.045975       -0.202526       -0.156551
   6 H       -0.150849        0.045625       -0.250055       -0.204430
  --------------------------------------------------------------------
  Sum:       -0.000000        1.176490       -1.176490        0.000000
  
  Multipole moment analysis of the density matrix
    Molecular charge:                      -0.000000
    Number of electrons:                   16.000000
      Center of electronic charge [Ang]: [ -1.573682,  -0.073446,  -0.024375]
    Total nuclear charge:                  16.000000
      Center of nuclear charge [Ang]:    [ -1.568500,  -0.067314,  -0.025093]
    Dipole moment [D]:                     0.619414
      Cartesian components [D]:          [  0.398207,   0.471234,  -0.055168]
    RMS size of the density [Ang]:         1.281500
      Cartesian components [Ang]:        [  0.858720,   0.846537,   0.433841]
  
  Exciton analysis of the difference density matrix
    <r_h> [Ang]:                  [ -1.573023,  -0.072631,  -0.034371]
    <r_e> [Ang]:                  [ -1.644062,  -0.157923,  -0.013408]
    |<r_e - r_h>| [Ang]:            0.112963
    Hole size [Ang]:                1.394911
      Cartesian components [Ang]: [  0.818006,   0.806979,   0.790839]
    Electron size [Ang]:            2.111387
      Cartesian components [Ang]: [  1.397700,   1.434179,   0.668968]

  Transition density matrix analysis:
  -----------------------------------
  
  CT numbers (Mulliken)
    omega =     0.9292
    <Phe> =    -0.0144
  
  Exciton analysis of the transition density matrix
    Trans. dipole moment [D]:             0.034807
      Cartesian components [D]:         [  0.000509,   0.001726,   0.034761]
    <r_h> [Ang]:                        [ -1.569226,  -0.066570,  -0.038662]
    <r_e> [Ang]:                        [ -1.657766,  -0.175040,  -0.010837]
    |<r_e - r_h>| [Ang]:                  0.142756
    Hole size [Ang]:                      1.228824
      Cartesian components [Ang]:       [  0.660059,   0.648648,   0.808447]
    Electron size [Ang]:                  2.245505
      Cartesian components [Ang]:       [  1.485132,   1.527516,   0.709486]
    RMS electron-hole separation [Ang]:   2.552537
      Cartesian components [Ang]:       [  1.618793,   1.654759,   1.075513]
    Covariance(r_h, r_e) [Ang^2]:         0.028618
    Correlation coefficient:              0.010371
    Center-of-mass size [Ang]:            1.285451
      Cartesian components [Ang]:       [  0.816997,   0.833912,   0.538043]

  Decomposition into state-averaged NTOs
    H- 0 -> L+ 2: -0.6626 ( 87.8%)
    H- 1 -> L+ 0:  0.1475 (  4.3%)
                   omega =  92.9%
  ----------------------------------------------------------------------------


  Excited state 5 (singlet, A)                                     [converged]
  ----------------------------------------------------------------------------
  Term symbol:  6 (1) A                                     R^2 =  1.27869e-13

  Total energy:                                            -77.9467194897 a.u.
  Excitation energy:                                              10.150335 eV

  Osc. strength:                                                      0.000055
  Trans. dip. moment [a.u.]:           [  -0.009907,    0.009675,   -0.005432]
  <i|r^2|0> [a.u.]:                    [   0.034949,   -0.037655,   -0.025347]
  Two-photon absorption cross-section (SoS) [a.u.]:                 219.041784
  Two-photon absorption matrix (SoS) [a.u.]:
                                       |    0.696370   -0.290474   -3.843596 |
[...]
    16   -5.312207704354e-04
    17   -1.664674397441e-03
    18    3.998861005014e-04
    19   -2.923944093111e-03
    20    9.209038561334e-03
    21    9.040054282419e-01
    22   -6.017802077315e-04
    23    1.341524141943e-02
    24    7.647827414835e-04
    25    6.947582766622e-02
    26   -5.093172570800e-02
    27   -1.375984279951e+00
    28    9.395926814988e-02
    29   -9.996162680173e-02
    30   -1.559543046885e-02
    31    3.676026612879e-01
    32   -3.712658183615e-01
    33   -6.007184657343e-02
    34    1.502010133092e-02
    35    3.395420790410e-04
    36   -2.494004103507e-03
    37   -9.783540767717e-04
    38   -2.936069594483e-03
    39    1.317321600995e-02
    40    9.384252767976e-01
    41    3.874840474740e-04
    42   -1.358478553273e-02
    43   -1.282169835025e-03
    44    9.057110597394e-03
    45    8.981728774446e-01
    46    1.376689253389e-02
    47   -1.470742577328e-04
    48   -2.937301363348e-04
Sym=X
Ene= 0.231013
Spin=Alpha
Occup=0
     1   -2.962896334633e-02
     2   -1.105392588727e+00
     3    1.180034856745e-02
     4    3.297700549628e-03
     5    4.002070306546e-04
     6    4.161722932267e-03
     7   -2.602232251818e-03
     8   -9.799526729182e-02
     9    1.494786672399e-01
    10    1.687755713675e-01
    11    1.199193208557e-02
    12    5.127541263023e-01
    13    5.743074118106e-01
    14    4.171448917849e-02
    15    1.399519994529e-03
    16   -9.847124485160e-04
    17   -8.570384259822e-04
    18   -1.066618676684e-03
    19   -7.140510511027e-04
    20    3.011809101407e-02
    21    1.224377141144e+00
    22    2.968868764579e-03
    23    1.426324143575e-02
    24    7.874039509895e-04
    25   -2.258698396266e-04
    26    8.163011095110e-05
    27   -1.285678691667e-02
    28    1.536222568280e-01
    29    1.626953757440e-01
    30    1.252301203518e-02
    31    5.425443237386e-01
    32    5.473490616824e-01
    33    4.232498046523e-02
    34    3.043865320506e-04
    35    1.417686700599e-03
    36    1.316774611701e-03
    37    1.614317272919e-03
    38   -1.435780017551e-04
    39   -3.211599218328e-02
    40   -1.158955132682e+00
    41    2.739375009843e-03
    42    1.285846501324e-02
    43    8.524864512819e-04
    44    2.797806360030e-02
    45    1.179034694412e+00
    46    1.321915211735e-02
    47    3.726352609282e-03
    48    4.456336691577e-04
Sym=X
Ene= 0.236396
Spin=Alpha
Occup=0
     1   -1.963543671445e-02
     2   -1.088830464063e+00
     3    1.579471520974e-02
     4    9.411805246548e-03
     5    1.306599227075e-03
     6   -8.651254524707e-02
     7    8.147129589472e-02
     8    1.532344644636e+00
     9    6.317505796414e-02
    10   -5.079390280514e-02
    11    6.761918104832e-03
    12    2.495893919295e-01
    13   -2.146689692371e-01
    14    3.223395115427e-02
    15   -2.100922036957e-02
    16    2.982314198807e-03
    17    8.378994341613e-04
    18   -7.895951396589e-04
    19    1.237859587725e-02
    20   -1.974295171193e-02
    21   -1.035750563344e+00
    22   -8.264515915273e-03
    23   -1.595273057939e-02
    24   -6.050043559860e-04
    25    8.759011484071e-02
    26   -8.267977595649e-02
    27   -1.557529782636e+00
    28    6.193157876998e-02
    29   -5.285340569864e-02
    30   -1.541368646280e-02
    31    2.606395640109e-01
    32   -2.115223063558e-01
    33   -5.679955499603e-02
    34    2.154836589436e-02
    35   -9.801778094745e-04
    36   -2.696007370937e-03
    37    6.765555638461e-05
    38   -1.259390960794e-02
    39    1.771671481713e-02
    40    1.035586212673e+00
    41   -8.334965643046e-03
    42   -1.564818753019e-02
    43   -1.962106198685e-03
    44    1.973553060869e-02
    45    1.123521796108e+00
    46    1.685806468368e-02
    47    9.205917538668e-03
    48   -1.356546273815e-04
Sym=X
Ene= 0.302916
Spin=Alpha
Occup=0
     1   -2.074135353367e-02
     2    1.652559257722e+00
     3   -2.344379654033e-02
     4    2.370123942638e-04
     5   -1.739694053914e-03
     6    2.309593801555e-04
     7    8.553326595508e-05
     8   -8.940806609884e-03
     9   -1.362174767702e-01
    10   -1.430042720720e-01
    11   -1.094567778070e-02
    12   -1.112492201197e+00
    13   -1.188395336553e+00
    14   -8.885353214521e-02
    15   -1.496210501336e-04
    16   -2.525220733659e-03
    17    2.108361096199e-05
    18   -3.376776470411e-02
    19   -2.100608329310e-03
    20    2.042998269954e-02
    21   -1.649896862561e+00
    22    1.769566555542e-03
    23   -2.333844248568e-02
    24   -2.418308368284e-05
    25   -1.971589837984e-04
    26    3.536502454522e-04
    27   -2.668173222364e-02
    28    1.356524962120e-01
    29    1.432522540414e-01
    30    1.083988054218e-02
    31    1.129816527854e+00
    32    1.181534340442e+00
    33    8.891830776625e-02
    34    7.647008278527e-04
    35    8.581131747266e-04
    36    3.549255667180e-03
    37   -3.415454076881e-02
    38   -2.798995596055e-03
    39    1.902560650828e-02
    40   -1.640273840229e+00
    41   -1.813826012672e-03
    42    2.334701143388e-02
    43    1.082879120081e-03
    44   -2.361776067783e-02
    45    1.676443463323e+00
    46    2.360945854211e-02
    47   -5.285482965230e-06
    48    6.981528049345e-04
Sym=X
Ene= 0.462394
Spin=Alpha
Occup=0
     1   -1.079556094395e-01
     2   -6.976283905418e-01
     3   -1.436770897143e-02
     4   -1.077313032867e-02
     5   -9.019783979919e-04
     6    6.271156609631e-02
     7    1.523971561895e-02
     8   -3.630106261738e+00
     9    1.067396086253e-01
    10   -1.000002417964e-01
    11   -2.444910747072e-03
    12    2.430875466555e+00
    13   -2.291871068072e+00
    14    1.163182964780e-01
    15    5.266693872078e-02
    16   -2.830439723916e-03
    17   -2.649294272348e-03
    18   -7.168369037844e-04
    19    2.066312845729e-02
    20   -1.155472353055e-01
    21   -6.983489277535e-01
    22    8.893881261044e-03
    23    1.561725475167e-02
    24    9.983139199647e-04
    25   -6.250030279078e-02
    26   -1.736291175234e-02
    27    3.626337453517e+00
    28    1.035869439254e-01
    29   -9.817227434472e-02
    30   -1.501260628464e-02
    31    2.455119338302e+00
    32   -2.279108902299e+00
    33    6.291002413952e-02
    34   -5.319944450131e-02
    35    4.109005496108e-03
    36    1.711210907174e-03
    37    1.451957026991e-04
    38   -1.945547032416e-02
    39    1.242648569641e-01
    40    6.596127499277e-01
    41    8.709929887160e-03
    42    1.582078689115e-02
    43    4.565771396752e-04
    44    1.088470493381e-01
    45    7.297813227035e-01
    46   -1.460444779681e-02
    47   -1.123807482658e-02
    48   -1.467663816209e-03
Sym=X
Ene= 0.579968
Spin=Alpha
Occup=0
     1   -2.301269874721e-01
     2   -6.421346080609e-02
     3    2.348181887972e-02
     4   -2.746873153170e-02
     5    4.421467901328e-04
     6    6.995512943522e-03
     7    1.695146826286e-01
     8    3.784974337244e-01
     9   -3.034947820646e-01
    10    2.900177323984e-01
    11   -1.016495342276e-02
    12    7.686014785505e-01
    13   -7.379046556420e-01
    14    9.050284934844e-03
    15    2.109023932250e-03
    16   -1.764173802326e-03
    17   -3.036272275048e-03
    18    6.799764354419e-03
    19   -5.982860259867e-02
    20   -2.437678220810e-01
    21   -5.053077063331e-02
    22    2.852122468875e-02
    23   -1.998482583755e-02
    24    8.982197160898e-04
    25    5.477614899209e-03
    26    1.681495051016e-01
    27    4.537796492090e-01
    28    3.053500776914e-01
    29   -2.929708022554e-01
    30    1.142197816175e-02
    31   -7.285186418695e-01
    32    6.802746453962e-01
    33    4.500989023282e-03
    34    2.025392653347e-03
    35   -1.879932027453e-03
    36   -3.067211083025e-03
    37    5.368798544079e-03
    38   -6.001937464493e-02
    39   -2.404683366255e-01
    40   -1.792913708428e-02
    41   -2.855541289601e-02
    42    2.070731105952e-02
    43    3.197691513294e-04
    44   -2.372459689135e-01
    45   -5.635360487493e-02
    46   -2.115228859190e-02
    47    2.543931105149e-02
    48    8.108434248876e-04
Sym=X
Ene= 0.608745
Spin=Alpha
Occup=0
     1    5.336607789860e-01
     2   -2.504160709325e-01
     3    6.062196388662e-02
     4   -3.584822831769e-02
     5    2.408017618242e-03
     6    4.844914354878e-04
     7   -3.049014217658e-03
     8    5.458947409788e-02
     9    3.723090458732e-02
    10    3.425378604170e-02
    11    3.182824245804e-03
    12   -2.949898086400e-01
    13   -2.353228255333e-01
    14   -2.294617942570e-02
    15   -2.988931188710e-03
    16    9.223978312492e-03
    17   -2.178737777652e-03
    18    1.495889559583e-01
    19    8.869937100003e-03
    20   -5.088901633878e-01
    21    2.564161681159e-01
    22   -4.091894179080e-02
    23    5.664258063728e-02
    24   -8.720421358935e-04
    25   -6.467873074446e-04
    26   -6.163334112186e-03
    27   -2.119182809255e-02
    28    3.877255014832e-02
    29    3.668594321214e-02
    30    3.182617405698e-03
    31   -3.079736989238e-01
    32   -2.388179448857e-01
    33   -2.083810593540e-02
    34    8.867301874890e-04
    35    1.063916483301e-04
    36    1.191650062233e-02
    37   -1.478370059389e-01
    38   -5.973164124562e-03
    39    5.183119674066e-01
    40   -2.644463782471e-01
    41   -4.094681717795e-02
    42    5.678668101389e-02
    43    2.201215134060e-03
    44   -5.162212863648e-01
    45    2.113187961730e-01
    46    5.969638294221e-02
    47   -3.612462616529e-02
    48   -5.781798970568e-04
Sym=X
Ene= 0.688921
Spin=Alpha
Occup=0
     1    3.289699281075e-02
     2    9.139826030867e-03
     3    4.780618060656e-03
     4    4.306518458795e-03
     5   -1.785347076455e-02
     6    2.080947636996e-03
     7    1.447067499712e-02
     8    1.338495035882e-02
     9    2.429025007471e-02
    10    2.742886944251e-02
    11   -6.717846069369e-01
    12   -7.214476381645e-02
    13    2.252520951829e-02
    14    6.121189003220e-01
    15   -2.838729493377e-03
    16    8.371315487952e-02
    17   -7.707122497654e-02
    18   -6.696437401944e-03
    19    9.241644423640e-03
    20    3.291315058461e-02
    21    1.039530838362e-02
    22   -2.542918479906e-03
    23   -3.520221581946e-03
    24   -1.918335765370e-02
    25    6.412208149915e-04
    26    3.051381523108e-02
    27   -4.602766516595e-02
    28    3.506747591050e-02
    29    1.665951714289e-02
    30   -6.699756002592e-01
    31   -7.894920086337e-02
    32    2.864411488603e-02
    33    6.110833718276e-01
    34   -1.393399245965e-02
    35   -8.246574410449e-02
    36    7.826633040783e-02
    37    6.626370448004e-03
    38   -2.894478157135e-03
    39    6.024189149944e-03
    40   -3.724050908272e-02
    41    3.831265821112e-04
    42    7.916239172255e-03
    43   -1.687899325462e-02
    44    5.859104344427e-03
    45   -3.815994055885e-02
    46   -6.786650956884e-03
    47    6.155418499543e-04
    48   -2.082544419097e-02
Sym=X
Ene= 0.705285
Spin=Alpha
Occup=0
     1   -4.887636331413e-01
     2    1.814874839037e-01
     3   -7.939569985063e-02
     4   -4.545489077649e-02
     5   -8.092998972107e-03
     6   -4.674500664791e-02
     7   -2.960714447479e-01
     8    4.447857550898e-01
     9    2.006062395713e-01
    10   -1.785386436950e-01
    11   -2.649469076187e-02
    12   -6.664588705885e-02
    13    3.245500076518e-02
    14   -5.538656414036e-04
    15    1.951791960720e-01
    16   -1.868583756928e-02
    17   -1.357279256282e-02
    18    4.899141983261e-03
    19   -7.605548248527e-02
    20   -5.008729973993e-01
    21    1.597458982798e-01
    22    3.954244357472e-02
    23    8.163640381340e-02
    24    1.377675689532e-03
    25   -4.509869989484e-02
    26   -3.020570629246e-01
    27    4.754598237569e-01
    28   -1.916161114499e-01
    29    1.943710289669e-01
    30   -3.300569098502e-02
    31    4.773431300986e-02
    32   -7.917738514594e-02
    33    6.664335731762e-02
    34    1.885988444310e-01
    35   -1.892951599667e-02
    36   -1.267689189363e-02
    37    3.825713849297e-03
    38   -7.848983466676e-02
    39   -4.819970196861e-01
    40    1.794973271423e-01
    41   -4.159124894505e-02
    42   -7.818512264926e-02
    43   -3.417535783770e-03
    44   -4.789006768995e-01
    45    1.362539164964e-01
    46    7.749046688568e-02
    47    4.368177886557e-02
    48    5.636279409589e-03
Sym=X
Ene= 0.775665
Spin=Alpha
Occup=0
     1    5.328894053824e-01
     2   -4.842801732678e-01
     3    1.050890116866e-01
     4    2.613996103165e-02
     5    6.242244535622e-03
     6    8.792971656595e-02
     7   -2.344697970764e-01
     8   -5.548138120191e-01
     9    1.042367007646e-01
    10   -1.025549167226e-01
    11    3.687829178442e-02
    12    3.042712200280e-01
    13   -2.611379903349e-01
    14   -5.095998727719e-02
    15   -2.002490956839e-01
    16    1.792742752413e-02
    17    9.781273677348e-03
    18   -3.561071371106e-03
    19    6.577188425210e-03
    20    5.338708665108e-01
    21   -4.743200447473e-01
    22   -2.044578506004e-02
    23   -1.082016643399e-01
    24   -3.822561859366e-03
    25   -8.945605648437e-02
    26    2.210457414919e-01
    27    5.679000852040e-01
    28    1.158995648628e-01
    29   -7.798283351753e-02
    30   -1.543221723202e-02
    31    2.620080172082e-01
    32   -3.173149342370e-01
    33    6.494204375929e-02
    34    2.068472395668e-01
    35   -9.238384839046e-03
    36   -1.952475315473e-02
    37    4.591726079298e-03
    38   -9.570244846934e-03
    39   -5.569766392903e-01
    40    5.257634817719e-01
    41   -2.195602342737e-02
    42   -1.138110108566e-01
    43   -4.841888238807e-03
    44   -5.296131279394e-01
    45    4.379418788337e-01
    46    1.053911404805e-01
    47    2.691462106991e-02
    48    5.722304021327e-03
Sym=X
Ene= 0.807204
Spin=Alpha
Occup=0
     1    1.697433462949e-02
     2   -1.943364986053e-02
     3    5.291073548810e-03
     4    1.561309768611e-04
     5   -3.007753518950e-02
     6    3.834578338945e-03
     7   -2.014820954920e-02
     8    1.118663286361e-02
     9    5.261205813162e-02
    10    8.062632429629e-03
    11   -7.638306718422e-01
    12   -5.806594774665e-02
    13   -2.924708995137e-02
    14    1.123162128525e+00
    15   -1.455274988111e-02
    16   -6.469344194273e-02
    17    6.166997299452e-02
    18    5.064326040953e-03
    19   -6.661056980029e-03
    20    1.685158625966e-02
    21   -2.002384651465e-02
    22    2.347325808904e-03
    23   -2.970469790630e-03
    24   -3.181218932002e-02
    25   -2.537457263005e-03
    26   -6.388801587759e-03
    27    2.555276137637e-03
    28   -2.363746396514e-02
    29   -3.226001404168e-02
    30    7.651602678120e-01
    31    5.859182610430e-02
    32    2.284441162294e-02
    33   -1.124734412274e+00
    34    7.227581137027e-03
    35   -6.600460105725e-02
    36    6.066590926923e-02
    37    5.360406499598e-03
    38    2.483167079047e-04
    39   -1.654382992890e-02
    40    3.022593907870e-02
    41    1.569735608248e-03
    42   -1.145558821049e-02
    43    3.050006265788e-02
    44   -1.567922042108e-02
    45    2.393304295862e-02
    46    8.359275515027e-03
    47   -3.775705749268e-03
    48    3.331371021354e-02
Sym=X
Ene= 0.858281
Spin=Alpha
Occup=0
     1    2.106955129819e-02
     2   -1.075956252181e+00
     3    1.484174215664e-01
     4    5.609288808122e-02
     5    6.943701988084e-03
     6    1.090791300811e-03
     7   -1.973725929170e-02
     8    2.223830060793e-02
     9   -4.065707700365e-01
    10   -4.447361856862e-01
    11   -3.367036971972e-02
    12    9.232513893634e-01
    13    1.001426451666e+00
    14    7.490826819651e-02
    15   -1.455820625873e-03
    16    8.960519964070e-03
    17   -9.194909776542e-03
    18    2.323296743906e-01
    19    1.013994345883e-02
    20   -1.320031628631e-02
    21    1.074966391315e+00
    22    4.781905221411e-02
    23    1.490923587887e-01
    24    8.444754243547e-03
    25   -2.700497402309e-03
    26   -1.337713014317e-02
    27    2.425188887632e-03
    28   -3.991212813409e-01
    29   -4.407802340155e-01
    30   -3.194640517486e-02
    31    9.222071170276e-01
    32    9.995656617819e-01
    33    7.386792091886e-02
    34    9.733475598093e-03
    35   -7.866476013271e-03
    36    1.017277257151e-02
    37   -2.290121469971e-01
    38   -9.879019299813e-03
    39    3.454816275129e-03
    40   -1.074026234143e+00
    41    4.983785732135e-02
    42    1.461919688259e-01
    43    1.198137546109e-02
    44   -2.005898765821e-02
    45    1.071471140346e+00
    46    1.471164750081e-01
    47    5.582042910081e-02
    48    3.696534386028e-03
Sym=X
Ene= 0.927105
Spin=Alpha
Occup=0
     1    1.340847826939e-01
     2   -1.243247581132e+00
     3    1.796643988845e-01
     4   -2.903566805403e-03
     5    1.281813342216e-02
     6   -2.497231488211e-03
     7    1.748380009927e-02
     8   -6.847012427837e-02
     9   -4.923813272318e-01
    10   -4.794085213706e-01
    11   -3.797570710496e-02
    12    1.435392472668e+00
    13    1.402919587365e+00
    14    1.122352049306e-01
    15    7.858821510626e-03
    16    1.149506250143e-02
    17    3.437145896806e-03
    18    1.215170032566e-01
    19    1.703847574988e-02
    20   -1.442950399923e-01
    21    1.203597115185e+00
    22   -1.837844004196e-02
    23    1.815799795369e-01
    24    3.459123075609e-04
    25    3.717291468138e-03
    26    3.543664850973e-02
    27   -4.653570987431e-03
    28    4.431526509174e-01
    29    5.299794943687e-01
    30    3.780006349447e-02
    31   -1.313168164240e+00
    32   -1.536632981883e+00
    33   -1.109545589400e-01
    34   -1.046951364512e-02
    35    1.338999377548e-03
    36   -9.939515778795e-03
    37    1.272505586822e-01
    38   -1.091252696340e-02
    39   -1.364378993227e-01
    40    1.277424338458e+00
    41    8.916104640026e-03
    42   -1.867740236686e-01
    43   -7.831352408609e-03
    44    1.418399992358e-01
    45   -1.189456642040e+00
    46   -1.790263634932e-01
    47    1.140227086154e-02
    48   -6.640549554224e-03
Sym=X
Ene= 0.970012
Spin=Alpha
Occup=0
     1   -6.547227659275e-02
     2    8.437952956818e-01
     3   -8.126113060022e-02
     4   -9.676571301704e-02
     5   -5.309004475838e-03
     6    2.689348069835e-02
     7    2.593538237745e-01
     8    5.038537261751e-01
     9    4.662876586740e-01
    10   -4.793933239280e-01
    11    2.007055218230e-02
    12   -1.406753954923e+00
    13    1.482763743988e+00
    14   -6.271795779267e-02
    15   -5.659535023335e-02
    16    4.088560102401e-03
    17   -1.713146879607e-02
    18    2.059126744002e-02
    19   -2.962903154391e-01
    20   -5.829138300127e-02
    21    9.596992684682e-01
    22    9.184532310076e-02
    23    1.011533410609e-01
    24    8.047110759566e-03
    25   -2.672872431507e-02
    26   -2.413697363939e-01
    27   -5.355543843919e-01
    28    5.095199127976e-01
    29   -4.258635816700e-01
    30   -6.644637770258e-03
    31   -1.578359432696e+00
    32    1.279031537195e+00
    33    6.798686782749e-03
    34    5.745648806248e-02
    35   -4.268483206253e-03
    36    1.938155515031e-02
    37   -5.069354507700e-03
    38    2.957907629359e-01
    39    5.658351884702e-02
    40   -7.924986853260e-01
    41    9.177874120992e-02
    42    7.800201784610e-02
    43    1.424858712251e-02
    44    6.093725377515e-02
    45   -9.851271055361e-01
    46   -9.877638649291e-02
    47   -9.643173448001e-02
    48   -5.596753727197e-04
[5D]

======= END OF MOLDEN-FORMATTED INPUT FILE =======


        *************************************************************
        *                                                           *
        *  Thank you very much for using Q-Chem.  Have a nice day.  *
        *                                                           *
        *************************************************************


