                  Welcome to Q-Chem
     A Quantum Leap Into The Future Of Chemistry


 Q-Chem 5.4 (devel), Q-Chem, Inc., Pleasanton, CA (2021)

 E. Epifanovsky,  A. T. B. Gilbert,  Xintian Feng,  Joonho Lee,  Yuezhi Mao,  
 N. Mardirossian,  P. Pokhilko,  A. White,  M. Wormit,  M. P. Coons,  
 A. L. Dempwolff,  Zhengting Gan,  D. Hait,  P. R. Horn,  L. D. Jacobson,  
 I. Kaliman,  J. Kussmann,  A. W. Lange,  Ka Un Lao,  D. S. Levine,  Jie Liu,  
 S. C. McKenzie,  A. F. Morrison,  K. Nanda,  F. Plasser,  D. R. Rehn,  
 M. L. Vidal,  Zhi-Qiang You,  Ying Zhu,  B. Alam,  B. Albrecht,  
 A. Aldossary,  E. Alguire,  J. H. Andersen,  D. Barton,  K. Begam,  A. Behn,  
 Y. A. Bernard,  E. J. Berquist,  H. Burton,  A. Carreras,  K. Carter-Fenk,  
 R. Chakraborty,  A. D. Chien,  K. D. Closser,  V. Cofer-Shabica,  
 S. Dasgupta,  Jia Deng,  M. de Wergifosse,  M. Diedenhofen,  Hainam Do,  
 S. Ehlert,  Po-Tung Fang,  S. Fatehi,  Qingguo Feng,  T. Friedhoff,  
 J. Gayvert,  Qinghui Ge,  G. Gidofalvi,  M. Goldey,  J. Gomes,  
 C. Gonzalez-Espinoza,  S. Gulania,  A. Gunina,  M. W. D. Hanson-Heine,  
 P. H. P. Harbach,  A. W. Hauser,  M. F. Herbst,  M. Hernandez Vera,  
 M. Hodecker,  Z. C. Holden,  S. Houck,  Xunkun Huang,  Kerwin Hui,  
 B. C. Huynh,  M. Ivanov,  Hyunjun Ji,  Hanjie Jiang,  B. Kaduk,  S. Kaehler,  
 K. Khistyaev,  Jaehoon Kim,  P. Klunzinger,  Z. Koczor-Benda,  
 Joong Hoon Koh,  D. Kosenkov,  L. Koulias,  T. Kowalczyk,  C. M. Krauter,  
 K. Kue,  A. Kunitsa,  T. Kus,  A. Landau,  K. V. Lawler,  D. Lefrancois,  
 S. Lehtola,  Rain Li,  Yi-Pei Li,  Jiashu Liang,  M. Liebenthal,  
 Hung-Hsuan Lin,  You-Sheng Lin,  Fenglai Liu,  Kuan-Yu Liu,  
 M. Loipersberger,  A. Luenser,  A. Manjanath,  P. Manohar,  E. Mansoor,  
 S. F. Manzer,  Shan-Ping Mao,  A. V. Marenich,  T. Markovich,  S. Mason,  
 S. A. Maurer,  P. F. McLaughlin,  M. F. S. J. Menger,  J.-M. Mewes,  
 S. A. Mewes,  P. Morgante,  J. W. Mullinax,  K. J. Oosterbaan,  G. Paran,  
 Alexander C. Paul,  Suranjan K. Paul,  F. Pavosevic,  Zheng Pei,  S. Prager,  
 E. I. Proynov,  E. Ramos,  B. Rana,  A. E. Rask,  A. Rettig,  R. M. Richard,  
 F. Rob,  E. Rossomme,  T. Scheele,  M. Scheurer,  M. Schneider,  
 N. Sergueev,  S. M. Sharada,  W. Skomorowski,  D. W. Small,  C. J. Stein,  
 Yu-Chuan Su,  E. J. Sundstrom,  Zhen Tao,  J. Thirman,  T. Tsuchimochi,  
 N. M. Tubman,  S. P. Veccham,  O. Vydrov,  J. Wenzel,  J. Witte,  A. Yamada,  
 Kun Yao,  S. Yeganeh,  S. R. Yost,  A. Zech,  Igor Ying Zhang,  Xing Zhang,  
 Yu Zhang,  D. Zuev,  A. Aspuru-Guzik,  A. T. Bell,  N. A. Besley,  
 K. B. Bravaya,  B. R. Brooks,  D. Casanova,  Jeng-Da Chai,  S. Coriani,  
 C. J. Cramer,  A. E. DePrince, III,  R. A. DiStasio Jr.,  A. Dreuw,  
 B. D. Dunietz,  T. R. Furlani,  W. A. Goddard III,  S. Grimme,  
 S. Hammes-Schiffer,  T. Head-Gordon,  W. J. Hehre,  Chao-Ping Hsu,  
 T.-C. Jagau,  Yousung Jung,  A. Klamt,  Jing Kong,  D. S. Lambrecht,  
 WanZhen Liang,  N. J. Mayhall,  C. W. McCurdy,  J. B. Neaton,  
 C. Ochsenfeld,  J. A. Parkhill,  R. Peverati,  V. A. Rassolov,  Yihan Shao,  
 L. V. Slipchenko,  T. Stauch,  R. P. Steele,  J. E. Subotnik,  
 A. J. W. Thom,  A. Tkatchenko,  D. G. Truhlar,  T. Van Voorhis,  
 T. A. Wesolowski,  K. B. Whaley,  H. L. Woodcock III,  P. M. Zimmerman,  
 S. Faraji,  P. M. W. Gill,  M. Head-Gordon,  J. M. Herbert,  A. I. Krylov

 Additional authors for Version 5.4.1: 
 S. Kotaru,  Shaozhi Li,  Xiangyuan Li,  F. Matz,  A. Molle,  Haisheng Ren,  
 Yingli Su,  Hung-Yi Tsai,  C. Utku,  Fang Wang

 Contributors to earlier versions of Q-Chem not listed above: 
 R. D. Adamson,  B. Austin,  R. Baer,  J. Baker,  G. J. O. Beran,  
 K. Brandhorst,  S. T. Brown,  E. F. C. Byrd,  A. K. Chakraborty,  
 G. K. L. Chan,  Chun-Min Chang,  Yunqing Chen,  C.-L. Cheng,  
 Siu Hung Chien,  D. M. Chipman,  D. L. Crittenden,  H. Dachsel,  
 R. J. Doerksen,  A. D. Dutoi,  R. G. Edgar,  J. Fosso-Tande,  
 L. Fusti-Molnar,  D. Ghosh,  A. Ghysels,  A. Golubeva-Zadorozhnaya,  
 J. Gonthier,  M. S. Gordon,  S. R. Gwaltney,  G. Hawkins,  J. E. Herr,  
 A. Heyden,  S. Hirata,  E. G. Hohenstein,  G. Kedziora,  F. J. Keil,  
 C. Kelley,  Jihan Kim,  R. A. King,  R. Z. Khaliullin,  P. P. Korambath,  
 W. Kurlancheek,  A. Laurent,  A. M. Lee,  M. S. Lee,  S. V. Levchenko,  
 Ching Yeh Lin,  D. Liotard,  E. Livshits,  R. C. Lochan,  I. Lotan,  
 L. A. Martinez-Martinez,  P. E. Maslen,  N. Nair,  D. P. O'Neill,  
 D. Neuhauser,  E. Neuscamman,  C. M. Oana,  R. Olivares-Amaya,  R. Olson,  
 T. M. Perrine,  B. Peters,  P. A. Pieniazek,  A. Prociuk,  Y. M. Rhee,  
 J. Ritchie,  M. A. Rohrdanz,  E. Rosta,  N. J. Russ,  H. F. Schaefer III,  
 M. W. Schmidt,  N. E. Schultz,  S. Sharma,  N. Shenvi,  C. D. Sherrill,  
 A. C. Simmonett,  A. Sodt,  T. Stein,  D. Stuck,  K. S. Thanthiriwatte,  
 V. Vanovschi,  L. Vogt,  Tao Wang,  A. Warshel,  M. A. Watson,  
 C. F. Williams,  Q. Wu,  X. Xu,  Jun Yang,  W. Zhang,  Yan Zhao

 Please cite Q-Chem as follows:
 Y. Shao et al., Mol. Phys. 113, 184-215 (2015)
 DOI: 10.1080/00268976.2014.952696

 Q-Chem 5.4.1 for Intel X86 EM64T Linux

 Parts of Q-Chem use Armadillo 9.800.1 (Horizon Scraper).
 http://arma.sourceforge.net/

 Q-Chem begins on Tue Mar 21 11:41:58 2023  

 Host: cpu186.baobab
0

     Scratch files written to /scratch/fum/qchem62692//
 Processing $rem in /home/share/wesolowski/qc5.aug2021.FDE/config/preferences:
 Processing $rem in /home/fum/.qchemrc:

 Checking the input file for inconsistencies... 	...done.

--------------------------------------------------------------
User input:
--------------------------------------------------------------
$comment
generated from CCJob.Templates
$end

$rem
sym_ignore = true
method = adc(2)
ee_states = 10
basis = cc-pVDZ
mem_static = 1024
mem_total = 40000
adc_davidson_maxiter = 900
adc_davidson_conv = 6
adc_print = 3
adc_prop_es = true
adc_prop_es2es = true
adc_prop_tpa = true
molden_format = True
state_analysis = true
print_orbitals = 15
gen_scfman = false
fde_export_density = true
fde_details = 3
$end

$molecule
0 1
H -0.021641107605569285 -0.2471043419075507 0.06712515341817539
C -1.0779123068000591 -0.5244165272998647 -0.002365580400151397
H -1.301104532694218 -1.5929221441929193 -0.07968536261765356
C -2.044760816800065 0.3938451744001358 0.006607387899847893
H -1.8214101798942193 1.4625975493070793 0.07993325188234597
H -3.1012286191055654 0.11628433939245522 -0.058803115881820814                     
$end
--------------------------------------------------------------
 ----------------------------------------------------------------
             Standard Nuclear Orientation (Angstroms)
    I     Atom           X                Y                Z
 ----------------------------------------------------------------
    1      H      -0.0216411076    -0.2471043419     0.0671251534
    2      C      -1.0779123068    -0.5244165273    -0.0023655804
    3      H      -1.3011045327    -1.5929221442    -0.0796853626
    4      C      -2.0447608168     0.3938451744     0.0066073879
    5      H      -1.8214101799     1.4625975493     0.0799332519
    6      H      -3.1012286191     0.1162843394    -0.0588031159
 ----------------------------------------------------------------
 Nuclear Repulsion Energy =          33.20992753 hartrees
 There are        8 alpha and        8 beta electrons
 Requested basis set is cc-pVDZ
 There are 24 shells and 48 basis functions
 Total memory of 40000 MB is distributed as follows: 
   MEM_STATIC is set to 1024 MB
   QALLOC/CCMAN JOB total memory use is  38976 MB
 Warning: actual memory use might exceed 40000 MB

 Total QAlloc Memory Limit  40000 MB
 Mega-Array Size      1001 MB
 MEM_STATIC part      1024 MB

                       Distance Matrix (Angstroms)
             H (  1)   C (  2)   H (  3)   C (  4)   H (  5)
   C (  2)  1.094276
   H (  3)  1.862741  1.094302
   C (  4)  2.123085  1.333447  2.123138
   H (  5)  2.482421  2.123155  3.103610  1.094301
   H (  6)  3.103509  2.123085  2.482392  1.094277  1.862724

 A cutoff of  1.0D-11 yielded    300 shell pairs
 There are      1220 function pairs (      1329 Cartesian)
 Smallest overlap matrix eigenvalue = 4.81E-03

 Scale SEOQF with 1.000000e-01/1.000000e-01/1.000000e+00

 Standard Electronic Orientation quadrupole field applied
 Nucleus-field energy     =     0.0000000022 hartrees
 Guess from superposition of atomic densities
 Warning:  Energy on first SCF cycle will be non-variational
 SAD guess density has 16.000000 electrons
 A restricted Hartree-Fock SCF calculation will be
 performed using Pulay DIIS extrapolation
 SCF converges when DIIS error is below 1.0E-08
 using 10 threads for integral computing
 -------------------------------------------------------
 OpenMP Integral computing Module                
 Release: version 1.0, May 2013, Q-Chem Inc. Pittsburgh 
 -------------------------------------------------------
 ---------------------------------------
  Cycle       Energy         DIIS Error
 ---------------------------------------
    1     -78.3977768445      9.93E-02
    2     -78.0175888269      7.13E-03
    3     -78.0380548902      1.83E-03
    4     -78.0395310197      5.64E-04
    5     -78.0396486360      5.81E-05
    6     -78.0396504995      9.29E-06
    7     -78.0396505608      1.95E-06
    8     -78.0396505636      1.67E-07
    9     -78.0396505636      1.74E-08
   10     -78.0396505636      3.68E-09 Convergence criterion met
 ---------------------------------------
 SCF time:  CPU 1.91 s  wall 2.31 s
 SCF   energy in the final basis set = -78.03965056
 Total energy in the final basis set = -78.03965056
Exporting Density Matrix to file 'Densmat_SCF.txt'.
Export successful
================================================================================
|                                                                              |
|                                 A D C  M A N                                 |
|                                                                              |
 ------------------------------------------------------------------------------ 
|                                                                              |
| Components:                                                                  |
|                                                                              |
| - libvmm - 1.3-trunk                                                         |
|   Authors:                                                                   |
|   Evgeny Epifanovsky, Ilya Kaliman                                           |
|                                                                              |
| - libtensor - 2.5-trunk                                                      |
|   Authors:                                                                   |
|   Evgeny Epifanovsky, Michael Wormit, Dmitry Zuev, Sam Manzer,               |
|   Ilya Kaliman                                                               |
|                                                                              |
| - libwfa - 1.1-trunk                                                         |
|   Authors:                                                                   |
|   Felix Plasser, Stefanie Mewes (Baeppler), Benjamin Thomitzni,              |
|   Michael Wormit, Feng Chen, Anna I. Krylov, Pavel Pokhilko                  |
|                                                                              |
| - libadc - 1.1-trunk                                                         |
|   Authors:                                                                   |
|   Michael Wormit, Adrian L. Dempwolff, Philipp H. P. Harbach,                |
|   Caroline Krauter, Dirk Rehn, Matthias Schneider, Jan Wenzel                |
|                                                                              |
| - adcman - 2.6-trunk                                                         |
|   Authors:                                                                   |
|   Michael Wormit, Adrian L. Dempwolff, Philipp H. P. Harbach,                |
|   Caroline Krauter, Daniel Lefrancois, Jan-Michael Mewes, Dirk Rehn,         |
|   Matthias Schneider, Jan Wenzel, Andreas Dreuw                              |
|                                                                              |
| Authors of earlier versions of ADCMAN:                                       |
| Andreas Dreuw, Jan Hendrik Starcke, Dirk Rehn, Michael Wormit                |
|                                                                              |
================================================================================

 Created directory /scratch/fum/qchem62692/plots
  Import QC data ...  CPU 0.00 s  wall 0.01 s

 Alpha MOs, Restricted
 -- Occupied --                  
-11.239 -11.237  -1.030  -0.786  -0.635  -0.582  -0.500  -0.374
  1 A     2 A     3 A     4 A     5 A     6 A     7 A     8 A                  
 -- Virtual --                   
  0.168   0.203   0.231   0.236   0.303   0.463   0.580   0.609
  9 A    10 A    11 A    12 A    13 A    14 A    15 A    16 A                  
  0.689   0.705   0.776   0.807   0.858   0.928   0.971   1.006
 17 A    18 A    19 A    20 A    21 A    22 A    23 A    24 A                  
  1.130   1.237   1.241   1.263   1.291   1.593   1.728   1.744
 25 A    26 A    27 A    28 A    29 A    30 A    31 A    32 A                  
  1.811   1.852   1.854   1.901   1.963   1.972   2.224   2.248
 33 A    34 A    35 A    36 A    37 A    38 A    39 A    40 A                  
  2.356   2.423   2.493   2.623   2.679   2.795   3.099   3.369
 41 A    42 A    43 A    44 A    45 A    46 A    47 A    48 A                  

 Beta MOs, Restricted
 -- Occupied --                  
-11.239 -11.237  -1.030  -0.786  -0.635  -0.582  -0.500  -0.374
  1 A     2 A     3 A     4 A     5 A     6 A     7 A     8 A                  
 -- Virtual --                   
  0.168   0.203   0.231   0.236   0.303   0.463   0.580   0.609
  9 A    10 A    11 A    12 A    13 A    14 A    15 A    16 A                  
  0.689   0.705   0.776   0.807   0.858   0.928   0.971   1.006
 17 A    18 A    19 A    20 A    21 A    22 A    23 A    24 A                  
  1.130   1.237   1.241   1.263   1.291   1.593   1.728   1.744
 25 A    26 A    27 A    28 A    29 A    30 A    31 A    32 A                  
  1.811   1.852   1.854   1.901   1.963   1.972   2.224   2.248
 33 A    34 A    35 A    36 A    37 A    38 A    39 A    40 A                  
  2.356   2.423   2.493   2.623   2.679   2.795   3.099   3.369
 41 A    42 A    43 A    44 A    45 A    46 A    47 A    48 A                  
  Import AO data ...  CPU 0.00 s  wall 0.00 s
  Using point group: C1
  Irreducible representations in point group: A
  Molecular orbitals: 
  Occupied MOs:
  Block   0:   1 (  A) A   2 (  A) A   3 (  A) A   4 (  A) A   5 (  A) A
                  -11.24      -11.24       -1.03     -0.7859      -0.635
               6 (  A) A   7 (  A) A   8 (  A) A
                 -0.5823     -0.4995     -0.3744
  Block   1:   1 (  A) B   2 (  A) B   3 (  A) B   4 (  A) B   5 (  A) B
                  -11.24      -11.24       -1.03     -0.7859      -0.635
               6 (  A) B   7 (  A) B   8 (  A) B
                 -0.5823     -0.4995     -0.3744
  Virtual MOs:
  Block   0:   9 (  A) A  10 (  A) A  11 (  A) A  12 (  A) A  13 (  A) A
                  0.1679      0.2026       0.231      0.2364       0.303
              14 (  A) A  15 (  A) A  16 (  A) A  17 (  A) A  18 (  A) A
                  0.4628      0.5798      0.6089      0.6887      0.7048
              19 (  A) A  20 (  A) A  21 (  A) A  22 (  A) A
                  0.7757      0.8074      0.8584       0.928
  Block   1:  23 (  A) A  24 (  A) A  25 (  A) A  26 (  A) A  27 (  A) A
                  0.9706       1.006        1.13       1.237       1.241
              28 (  A) A  29 (  A) A  30 (  A) A  31 (  A) A  32 (  A) A
                   1.263       1.291       1.593       1.728       1.744
              33 (  A) A  34 (  A) A  35 (  A) A  36 (  A) A
                   1.811       1.852       1.854       1.901
  Block   2:  37 (  A) A  38 (  A) A  39 (  A) A  40 (  A) A  41 (  A) A
                   1.963       1.972       2.224       2.248       2.356
              42 (  A) A  43 (  A) A  44 (  A) A  45 (  A) A  46 (  A) A
                   2.423       2.493       2.623       2.679       2.795
              47 (  A) A  48 (  A) A
                   3.099       3.369
  Block   3:   9 (  A) B  10 (  A) B  11 (  A) B  12 (  A) B  13 (  A) B
                  0.1679      0.2026       0.231      0.2364       0.303
              14 (  A) B  15 (  A) B  16 (  A) B  17 (  A) B  18 (  A) B
                  0.4628      0.5798      0.6089      0.6887      0.7048
              19 (  A) B  20 (  A) B  21 (  A) B  22 (  A) B
                  0.7757      0.8074      0.8584       0.928
  Block   4:  23 (  A) B  24 (  A) B  25 (  A) B  26 (  A) B  27 (  A) B
                  0.9706       1.006        1.13       1.237       1.241
              28 (  A) B  29 (  A) B  30 (  A) B  31 (  A) B  32 (  A) B
                   1.263       1.291       1.593       1.728       1.744
              33 (  A) B  34 (  A) B  35 (  A) B  36 (  A) B
                   1.811       1.852       1.854       1.901
  Block   5:  37 (  A) B  38 (  A) B  39 (  A) B  40 (  A) B  41 (  A) B
                   1.963       1.972       2.224       2.248       2.356
              42 (  A) B  43 (  A) B  44 (  A) B  45 (  A) B  46 (  A) B
                   2.423       2.493       2.623       2.679       2.795
              47 (  A) B  48 (  A) B
                   3.099       3.369
  Import MO data ...  CPU 0.09 s  wall 0.03 s
  Import HF data ...  CPU 0.41 s  wall 0.13 s
  Import 2e integrals ...  CPU 1.12 s  wall 0.21 s

--------------------------------------------------------------------------------
                                   HF Summary                                   
--------------------------------------------------------------------------------
  Energy:                                                  -78.0396505636 a.u.
  Dip. moment [a.u.]:                  [  -0.000003,    0.000001,    0.000024]
  Total dipole [Debye]:                                               0.000062
  <r^2> [a.u.]:                        [ 175.823452,   35.297429,   11.680444]
  Total <r^2> [a.u.]:                                               222.801325
--------------------------------------------------------------------------------
  HF properties ...  CPU 0.08 s  wall 0.03 s
  MP(1) calculation ...  CPU 0.01 s  wall 0.01 s
  N^6 prerequesite intermediates ...  CPU 0.66 s  wall 0.13 s
  Difference density matrix of state mp2_gs printed to ASCII file 'State_mp2_gs_Difference.txt'
Exporting MP density matrix to file 'Densmat_MP.txt'.
Export successful
  Total density matrix of state mp2_gs printed to ASCII file 'State_mp2_gs_Total.txt'
Exporting MP density matrix to file 'Densmat_MP.txt'.
Export successful

--------------------------------------------------------------------------------
                                 MP(2) Summary                                  
--------------------------------------------------------------------------------
  MP energy contribution:                                   -0.2804886726 a.u.
  Total energy:                                            -78.3201392361 a.u.
  Dip. moment [a.u.]:                  [  -0.000003,    0.000000,    0.000024]
  Total dipole [Debye]:                                               0.000061
  <r^2> [a.u.]:                        [ 175.863688,   35.333235,   11.508024]
  Total <r^2> [a.u.]:                                               222.704946

  Density matrix analysis:
  ------------------------
  NOs
    Occupation of frontier NOs:
       0.0455   1.9380
    Number of electrons: 16.000000
    Number of unpaired electrons: n_u =  0.40725, n_u,nl =  0.04580
    NO participation ratio (PR_NO): 13.896590
  
  
  Mulliken Population Analysis
  Atom      Charge (e)              h+              e-           Del q
  --------------------------------------------------------------------
   1 H        0.054970        0.013907       -0.011309        0.002598
   2 C       -0.109945        0.094595       -0.099790       -0.005195
   3 H        0.054978        0.013906       -0.011309        0.002597
   4 C       -0.109948        0.094594       -0.099790       -0.005196
   5 H        0.054977        0.013907       -0.011309        0.002598
   6 H        0.054968        0.013907       -0.011309        0.002598
  --------------------------------------------------------------------
  Sum:       -0.000000        0.244816       -0.244816        0.000000
  
  Multipole moment analysis of the density matrix
    Molecular charge:                      -0.000000
    Number of electrons:                   16.000000
      Center of electronic charge [Ang]: [ -1.561339,  -0.065286,   0.002126]
    Total nuclear charge:                  16.000000
      Center of nuclear charge [Ang]:    [ -1.561339,  -0.065286,   0.002126]
    Dipole moment [D]:                     0.000061
      Cartesian components [D]:          [ -0.000009,   0.000000,   0.000060]
    RMS size of the density [Ang]:         1.206519
      Cartesian components [Ang]:        [  0.800093,   0.783666,   0.448783]
  
  Exciton analysis of the difference density matrix
    <r_h> [Ang]:                  [ -1.561339,  -0.065286,   0.002122]
    <r_e> [Ang]:                  [ -1.561338,  -0.065285,   0.002122]
    |<r_e - r_h>| [Ang]:            0.000001
    Hole size [Ang]:                1.401654
      Cartesian components [Ang]: [  0.853003,   0.840244,   0.728705]
    Electron size [Ang]:            1.361761
      Cartesian components [Ang]: [  0.879567,   0.864272,   0.577747]
--------------------------------------------------------------------------------
  MP(2) calculation ...  CPU 0.30 s  wall 0.22 s
  Start ADC(2)-s ...  CPU 0.02 s  wall 0.01 s
  ADC(2) intermediates ...  CPU 0.04 s  wall 0.01 s
  Starting Davidson for singlet states of irrep A ... 
--------------------------------------------------------------------------------
   It NVec Conv  Avg. Norm  Max. Norm  Conv. states           Remark
--------------------------------------------------------------------------------
        10    0  1.329e-01  4.687e-01  0.4117 n n n n n n n n Guess.
    1   20    0  2.312e-02  1.125e-01  0.3261 n n n n n n n n 
    2   30    0  5.846e-03  2.461e-02  0.3213 n n n n n n n n 
    3   40    0  1.752e-03  1.049e-02  0.3209 n n n n n n n n 
    4   50    0  4.969e-04  3.451e-03  0.3209 n n n n n n n n 
    5   20    0  2.559e-04  1.665e-03  0.3209 n n n n n n n n Subspace collapsed.
    6   30    0  1.094e-04  7.730e-04  0.3209 n n n n n n n n 
    7   40    0  6.722e-05  5.761e-04  0.3209 n n n n n n n n 
    8   50    0  3.860e-05  3.329e-04  0.3209 n n n n n n n n 
    9   20    0  2.519e-05  2.295e-04  0.3209 n n n n n n n n Subspace collapsed.
   10   30    3  2.057e-05  1.930e-04  0.3209 n y y y n n n n 
   11   40    6  8.968e-06  8.259e-05  0.3209 y y y y y y n n 
   12   50    6  3.678e-06  3.178e-05  0.3209 y y y y y y n n 
   13   20    6  2.003e-06  1.723e-05  0.3209 y y y y y y n n Subspace collapsed.
   14   30    7  1.262e-06  1.114e-05  0.3209 y y y y y y n y 
   15   40    7  8.757e-07  8.135e-06  0.3209 y y y y y y n y 
   16   50    7  3.980e-07  3.189e-06  0.3209 y y y y y y n y 
   17   20    8  1.600e-07  1.117e-06  0.3209 y y y y y y n y Subspace collapsed.
   18   30    9  1.503e-07  1.151e-06  0.3209 y y y y y y y y 
   19   40   10  1.236e-07  9.051e-07  0.3209 y y y y y y y y Converged.
--------------------------------------------------------------------------------
  Davidson Summary: 
 ------------------------------------------------------------
  State  0: excitation energy =   0.3209 a.u.   (converged)
  State  1: excitation energy =   0.3290 a.u.   (converged)
  State  2: excitation energy =   0.3359 a.u.   (converged)
  State  3: excitation energy =   0.3579 a.u.   (converged)
  State  4: excitation energy =   0.3733 a.u.   (converged)
  State  5: excitation energy =   0.3866 a.u.   (converged)
  State  6: excitation energy =   0.4202 a.u.   (converged)
  State  7: excitation energy =   0.4435 a.u.   (converged)
  State  8: excitation energy =   0.4537 a.u.   (converged)
  State  9: excitation energy =   0.4585 a.u.   (converged)
 ------------------------------------------------------------

  Singlet states of irrep A ...  CPU 134.56 s  wall 42.81 s
  TDMs ...  CPU 2.20 s  wall 0.85 s
  SDMs ...  CPU 4.95 s  wall 1.50 s
  Starting TPA DIIS iterations ... 
------------------------------------ 
   It     Res. Norm  Remark
------------------------------------
                       Guess.
    1     4.397e+00  
    2     5.834e+00  
    3     1.086e+00  
    4     2.633e-01  
    5     6.570e-02  
    6     2.778e-02  
    7     8.476e-03  
    8     1.553e-03  
    9     5.825e-04  
   10     9.960e-05  
   11     3.194e-05  
   12     6.150e-06  
   13     2.196e-06  
   14     1.170e-06  
   15     2.714e-07  Converged.
   ... Converged in 15 steps (norm: 2.71411e-07)
------------------------------------
  Starting TPA DIIS iterations ... 
------------------------------------ 
   It     Res. Norm  Remark
------------------------------------
                       Guess.
    1     4.187e+00  
    2     5.545e+00  
    3     1.037e+00  
    4     2.614e-01  
    5     6.544e-02  
    6     2.777e-02  
    7     8.333e-03  
    8     1.572e-03  
    9     5.913e-04  
   10     9.895e-05  
   11     3.222e-05  
   12     6.000e-06  
   13     2.170e-06  
   14     1.125e-06  
   15     2.704e-07  Converged.
   ... Converged in 15 steps (norm: 2.70442e-07)
------------------------------------
  Starting TPA DIIS iterations ... 
------------------------------------ 
   It     Res. Norm  Remark
------------------------------------
                       Guess.
    1     6.855e-01  
    2     4.794e-01  
    3     1.686e-01  
    4     6.348e-02  
    5     1.873e-02  
    6     6.687e-03  
    7     1.073e-03  
    8     4.587e-04  
    9     1.263e-04  
   10     3.105e-05  
   11     5.064e-06  
   12     1.801e-06  
   13     8.647e-07  Converged.
   ... Converged in 13 steps (norm: 8.64697e-07)
------------------------------------
  Starting TPA DIIS iterations ... 
------------------------------------ 
   It     Res. Norm  Remark
------------------------------------
                       Guess.
    1     4.594e+00  
    2     6.186e+00  
    3     1.142e+00  
    4     2.834e-01  
    5     7.140e-02  
    6     3.039e-02  
    7     9.261e-03  
    8     1.696e-03  
    9     6.392e-04  
   10     1.099e-04  
   11     3.548e-05  
   12     6.995e-06  
   13     2.516e-06  
   14     1.377e-06  
   15     3.106e-07  Converged.
   ... Converged in 15 steps (norm: 3.10646e-07)
------------------------------------
  Starting TPA DIIS iterations ... 
------------------------------------ 
   It     Res. Norm  Remark
------------------------------------
                       Guess.
    1     4.374e+00  
    2     5.880e+00  
    3     1.090e+00  
    4     2.812e-01  
    5     7.112e-02  
    6     3.040e-02  
    7     9.106e-03  
    8     1.717e-03  
    9     6.492e-04  
   10     1.092e-04  
   11     3.577e-05  
   12     6.815e-06  
   13     2.482e-06  
   14     1.324e-06  
   15     3.095e-07  Converged.
   ... Converged in 15 steps (norm: 3.09543e-07)
------------------------------------
  Starting TPA DIIS iterations ... 
------------------------------------ 
   It     Res. Norm  Remark
------------------------------------
                       Guess.
    1     6.938e-01  
    2     4.912e-01  
    3     1.753e-01  
    4     6.919e-02  
    5     1.971e-02  
    6     7.109e-03  
    7     1.166e-03  
    8     5.143e-04  
    9     1.440e-04  
   10     3.444e-05  
   11     5.517e-06  
   12     2.018e-06  
   13     1.005e-06  
   14     3.725e-07  Converged.
   ... Converged in 14 steps (norm: 3.72466e-07)
------------------------------------
  Starting TPA DIIS iterations ... 
------------------------------------ 
   It     Res. Norm  Remark
------------------------------------
                       Guess.
    1     4.773e+00  
    2     6.512e+00  
    3     1.193e+00  
    4     3.022e-01  
    5     7.675e-02  
    6     3.285e-02  
    7     9.998e-03  
    8     1.830e-03  
    9     6.927e-04  
   10     1.196e-04  
   11     3.886e-05  
   12     7.828e-06  
   13     2.833e-06  
   14     1.587e-06  
   15     3.493e-07  Converged.
   ... Converged in 15 steps (norm: 3.49261e-07)
------------------------------------
  Starting TPA DIIS iterations ... 
------------------------------------ 
   It     Res. Norm  Remark
------------------------------------
                       Guess.
    1     4.544e+00  
    2     6.189e+00  
    3     1.138e+00  
    4     2.997e-01  
    5     7.645e-02  
    6     3.288e-02  
    7     9.832e-03  
    8     1.854e-03  
    9     7.037e-04  
   10     1.189e-04  
   11     3.916e-05  
   12     7.616e-06  
   13     2.791e-06  
   14     1.524e-06  
   15     3.479e-07  Converged.
   ... Converged in 15 steps (norm: 3.4793e-07)
------------------------------------
  Starting TPA DIIS iterations ... 
------------------------------------ 
   It     Res. Norm  Remark
------------------------------------
                       Guess.
    1     7.011e-01  
    2     5.018e-01  
    3     1.813e-01  
    4     7.463e-02  
    5     2.059e-02  
    6     7.503e-03  
    7     1.254e-03  
    8     5.685e-04  
    9     1.613e-04  
   10     3.720e-05  
   11     5.936e-06  
   12     2.228e-06  
   13     1.148e-06  
   14     4.169e-07  Converged.
   ... Converged in 14 steps (norm: 4.1687e-07)
------------------------------------
  Starting TPA DIIS iterations ... 
------------------------------------ 
   It     Res. Norm  Remark
------------------------------------
                       Guess.
    1     5.423e+00  
    2     7.722e+00  
    3     1.377e+00  
    4     3.744e-01  
    5     9.727e-02  
    6     4.242e-02  
    7     1.283e-02  
    8     2.343e-03  
    9     9.001e-04  
   10     1.578e-04  
   11     5.236e-05  
   12     1.136e-05  
   13     4.203e-06  
   14     2.537e-06  
   15     5.149e-07  Converged.
   ... Converged in 15 steps (norm: 5.14887e-07)
------------------------------------
  Starting TPA DIIS iterations ... 
------------------------------------ 
   It     Res. Norm  Remark
------------------------------------
                       Guess.
    1     5.161e+00  
    2     7.338e+00  
    3     1.313e+00  
    4     3.706e-01  
    5     9.692e-02  
    6     4.250e-02  
    7     1.262e-02  
    8     2.379e-03  
    9     9.153e-04  
   10     1.567e-04  
   11     5.266e-05  
   12     1.100e-05  
   13     4.117e-06  
   14     2.433e-06  
   15     5.115e-07  Converged.
   ... Converged in 15 steps (norm: 5.11481e-07)
------------------------------------
  Starting TPA DIIS iterations ... 
------------------------------------ 
   It     Res. Norm  Remark
------------------------------------
                       Guess.
    1     7.252e-01  
    2     5.380e-01  
    3     2.026e-01  
    4     9.604e-02  
    5     2.377e-02  
    6     9.017e-03  
    7     1.606e-03  
    8     7.865e-04  
    9     2.297e-04  
   10     4.414e-05  
   11     7.510e-06  
   12     3.080e-06  
   13     1.772e-06  
   14     5.954e-07  Converged.
   ... Converged in 14 steps (norm: 5.9543e-07)
------------------------------------
  Starting TPA DIIS iterations ... 
------------------------------------ 
   It     Res. Norm  Remark
------------------------------------
                       Guess.
    1     5.973e+00  
    2     8.780e+00  
    3     1.531e+00  
    4     4.401e-01  
    5     1.159e-01  
    6     5.122e-02  
    7     1.541e-02  
    8     2.809e-03  
    9     1.091e-03  
   10     1.933e-04  
   11     6.520e-05  
   12     1.501e-05  
   13     5.653e-06  
   14     3.604e-06  
   15     6.934e-07  Converged.
   ... Converged in 15 steps (norm: 6.93377e-07)
------------------------------------
  Starting TPA DIIS iterations ... 
------------------------------------ 
   It     Res. Norm  Remark
------------------------------------
                       Guess.
    1     5.683e+00  
    2     8.342e+00  
    3     1.460e+00  
    4     4.350e-01  
    5     1.155e-01  
    6     5.136e-02  
    7     1.517e-02  
    8     2.856e-03  
    9     1.110e-03  
   10     1.919e-04  
   11     6.544e-05  
   12     1.449e-05  
   13     5.510e-06  
   14     3.451e-06  
   15     6.862e-07  Converged.
   ... Converged in 15 steps (norm: 6.86167e-07)
------------------------------------
  Starting TPA DIIS iterations ... 
------------------------------------ 
   It     Res. Norm  Remark
------------------------------------
                       Guess.
    1     7.431e-01  
    2     5.667e-01  
    3     2.200e-01  
    4     1.160e-01  
    5     2.649e-02  
    6     1.040e-02  
    7     1.942e-03  
    8     9.859e-04  
    9     2.905e-04  
   10     4.690e-05  
   11     8.935e-06  
   12     3.895e-06  
   13     2.428e-06  
   14     7.642e-07  Converged.
   ... Converged in 14 steps (norm: 7.64226e-07)
------------------------------------
  Starting TPA DIIS iterations ... 
------------------------------------ 
   It     Res. Norm  Remark
------------------------------------
                       Guess.
    1     6.524e+00  
    2     9.870e+00  
    3     1.685e+00  
    4     5.097e-01  
    5     1.357e-01  
    6     6.066e-02  
    7     1.815e-02  
    8     3.303e-03  
    9     1.296e-03  
   10     2.316e-04  
   11     7.927e-05  
   12     1.935e-05  
   13     7.403e-06  
   14     4.951e-06  
   15     9.178e-07  Converged.
   ... Converged in 15 steps (norm: 9.17771e-07)
------------------------------------
  Starting TPA DIIS iterations ... 
------------------------------------ 
   It     Res. Norm  Remark
------------------------------------
                       Guess.
    1     6.206e+00  
    2     9.377e+00  
    3     1.606e+00  
    4     5.032e-01  
    5     1.352e-01  
    6     6.087e-02  
    7     1.787e-02  
    8     3.362e-03  
    9     1.319e-03  
   10     2.298e-04  
   11     7.941e-05  
   12     1.862e-05  
   13     7.177e-06  
   14     4.737e-06  
   15     9.046e-07  Converged.
   ... Converged in 15 steps (norm: 9.046e-07)
------------------------------------
  Starting TPA DIIS iterations ... 
------------------------------------ 
   It     Res. Norm  Remark
------------------------------------
                       Guess.
    1     7.594e-01  
    2     5.938e-01  
    3     2.368e-01  
    4     1.376e-01  
    5     2.929e-02  
    6     1.187e-02  
    7     2.316e-03  
    8     1.186e-03  
    9     3.510e-04  
   10     4.828e-05  
   11     1.047e-05  
   12     4.779e-06  
   13     3.190e-06  
   14     9.463e-07  Converged.
   ... Converged in 14 steps (norm: 9.46266e-07)
------------------------------------
  Starting TPA DIIS iterations ... 
------------------------------------ 
   It     Res. Norm  Remark
------------------------------------
                       Guess.
    1     8.346e+00  
    2     1.366e+01  
    3     2.186e+00  
    4     7.633e-01  
    5     2.077e-01  
    6     9.575e-02  
    7     2.814e-02  
    8     5.098e-03  
    9     2.054e-03  
   10     3.763e-04  
   11     1.331e-04  
   12     3.901e-05  
   13     1.574e-05  
   14     1.182e-05  
   15     2.136e-06  
   16     1.970e-06  
   17     3.782e-07  Converged.
   ... Converged in 17 steps (norm: 3.78212e-07)
------------------------------------
  Starting TPA DIIS iterations ... 
------------------------------------ 
   It     Res. Norm  Remark
------------------------------------
                       Guess.
    1     7.934e+00  
    2     1.298e+01  
    3     2.081e+00  
    4     7.505e-01  
    5     2.071e-01  
    6     9.627e-02  
    7     2.771e-02  
    8     5.203e-03  
    9     2.091e-03  
   10     3.727e-04  
   11     1.325e-04  
   12     3.725e-05  
   13     1.498e-05  
   14     1.129e-05  
   15     2.086e-06  
   16     1.920e-06  
   17     3.709e-07  Converged.
   ... Converged in 17 steps (norm: 3.70947e-07)
------------------------------------
  Starting TPA DIIS iterations ... 
------------------------------------ 
   It     Res. Norm  Remark
------------------------------------
                       Guess.
    1     8.039e-01  
    2     6.749e-01  
    3     2.897e-01  
    4     2.158e-01  
    5     3.916e-02  
    6     1.722e-02  
    7     3.778e-03  
    8     1.730e-03  
    9     5.364e-04  
   10     5.543e-05  
   11     1.639e-05  
   12     7.980e-06  
   13     6.268e-06  
   14     1.610e-06  
   15     6.037e-07  Converged.
   ... Converged in 15 steps (norm: 6.03674e-07)
------------------------------------
  Starting TPA DIIS iterations ... 
------------------------------------ 
   It     Res. Norm  Remark
------------------------------------
                       Guess.
    1     1.014e+01  
    2     1.767e+01  
    3     2.668e+00  
    4     1.041e+00  
    5     2.873e-01  
    6     1.355e-01  
    7     3.920e-02  
    8     7.079e-03  
    9     2.911e-03  
   10     5.437e-04  
   11     1.954e-04  
   12     6.771e-05  
   13     2.929e-05  
   14     2.302e-05  
   15     4.462e-06  
   16     3.629e-06  
   17     7.349e-07  Converged.
   ... Converged in 17 steps (norm: 7.34908e-07)
------------------------------------
  Starting TPA DIIS iterations ... 
------------------------------------ 
   It     Res. Norm  Remark
------------------------------------
                       Guess.
    1     9.642e+00  
    2     1.678e+01  
    3     2.539e+00  
    4     1.021e+00  
    5     2.866e-01  
    6     1.364e-01  
    7     3.861e-02  
    8     7.238e-03  
    9     2.964e-03  
   10     5.374e-04  
   11     1.934e-04  
   12     6.433e-05  
   13     2.746e-05  
   14     2.197e-05  
   15     4.334e-06  
   16     3.550e-06  
   17     7.115e-07  Converged.
   ... Converged in 17 steps (norm: 7.11496e-07)
------------------------------------
  Starting TPA DIIS iterations ... 
------------------------------------ 
   It     Res. Norm  Remark
------------------------------------
                       Guess.
    1     8.384e-01  
    2     7.458e-01  
    3     3.381e-01  
    4     2.959e-01  
    5     4.969e-02  
    6     2.291e-02  
    7     5.484e-03  
    8     2.029e-03  
    9     6.996e-04  
   10     7.197e-05  
   11     2.332e-05  
   12     1.128e-05  
   13     9.811e-06  
   14     2.315e-06  
   15     8.058e-07  Converged.
   ... Converged in 15 steps (norm: 8.05789e-07)
------------------------------------
  Starting TPA DIIS iterations ... 
------------------------------------ 
   It     Res. Norm  Remark
------------------------------------
                       Guess.
    1     1.114e+01  
    2     1.998e+01  
    3     2.929e+00  
    4     1.204e+00  
    5     3.343e-01  
    6     1.593e-01  
    7     4.573e-02  
    8     8.247e-03  
    9     3.424e-03  
   10     6.455e-04  
   11     2.335e-04  
   12     8.796e-05  
   13     3.988e-05  
   14     3.121e-05  
   15     6.340e-06  
   16     4.784e-06  
   17     9.678e-07  Converged.
   ... Converged in 17 steps (norm: 9.67815e-07)
------------------------------------
  Starting TPA DIIS iterations ... 
------------------------------------ 
   It     Res. Norm  Remark
------------------------------------
                       Guess.
    1     1.058e+01  
    2     1.897e+01  
    3     2.787e+00  
    4     1.178e+00  
    5     3.334e-01  
    6     1.604e-01  
    7     4.505e-02  
    8     8.439e-03  
    9     3.486e-03  
   10     6.372e-04  
   11     2.305e-04  
   12     8.337e-05  
   13     3.717e-05  
   14     2.981e-05  
   15     6.150e-06  
   16     4.674e-06  
   17     9.304e-07  Converged.
   ... Converged in 17 steps (norm: 9.30422e-07)
------------------------------------
  Starting TPA DIIS iterations ... 
------------------------------------ 
   It     Res. Norm  Remark
------------------------------------
                       Guess.
    1     8.548e-01  
    2     7.821e-01  
    3     3.636e-01  
    4     3.383e-01  
    5     5.573e-02  
    6     2.607e-02  
    7     6.498e-03  
    8     2.118e-03  
    9     7.840e-04  
   10     8.349e-05  
   11     2.750e-05  
   12     1.312e-05  
   13     1.190e-05  
   14     2.705e-06  
   15     8.974e-07  Converged.
   ... Converged in 15 steps (norm: 8.97367e-07)
------------------------------------
  Starting TPA DIIS iterations ... 
------------------------------------ 
   It     Res. Norm  Remark
------------------------------------
                       Guess.
    1     1.165e+01  
    2     2.120e+01  
    3     3.063e+00  
    4     1.290e+00  
    5     3.595e-01  
    6     1.721e-01  
    7     4.924e-02  
    8     8.875e-03  
    9     3.702e-03  
   10     7.010e-04  
   11     2.545e-04  
   12     9.982e-05  
   13     4.640e-05  
   14     3.603e-05  
   15     7.480e-06  
   16     5.473e-06  
   17     1.095e-06  
   18     3.710e-07  Converged.
   ... Converged in 18 steps (norm: 3.71009e-07)
------------------------------------
  Starting TPA DIIS iterations ... 
------------------------------------ 
   It     Res. Norm  Remark
------------------------------------
                       Guess.
    1     1.107e+01  
    2     2.014e+01  
    3     2.915e+00  
    4     1.262e+00  
    5     3.586e-01  
    6     1.735e-01  
    7     4.851e-02  
    8     9.084e-03  
    9     3.768e-03  
   10     6.916e-04  
   11     2.508e-04  
   12     9.451e-05  
   13     4.316e-05  
   14     3.442e-05  
   15     7.254e-06  
   16     5.339e-06  
   17     1.050e-06  
   18     3.444e-07  Converged.
   ... Converged in 18 steps (norm: 3.44351e-07)
------------------------------------
  Starting TPA DIIS iterations ... 
------------------------------------ 
   It     Res. Norm  Remark
------------------------------------
                       Guess.
    1     8.627e-01  
    2     8.003e-01  
    3     3.765e-01  
    4     3.594e-01  
    5     5.893e-02  
    6     2.770e-02  
    7     7.041e-03  
    8     2.150e-03  
    9     8.269e-04  
   10     8.981e-05  
   11     2.977e-05  
   12     1.410e-05  
   13     1.305e-05  
   14     2.904e-06  
   15     9.422e-07  Converged.
   ... Converged in 15 steps (norm: 9.42176e-07)
------------------------------------
  Two-photon absorbption ...  CPU 168.80 s  wall 46.79 s
  Transition density matrix of state singlet_A_1 printed to ASCII file 'State_singlet_A_1_Transition.txt'
  Transition density matrix of state singlet_A_2 printed to ASCII file 'State_singlet_A_2_Transition.txt'
  Transition density matrix of state singlet_A_3 printed to ASCII file 'State_singlet_A_3_Transition.txt'
  Transition density matrix of state singlet_A_4 printed to ASCII file 'State_singlet_A_4_Transition.txt'
  Transition density matrix of state singlet_A_5 printed to ASCII file 'State_singlet_A_5_Transition.txt'
  Transition density matrix of state singlet_A_6 printed to ASCII file 'State_singlet_A_6_Transition.txt'
  Transition density matrix of state singlet_A_7 printed to ASCII file 'State_singlet_A_7_Transition.txt'
  Transition density matrix of state singlet_A_8 printed to ASCII file 'State_singlet_A_8_Transition.txt'
  Transition density matrix of state singlet_A_9 printed to ASCII file 'State_singlet_A_9_Transition.txt'
  Transition density matrix of state singlet_A_10 printed to ASCII file 'State_singlet_A_10_Transition.txt'
  Transition properties ...  CPU 0.36 s  wall 0.64 s
  Difference density matrix of state singlet_A_1 printed to ASCII file 'State_singlet_A_1_Difference.txt'
  Total density matrix of state singlet_A_1 printed to ASCII file 'State_singlet_A_1_Total.txt'
  Difference density matrix of state singlet_A_2 printed to ASCII file 'State_singlet_A_2_Difference.txt'
  Total density matrix of state singlet_A_2 printed to ASCII file 'State_singlet_A_2_Total.txt'
  Difference density matrix of state singlet_A_3 printed to ASCII file 'State_singlet_A_3_Difference.txt'
  Total density matrix of state singlet_A_3 printed to ASCII file 'State_singlet_A_3_Total.txt'
  Difference density matrix of state singlet_A_4 printed to ASCII file 'State_singlet_A_4_Difference.txt'
  Total density matrix of state singlet_A_4 printed to ASCII file 'State_singlet_A_4_Total.txt'
  Difference density matrix of state singlet_A_5 printed to ASCII file 'State_singlet_A_5_Difference.txt'
  Total density matrix of state singlet_A_5 printed to ASCII file 'State_singlet_A_5_Total.txt'
  Difference density matrix of state singlet_A_6 printed to ASCII file 'State_singlet_A_6_Difference.txt'
  Total density matrix of state singlet_A_6 printed to ASCII file 'State_singlet_A_6_Total.txt'
  Difference density matrix of state singlet_A_7 printed to ASCII file 'State_singlet_A_7_Difference.txt'
  Total density matrix of state singlet_A_7 printed to ASCII file 'State_singlet_A_7_Total.txt'
  Difference density matrix of state singlet_A_8 printed to ASCII file 'State_singlet_A_8_Difference.txt'
  Total density matrix of state singlet_A_8 printed to ASCII file 'State_singlet_A_8_Total.txt'
  Difference density matrix of state singlet_A_9 printed to ASCII file 'State_singlet_A_9_Difference.txt'
  Total density matrix of state singlet_A_9 printed to ASCII file 'State_singlet_A_9_Total.txt'
  Difference density matrix of state singlet_A_10 printed to ASCII file 'State_singlet_A_10_Difference.txt'
  Total density matrix of state singlet_A_10 printed to ASCII file 'State_singlet_A_10_Total.txt'
  Properties ...  CPU 0.71 s  wall 0.95 s
  ISR TDMS ...  CPU 30.54 s  wall 9.58 s
  ISR transition properties ...  CPU 1.11 s  wall 0.38 s
  Sum-over-states TPA ...  CPU 0.00 s  wall 0.00 s

--------------------------------------------------------------------------------
                   State-averaged natural transition orbitals
--------------------------------------------------------------------------------
--------------------------------------------------------------------------------
  SA-NTO decomposition ...  CPU 0.01 s  wall 0.05 s

--------------------------------------------------------------------------------
                             Excited State Summary
--------------------------------------------------------------------------------
--------------------------------------------------------------------------------

  Excited state 1 (singlet, A)                                     [converged]
  ----------------------------------------------------------------------------
  Term symbol:  2 (1) A                                     R^2 =  1.84600e-10

  Total energy:                                            -77.9992690272 a.u.
  Excitation energy:                                               8.731322 eV

  Osc. strength:                                                      0.445310
  Trans. dip. moment [a.u.]:           [   1.046156,   -0.993576,   -0.009699]
  <i|r^2|0> [a.u.]:                    [   6.170597,   -0.248803,    0.006487]
  Two-photon absorption cross-section (SoS) [a.u.]:                   0.000257
  Two-photon absorption matrix (SoS) [a.u.]:
                                       |   -0.000357   -0.000434    0.003831 |
                                       |   -0.000434   -0.000482    0.004084 |
                                       |    0.003831    0.004084    0.000879 |
  Two-photon absorption cross-section [a.u.]:                         0.005870
  Two-photon absorption matrix [a.u.]:
                                       |    0.001774    0.002051   -0.018497 |
                                       |    0.002051    0.002345   -0.019354 |
                                       |   -0.018497   -0.019354   -0.004131 |

  Dip. moment [a.u.]:                  [  -0.000003,   -0.000000,    0.000030]
  Total dipole [Debye]:                                               0.000076
  <r^2> [a.u.]:                        [ 176.606621,   36.015804,   11.921669]
  Total <r^2> [a.u.]:                                               224.544095

  V1^2 = 0.9713, V2^2 = 0.0287

  Important amplitudes:
      occ i     occ j     vir a      vir b          v   
    -----------------------------------------------------
     8 (A) A              9 (A) A                 0.6804
     6 (A) A             14 (A) A                -0.0617
     4 (A) A             10 (A) A                -0.0614
     7 (A) A             16 (A) A                -0.0575
     5 (A) A             13 (A) A                -0.0527
     6 (A) A             23 (A) A                -0.0484
     8 (A) A             20 (A) A                 0.0348
     6 (A) A             19 (A) A                -0.0302
     3 (A) A             12 (A) A                -0.0285
     7 (A) A              9 (A) A                -0.0268
     5 (A) A             22 (A) A                -0.0218
     4 (A) A             24 (A) A                -0.0188
     3 (A) A             26 (A) A                 0.0187
     7 (A) A             11 (A) A                -0.0186
     8 (A) A   8 (A) B   17 (A) A   20 (A) B     -0.0184
     8 (A) A   8 (A) B    9 (A) A   28 (A) B     -0.0168
     6 (A) A             26 (A) A                 0.0163
     7 (A) A             21 (A) A                -0.0152
     3 (A) A             14 (A) A                -0.0142
     6 (A) A             12 (A) A                 0.0136
     3 (A) A   4 (A) B    9 (A) A    9 (A) B      0.0129
     3 (A) A             19 (A) A                -0.0121
     8 (A) A   8 (A) B   18 (A) A   19 (A) B      0.0110
     7 (A) A             32 (A) A                -0.0097
     7 (A) A             36 (A) A                -0.0086
     3 (A) A             23 (A) A                -0.0082
     8 (A) A   8 (A) B   25 (A) A   29 (A) B     -0.0076
     6 (A) A             35 (A) A                 0.0071
     6 (A) A             40 (A) A                -0.0067
     3 (A) A   6 (A) B    9 (A) A   28 (A) B     -0.0064
     5 (A) A   8 (A) B   11 (A) A    9 (A) B      0.0062
     7 (A) A   8 (A) B   13 (A) A   20 (A) B     -0.0060
     5 (A) A   8 (A) B   11 (A) A   20 (A) B     -0.0060
     5 (A) A             27 (A) A                 0.0060
     5 (A) A   7 (A) B    9 (A) A    9 (A) B      0.0060
     6 (A) A   8 (A) A   19 (A) A   28 (A) A     -0.0060
     5 (A) A   8 (A) B   16 (A) A    9 (A) B     -0.0059
     3 (A) A   5 (A) B    9 (A) A   25 (A) B     -0.0058
     7 (A) A   8 (A) B   22 (A) A   20 (A) B     -0.0057
     3 (A) A             40 (A) A                -0.0056
    -----------------------------------------------------

  Density matrix analysis:
  ------------------------
  NOs
    Occupation of frontier NOs:
       0.9492   1.0219
    Number of electrons: 16.000000
    Number of unpaired electrons: n_u =  2.31685, n_u,nl =  2.03329
    NO participation ratio (PR_NO):  2.873787
  
  
  Mulliken Population Analysis
  Atom      Charge (e)              h+              e-           Del q
  --------------------------------------------------------------------
   1 H        0.063180        0.020625       -0.012414        0.008210
   2 C       -0.126366        0.490194       -0.506616       -0.016421
   3 H        0.063190        0.020625       -0.012413        0.008211
   4 C       -0.126371        0.490194       -0.506616       -0.016422
   5 H        0.063189        0.020626       -0.012414        0.008212
   6 H        0.063178        0.020624       -0.012414        0.008210
  --------------------------------------------------------------------
  Sum:       -0.000000        1.062887       -1.062887        0.000000
  
  Multipole moment analysis of the density matrix
    Molecular charge:                      -0.000000
    Number of electrons:                   16.000000
      Center of electronic charge [Ang]: [ -1.561339,  -0.065286,   0.002125]
    Total nuclear charge:                  16.000000
      Center of nuclear charge [Ang]:    [ -1.561339,  -0.065286,   0.002126]
    Dipole moment [D]:                     0.000076
      Cartesian components [D]:          [ -0.000008,  -0.000001,   0.000075]
    RMS size of the density [Ang]:         1.219785
      Cartesian components [Ang]:        [  0.808178,   0.791251,   0.456778]
  
  Exciton analysis of the difference density matrix
    <r_h> [Ang]:                  [ -1.561336,  -0.065284,   0.002114]
    <r_e> [Ang]:                  [ -1.561336,  -0.065284,   0.002111]
    |<r_e - r_h>| [Ang]:            0.000003
    Hole size [Ang]:                1.287724
      Cartesian components [Ang]: [  0.730805,   0.715420,   0.782515]
    Electron size [Ang]:            1.463822
      Cartesian components [Ang]: [  0.854289,   0.831659,   0.849299]

  Transition density matrix analysis:
  -----------------------------------
  
  CT numbers (Mulliken)
    omega =     0.9531
    <Phe> =    -0.1601
  
  Exciton analysis of the transition density matrix
    Trans. dipole moment [D]:             1.833641
      Cartesian components [D]:         [  1.329531,  -1.262709,  -0.012326]
    <r_h> [Ang]:                        [ -1.561336,  -0.065285,   0.002117]
    <r_e> [Ang]:                        [ -1.561336,  -0.065284,   0.002109]
    |<r_e - r_h>| [Ang]:                  0.000008
    Hole size [Ang]:                      1.215060
      Cartesian components [Ang]:       [  0.650870,   0.638011,   0.803544]
    Electron size [Ang]:                  1.486625
      Cartesian components [Ang]:       [  0.864706,   0.840484,   0.869439]
    RMS electron-hole separation [Ang]:   1.937431
      Cartesian components [Ang]:       [  1.107202,   1.076723,   1.169790]
    Covariance(r_h, r_e) [Ang^2]:        -0.033605
    Correlation coefficient:             -0.018604
    Center-of-mass size [Ang]:            0.951212
      Cartesian components [Ang]:       [  0.528394,   0.516626,   0.598917]

  Decomposition into state-averaged NTOs
    H- 0 -> L+ 0: -0.6692 ( 89.6%)
    H- 2 -> L+ 5: -0.0829 (  1.4%)
                   omega =  95.3%
  ----------------------------------------------------------------------------


  Excited state 2 (singlet, A)                                     [converged]
  ----------------------------------------------------------------------------
  Term symbol:  3 (1) A                                     R^2 =  7.15330e-11

  Total energy:                                            -77.9911292657 a.u.
  Excitation energy:                                               8.952817 eV

  Osc. strength:                                                      0.000834
  Trans. dip. moment [a.u.]:           [   0.044713,   -0.042440,   -0.000426]
  <i|r^2|0> [a.u.]:                    [   0.329737,    0.076292,   -0.152643]
  Two-photon absorption cross-section (SoS) [a.u.]:                   4.573780
  Two-photon absorption matrix (SoS) [a.u.]:
                                       |    0.049949    0.057459   -0.514904 |
                                       |    0.057459    0.065620   -0.541494 |
                                       |   -0.514904   -0.541494   -0.115570 |
  Two-photon absorption cross-section [a.u.]:                         0.169469
  Two-photon absorption matrix [a.u.]:
                                       |   -0.008834   -0.011021    0.099164 |
                                       |   -0.011021   -0.013411    0.104175 |
                                       |    0.099164    0.104175    0.022245 |

  Dip. moment [a.u.]:                  [  -0.000013,    0.000038,    0.000055]
  Total dipole [Debye]:                                               0.000174
  <r^2> [a.u.]:                        [ 174.950734,   34.370137,   13.212114]
  Total <r^2> [a.u.]:                                               222.532985

  V1^2 = 0.9541, V2^2 = 0.0459

  Important amplitudes:
      occ i     occ j     vir a      vir b          v   
    -----------------------------------------------------
     7 (A) A              9 (A) A                 0.6680
     8 (A) A             11 (A) A                -0.1514
     7 (A) A             20 (A) A                 0.0755
     5 (A) A   8 (A) B    9 (A) A    9 (A) B      0.0315
     8 (A) A             16 (A) A                 0.0281
     8 (A) A              9 (A) A                 0.0264
     8 (A) A             21 (A) A                -0.0178
     5 (A) A             28 (A) A                 0.0150
     4 (A) A   7 (A) B    9 (A) A   19 (A) B     -0.0136
     5 (A) A   7 (A) B    9 (A) A   16 (A) B      0.0134
     7 (A) A   8 (A) B   20 (A) A   17 (A) B     -0.0105
     7 (A) A   8 (A) A    9 (A) A   28 (A) A      0.0098
     5 (A) A   8 (A) B    9 (A) A   20 (A) B      0.0094
     4 (A) A   6 (A) B    9 (A) A   16 (A) B     -0.0091
     5 (A) A   6 (A) A    9 (A) A   23 (A) A      0.0090
     5 (A) A   6 (A) A    9 (A) A   14 (A) A      0.0089
     5 (A) A   6 (A) B    9 (A) A   19 (A) B      0.0086
     8 (A) A   7 (A) B    9 (A) A   28 (A) B     -0.0085
     6 (A) A   7 (A) B    9 (A) A   18 (A) B     -0.0085
     4 (A) A   5 (A) A    9 (A) A   10 (A) A     -0.0085
     5 (A) A   6 (A) B    9 (A) A   23 (A) B      0.0080
     3 (A) A   7 (A) B    9 (A) A   18 (A) B      0.0080
     5 (A) A   7 (A) A    9 (A) A   16 (A) A      0.0078
     4 (A) A   8 (A) B    9 (A) A   25 (A) B     -0.0076
     4 (A) A   7 (A) B   19 (A) A    9 (A) B     -0.0075
     7 (A) A   8 (A) B   17 (A) A   20 (A) B     -0.0074
     5 (A) A   5 (A) B    9 (A) A   13 (A) B      0.0072
     7 (A) A   8 (A) B   19 (A) A   18 (A) B      0.0070
     4 (A) A   5 (A) B    9 (A) A   18 (A) B      0.0069
     5 (A) A   8 (A) A    9 (A) A   20 (A) A      0.0068
     7 (A) A   7 (A) B   20 (A) A   22 (A) B     -0.0066
     7 (A) A   8 (A) B   17 (A) A    9 (A) B     -0.0065
     5 (A) A   6 (A) B    9 (A) A   14 (A) B      0.0063
     5 (A) A   7 (A) B   11 (A) A   20 (A) B     -0.0062
     4 (A) A   5 (A) B   10 (A) A    9 (A) B      0.0061
     4 (A) A   7 (A) A    9 (A) A   19 (A) A     -0.0061
     5 (A) A             38 (A) A                 0.0060
     4 (A) A   6 (A) B   16 (A) A    9 (A) B     -0.0058
     4 (A) A   8 (A) A    9 (A) A   25 (A) A     -0.0056
     6 (A) A   7 (A) A   19 (A) A   28 (A) A     -0.0056
    -----------------------------------------------------

  Density matrix analysis:
  ------------------------
  NOs
    Occupation of frontier NOs:
       0.9559   1.0553
    Number of electrons: 16.000000
    Number of unpaired electrons: n_u =  2.35834, n_u,nl =  2.06486
    NO participation ratio (PR_NO):  3.045441
  
  
  Mulliken Population Analysis
  Atom      Charge (e)              h+              e-           Del q
  --------------------------------------------------------------------
   1 H        0.154870        0.124693       -0.024793        0.099900
   2 C       -0.309723        0.272861       -0.472638       -0.199778
   3 H        0.154850        0.124679       -0.024807        0.099871
   4 C       -0.309725        0.272870       -0.472646       -0.199777
   5 H        0.154861        0.124680       -0.024796        0.099884
   6 H        0.154868        0.124702       -0.024803        0.099899
  --------------------------------------------------------------------
  Sum:       -0.000000        1.044484       -1.044484       -0.000000
  
  Multipole moment analysis of the density matrix
    Molecular charge:                      -0.000000
    Number of electrons:                   16.000000
      Center of electronic charge [Ang]: [ -1.561339,  -0.065287,   0.002124]
    Total nuclear charge:                  16.000000
      Center of nuclear charge [Ang]:    [ -1.561339,  -0.065286,   0.002126]
    Dipole moment [D]:                     0.000174
      Cartesian components [D]:          [ -0.000033,   0.000097,   0.000141]
    RMS size of the density [Ang]:         1.205271
      Cartesian components [Ang]:        [  0.790045,   0.772837,   0.480865]
  
  Exciton analysis of the difference density matrix
    <r_h> [Ang]:                  [ -1.561359,  -0.065279,   0.002128]
    <r_e> [Ang]:                  [ -1.561354,  -0.065298,   0.002112]
    |<r_e - r_h>| [Ang]:            0.000026
    Hole size [Ang]:                1.495805
      Cartesian components [Ang]: [  1.013435,   1.000800,   0.456926]
    Electron size [Ang]:            1.480318
      Cartesian components [Ang]: [  0.884478,   0.862200,   0.815875]

  Transition density matrix analysis:
  -----------------------------------
  
  CT numbers (Mulliken)
    omega =     0.9214
    <Phe> =    -0.0116
  
  Exciton analysis of the transition density matrix
    Trans. dipole moment [D]:             0.078349
      Cartesian components [D]:         [  0.056825,  -0.053936,  -0.000542]
    <r_h> [Ang]:                        [ -1.561362,  -0.065277,   0.002131]
    <r_e> [Ang]:                        [ -1.561353,  -0.065300,   0.002109]
    |<r_e - r_h>| [Ang]:                  0.000034
    Hole size [Ang]:                      1.526526
      Cartesian components [Ang]:       [  1.038062,   1.025395,   0.448638]
    Electron size [Ang]:                  1.475779
      Cartesian components [Ang]:       [  0.873501,   0.850450,   0.831659]
    RMS electron-hole separation [Ang]:   2.103338
      Cartesian components [Ang]:       [  1.340717,   1.317232,   0.944144]
    Covariance(r_h, r_e) [Ang^2]:         0.042088
    Correlation coefficient:              0.018682
    Center-of-mass size [Ang]:            1.071492
      Cartesian components [Ang]:       [  0.686227,   0.673479,   0.472878]

  Decomposition into state-averaged NTOs
    H- 1 -> L+ 0: -0.6602 ( 87.2%)
    H- 0 -> L+ 2:  0.1514 (  4.6%)
                   omega =  92.1%
  ----------------------------------------------------------------------------


  Excited state 3 (singlet, A)                                     [converged]
  ----------------------------------------------------------------------------
  Term symbol:  4 (1) A                                     R^2 =  3.91478e-11

  Total energy:                                            -77.9841913470 a.u.
  Excitation energy:                                               9.141607 eV

  Osc. strength:                                                      0.023579
  Trans. dip. moment [a.u.]:           [   0.015401,    0.019672,   -0.323504]
  <i|r^2|0> [a.u.]:                    [   0.073340,    0.022337,    0.002632]
  Two-photon absorption cross-section (SoS) [a.u.]:                   0.109190
  Two-photon absorption matrix (SoS) [a.u.]:
                                       |   -0.116337   -0.005942   -0.006046 |
                                       |   -0.005942    0.116322    0.006651 |
                                       |   -0.006046    0.006651    0.000318 |
  Two-photon absorption cross-section [a.u.]:                         0.057345
  Two-photon absorption matrix [a.u.]:
                                       |   -0.084218   -0.004341   -0.004403 |
                                       |   -0.004341    0.084384    0.004820 |
                                       |   -0.004403    0.004820    0.000202 |

  Dip. moment [a.u.]:                  [   0.000055,    0.000085,   -0.000024]
  Total dipole [Debye]:                                               0.000264
  <r^2> [a.u.]:                        [ 181.388532,   41.008865,   11.057433]
  Total <r^2> [a.u.]:                                               233.454830

  V1^2 = 0.9580, V2^2 = 0.0420

  Important amplitudes:
      occ i     occ j     vir a      vir b          v   
    -----------------------------------------------------
     8 (A) A             10 (A) A                 0.6887
     8 (A) A             24 (A) A                 0.0508
     8 (A) A             18 (A) A                -0.0332
     4 (A) A              9 (A) A                -0.0247
     8 (A) A   8 (A) B    9 (A) A   12 (A) B     -0.0223
     8 (A) A   8 (A) B   10 (A) A   17 (A) B      0.0172
     5 (A) A   8 (A) B   11 (A) A   10 (A) B      0.0169
     8 (A) A             15 (A) A                 0.0149
     7 (A) A   8 (A) B   13 (A) A   10 (A) B      0.0143
     4 (A) A   8 (A) B   12 (A) A   10 (A) B      0.0113
     6 (A) A   8 (A) A   10 (A) A   15 (A) A     -0.0112
     7 (A) A   8 (A) B   22 (A) A   10 (A) B      0.0109
     6 (A) A   8 (A) B   15 (A) A   10 (A) B      0.0109
     4 (A) A   8 (A) A   10 (A) A   12 (A) A     -0.0108
     7 (A) A   8 (A) A   10 (A) A   22 (A) A     -0.0099
     7 (A) A   8 (A) A   10 (A) A   13 (A) A     -0.0098
     5 (A) A   8 (A) A   10 (A) A   11 (A) A     -0.0097
     5 (A) A   8 (A) B   21 (A) A   10 (A) B      0.0094
     6 (A) A   8 (A) B   10 (A) A   10 (A) B     -0.0090
     6 (A) A   8 (A) A   10 (A) A   18 (A) A     -0.0086
     7 (A) A   8 (A) A   12 (A) A   16 (A) A      0.0084
     3 (A) A   4 (A) B   10 (A) A    9 (A) B      0.0080
     5 (A) A   8 (A) A   10 (A) A   21 (A) A     -0.0079
     4 (A) A   8 (A) B   19 (A) A   10 (A) B      0.0076
     8 (A) A   8 (A) B    9 (A) A   23 (A) B      0.0075
     8 (A) A   8 (A) B   10 (A) A   28 (A) B     -0.0073
     5 (A) A   8 (A) B   10 (A) A   11 (A) B      0.0072
     7 (A) A   8 (A) B   16 (A) A   12 (A) B     -0.0072
     3 (A) A   8 (A) A   10 (A) A   24 (A) A     -0.0072
     3 (A) A   8 (A) B   10 (A) A   10 (A) B      0.0071
     8 (A) A   8 (A) B    9 (A) A   19 (A) B     -0.0070
     3 (A) A   8 (A) B   10 (A) A   18 (A) B     -0.0068
     6 (A) A   8 (A) B   18 (A) A   10 (A) B      0.0065
     3 (A) A   6 (A) B   10 (A) A   28 (A) B     -0.0062
     7 (A) A   8 (A) B   12 (A) A   11 (A) B      0.0059
     6 (A) A             28 (A) A                 0.0058
     5 (A) A   8 (A) A   10 (A) A   16 (A) A      0.0057
     3 (A) A   5 (A) B   10 (A) A   25 (A) B     -0.0056
     6 (A) A   8 (A) A   11 (A) A   16 (A) A     -0.0055
     4 (A) A   8 (A) A   10 (A) A   23 (A) A      0.0055
    -----------------------------------------------------

  Density matrix analysis:
  ------------------------
  NOs
    Occupation of frontier NOs:
       0.9812   0.9847
    Number of electrons: 16.000000
    Number of unpaired electrons: n_u =  2.28863, n_u,nl =  2.02504
    NO participation ratio (PR_NO):  2.701208
  
  
  Mulliken Population Analysis
  Atom      Charge (e)              h+              e-           Del q
  --------------------------------------------------------------------
   1 H       -0.155081        0.054354       -0.264405       -0.210050
   2 C        0.310168        0.538084       -0.117972        0.420113
   3 H       -0.155089        0.054355       -0.264422       -0.210067
   4 C        0.310164        0.538081       -0.117969        0.420112
   5 H       -0.155063        0.054356       -0.264396       -0.210040
   6 H       -0.155099        0.054354       -0.264421       -0.210067
  --------------------------------------------------------------------
  Sum:       -0.000000        1.293584       -1.293584        0.000000
  
  Multipole moment analysis of the density matrix
    Molecular charge:                      -0.000000
    Number of electrons:                   16.000000
      Center of electronic charge [Ang]: [ -1.561341,  -0.065289,   0.002127]
    Total nuclear charge:                  16.000000
      Center of nuclear charge [Ang]:    [ -1.561339,  -0.065286,   0.002126]
    Dipole moment [D]:                     0.000264
      Cartesian components [D]:          [  0.000140,   0.000216,  -0.000061]
    RMS size of the density [Ang]:         1.282117
      Cartesian components [Ang]:        [  0.858392,   0.844669,   0.439909]
  
  Exciton analysis of the difference density matrix
    <r_h> [Ang]:                  [ -1.561338,  -0.065287,   0.002119]
    <r_e> [Ang]:                  [ -1.561362,  -0.065322,   0.002139]
    |<r_e - r_h>| [Ang]:            0.000046
    Hole size [Ang]:                1.412906
      Cartesian components [Ang]: [  0.836558,   0.822692,   0.787179]
    Electron size [Ang]:            2.079255
      Cartesian components [Ang]: [  1.376861,   1.380380,   0.722571]

  Transition density matrix analysis:
  -----------------------------------
  
  CT numbers (Mulliken)
    omega =     0.9250
    <Phe> =    -0.0109
  
  Exciton analysis of the transition density matrix
    Trans. dipole moment [D]:             0.412357
      Cartesian components [D]:         [  0.019573,   0.025001,  -0.411133]
    <r_h> [Ang]:                        [ -1.561335,  -0.065284,   0.002113]
    <r_e> [Ang]:                        [ -1.561369,  -0.065335,   0.002144]
    |<r_e - r_h>| [Ang]:                  0.000068
    Hole size [Ang]:                      1.212760
      Cartesian components [Ang]:       [  0.636301,   0.623760,   0.822698]
    Electron size [Ang]:                  2.301788
      Cartesian components [Ang]:       [  1.523315,   1.529516,   0.798949]
    RMS electron-hole separation [Ang]:   2.591632
      Cartesian components [Ang]:       [  1.643224,   1.644667,   1.145181]
    Covariance(r_h, r_e) [Ang^2]:         0.026229
    Correlation coefficient:              0.009396
    Center-of-mass size [Ang]:            1.305897
      Cartesian components [Ang]:       [  0.829238,   0.829467,   0.574209]

  Decomposition into state-averaged NTOs
    H- 0 -> L+ 1: -0.6794 ( 92.3%)
                   omega =  92.5%
  ----------------------------------------------------------------------------


  Excited state 4 (singlet, A)                                     [converged]
  ----------------------------------------------------------------------------
  Term symbol:  5 (1) A                                     R^2 =  1.21731e-11

  Total energy:                                            -77.9622644716 a.u.
  Excitation energy:                                               9.738268 eV

  Osc. strength:                                                      0.000085
  Trans. dip. moment [a.u.]:           [   0.013656,   -0.012966,   -0.000137]
  <i|r^2|0> [a.u.]:                    [   0.066819,   -0.021395,    0.031961]
  Two-photon absorption cross-section (SoS) [a.u.]:                 134.658361
  Two-photon absorption matrix (SoS) [a.u.]:
                                       |   -0.270648   -0.311754    2.794174 |
                                       |   -0.311754   -0.356426    2.937845 |
                                       |    2.794174    2.937845    0.627078 |
  Two-photon absorption cross-section [a.u.]:                        80.027329
  Two-photon absorption matrix [a.u.]:
                                       |   -0.209272   -0.240365    2.153945 |
                                       |   -0.240365   -0.274148    2.264915 |
                                       |    2.153945    2.264915    0.483421 |

  Dip. moment [a.u.]:                  [  -0.000093,   -0.000085,   -0.000041]
  Total dipole [Debye]:                                               0.000338
  <r^2> [a.u.]:                        [ 181.495393,   41.010119,   10.787131]
  Total <r^2> [a.u.]:                                               233.292643

  V1^2 = 0.9633, V2^2 = 0.0367

  Important amplitudes:
      occ i     occ j     vir a      vir b          v   
    -----------------------------------------------------
     8 (A) A             11 (A) A                 0.6687
     7 (A) A              9 (A) A                 0.1535
     8 (A) A             21 (A) A                 0.0779
     8 (A) A             16 (A) A                -0.0674
     8 (A) A   8 (A) B    9 (A) A   13 (A) B     -0.0167
     5 (A) A   8 (A) B   11 (A) A   11 (A) B      0.0157
     7 (A) A             20 (A) A                 0.0140
     8 (A) A   8 (A) B   11 (A) A   17 (A) B      0.0137
     7 (A) A   8 (A) B   13 (A) A   11 (A) B      0.0127
     4 (A) A   8 (A) B   12 (A) A   11 (A) B      0.0111
     8 (A) A   8 (A) B    9 (A) A   22 (A) B     -0.0110
     5 (A) A   8 (A) A   11 (A) A   21 (A) A     -0.0109
     7 (A) A   8 (A) A   11 (A) A   22 (A) A     -0.0095
     6 (A) A   8 (A) B   10 (A) A   11 (A) B     -0.0091
     6 (A) A   8 (A) B   15 (A) A   11 (A) B      0.0089
     7 (A) A   8 (A) B   22 (A) A   11 (A) B      0.0089
     3 (A) A   4 (A) B   11 (A) A    9 (A) B      0.0083
     3 (A) A   8 (A) B   11 (A) A   18 (A) B     -0.0080
     6 (A) A   8 (A) A   11 (A) A   15 (A) A     -0.0079
     7 (A) A   8 (A) A   13 (A) A   16 (A) A      0.0079
     7 (A) A   8 (A) A   11 (A) A   13 (A) A     -0.0075
     4 (A) A   8 (A) B   19 (A) A   11 (A) B      0.0070
     5 (A) A   8 (A) B   21 (A) A   11 (A) B      0.0069
     5 (A) A   8 (A) B    9 (A) A    9 (A) B      0.0069
     4 (A) A   8 (A) A   11 (A) A   12 (A) A     -0.0062
     3 (A) A   6 (A) B   11 (A) A   28 (A) B     -0.0060
     6 (A) A   8 (A) A   11 (A) A   18 (A) A     -0.0059
     6 (A) A   8 (A) B   18 (A) A   11 (A) B      0.0058
     7 (A) A   8 (A) B   16 (A) A   13 (A) B     -0.0057
     3 (A) A   8 (A) B   11 (A) A   30 (A) B     -0.0056
     5 (A) A   8 (A) B   10 (A) A   10 (A) B      0.0055
     7 (A) A   8 (A) B   12 (A) A   10 (A) B      0.0055
     8 (A) A   8 (A) B   20 (A) A   22 (A) B     -0.0055
     6 (A) A   8 (A) B   11 (A) A   10 (A) B     -0.0055
     3 (A) A   5 (A) B   11 (A) A   25 (A) B     -0.0054
     3 (A) A   8 (A) A   11 (A) A   18 (A) A     -0.0054
     3 (A) A   8 (A) A   11 (A) A   24 (A) A     -0.0053
     5 (A) A   8 (A) A   11 (A) A   16 (A) A      0.0049
     6 (A) A   8 (A) A   10 (A) A   16 (A) A     -0.0047
     8 (A) A   8 (A) B   11 (A) A   28 (A) B     -0.0043
    -----------------------------------------------------

  Density matrix analysis:
  ------------------------
  NOs
    Occupation of frontier NOs:
       0.9386   1.0295
    Number of electrons: 16.000000
    Number of unpaired electrons: n_u =  2.32235, n_u,nl =  2.05109
    NO participation ratio (PR_NO):  2.933026
  
  
  Mulliken Population Analysis
  Atom      Charge (e)              h+              e-           Del q
  --------------------------------------------------------------------
   1 H       -0.125400        0.046021       -0.226391       -0.180370
   2 C        0.251028        0.495227       -0.134254        0.360973
   3 H       -0.125627        0.046009       -0.226614       -0.180605
   4 C        0.251021        0.495227       -0.134257        0.360970
   5 H       -0.125657        0.046010       -0.226644       -0.180634
   6 H       -0.125365        0.046021       -0.226354       -0.180333
  --------------------------------------------------------------------
  Sum:       -0.000000        1.174514       -1.174514       -0.000000
  
  Multipole moment analysis of the density matrix
    Molecular charge:                      0.000000
    Number of electrons:                   16.000000
      Center of electronic charge [Ang]: [ -1.561336,  -0.065283,   0.002128]
    Total nuclear charge:                  16.000000
      Center of nuclear charge [Ang]:    [ -1.561339,  -0.065286,   0.002126]
    Dipole moment [D]:                     0.000338
      Cartesian components [D]:          [ -0.000237,  -0.000217,  -0.000104]
    RMS size of the density [Ang]:         1.281016
      Cartesian components [Ang]:        [  0.859490,   0.844682,   0.434499]
  
  Exciton analysis of the difference density matrix
    <r_h> [Ang]:                  [ -1.561335,  -0.065283,   0.002118]
    <r_e> [Ang]:                  [ -1.561295,  -0.065244,   0.002147]
    |<r_e - r_h>| [Ang]:            0.000063
    Hole size [Ang]:                1.394945
      Cartesian components [Ang]: [  0.819592,   0.806342,   0.789907]
    Electron size [Ang]:            2.114315
      Cartesian components [Ang]: [  1.419356,   1.415514,   0.672367]

  Transition density matrix analysis:
  -----------------------------------
  
  CT numbers (Mulliken)
    omega =     0.9293
    <Phe> =    -0.0146
  
  Exciton analysis of the transition density matrix
    Trans. dipole moment [D]:             0.023932
      Cartesian components [D]:         [  0.017355,  -0.016478,  -0.000174]
    <r_h> [Ang]:                        [ -1.561338,  -0.065285,   0.002114]
    <r_e> [Ang]:                        [ -1.561287,  -0.065236,   0.002151]
    |<r_e - r_h>| [Ang]:                  0.000080
    Hole size [Ang]:                      1.229205
      Cartesian components [Ang]:       [  0.662031,   0.649583,   0.806660]
    Electron size [Ang]:                  2.247841
      Cartesian components [Ang]:       [  1.508830,   1.506035,   0.712799]
    RMS electron-hole separation [Ang]:   2.550836
      Cartesian components [Ang]:       [  1.638828,   1.631954,   1.075982]
    Covariance(r_h, r_e) [Ang^2]:         0.028484
    Correlation coefficient:              0.010309
    Center-of-mass size [Ang]:            1.286536
      Cartesian components [Ang]:       [  0.828244,   0.824154,   0.538477]

  Decomposition into state-averaged NTOs
    H- 0 -> L+ 2: -0.6641 ( 88.2%)
    H- 1 -> L+ 0: -0.1515 (  4.6%)
                   omega =  92.9%
  ----------------------------------------------------------------------------


  Excited state 5 (singlet, A)                                     [converged]
  ----------------------------------------------------------------------------
  Term symbol:  6 (1) A                                     R^2 =  5.71245e-10

  Total energy:                                            -77.9468244972 a.u.
  Excitation energy:                                              10.158411 eV

  Osc. strength:                                                      0.000003
  Trans. dip. moment [a.u.]:           [  -0.002215,   -0.002302,   -0.000245]
  <i|r^2|0> [a.u.]:                    [   0.068208,   -0.097575,    0.015795]
  Two-photon absorption cross-section (SoS) [a.u.]:                 223.499354
  Two-photon absorption matrix (SoS) [a.u.]:
                                       |    0.367949    0.056020   -3.823941 |
                                       |    0.056020   -0.437571    3.625714 |
                                       |   -3.823941    3.625714    0.071063 |
  Two-photon absorption cross-section [a.u.]:                       115.471535
  Two-photon absorption matrix [a.u.]:
                                       |    0.265057    0.040660   -2.748585 |
                                       |    0.040660   -0.313900    2.606122 |
                                       |   -2.748585    2.606122    0.050953 |

  Dip. moment [a.u.]:                  [   0.000020,   -0.000045,   -0.000003]
  Total dipole [Debye]:                                               0.000125
  <r^2> [a.u.]:                        [ 180.371181,   39.752220,   11.600273]
  Total <r^2> [a.u.]:                                               231.723674

  V1^2 = 0.9554, V2^2 = 0.0446

  Important amplitudes:
      occ i     occ j     vir a      vir b          v   
    -----------------------------------------------------
     8 (A) A             12 (A) A                -0.5698
     6 (A) A              9 (A) A                -0.3819
     8 (A) A             19 (A) A                -0.0525
     6 (A) A             20 (A) A                -0.0520
     8 (A) A             23 (A) A                 0.0293
     8 (A) A   8 (A) B    9 (A) A   10 (A) B      0.0205
     8 (A) A             26 (A) A                 0.0185
     3 (A) A              9 (A) A                -0.0158
     4 (A) A   8 (A) B    9 (A) A    9 (A) B      0.0158
     5 (A) A   8 (A) B   11 (A) A   12 (A) B     -0.0149
     8 (A) A   8 (A) B   12 (A) A   17 (A) B     -0.0133
[...]
    16   -1.499036302922e-03
    17   -1.810920106369e-03
    18    1.348369555085e-04
    19   -2.898038815005e-03
    20    1.150720363587e-02
    21    9.278160152223e-01
    22   -5.095583190855e-04
    23    1.372690913120e-02
    24    8.391113449757e-04
    25    7.035095659557e-02
    26   -5.224035269721e-02
    27   -1.383694598947e+00
    28    9.984915169015e-02
    29   -9.482133273510e-02
    30   -9.651121667167e-04
    31    3.849984337979e-01
    32   -3.656141573970e-01
    33   -3.721837727129e-03
    34    1.508104960859e-02
    35   -1.357131717891e-03
    36   -1.663639191071e-03
    37    1.373908276465e-04
    38   -2.913203466256e-03
    39    1.150280095739e-02
    40    9.277893651147e-01
    41    5.065543995426e-04
    42   -1.373052655281e-02
    43   -7.735796110241e-04
    44    1.150845798747e-02
    45    9.278103952445e-01
    46    1.374498523228e-02
    47    1.969504745602e-04
    48    6.371849417995e-04
Sym=X
Ene= 0.231048
Spin=Alpha
Occup=0
     1    2.986054898732e-02
     2    1.167717621505e+00
     3   -1.294418027530e-02
     4   -3.503108600173e-03
     5   -8.973969914359e-04
     6   -5.891131786452e-05
     7    6.266865863792e-05
     8    9.212318077490e-04
     9   -1.544894822100e-01
    10   -1.625595485995e-01
    11   -1.840656088022e-02
    12   -5.298293167534e-01
    13   -5.576181699010e-01
    14   -6.375385639716e-02
    15   -1.150263121725e-05
    16    1.851466127543e-05
    17   -2.351986551045e-05
    18    1.389695631251e-03
    19    7.843351739284e-05
    20   -2.989307162790e-02
    21   -1.169078034204e+00
    22   -2.851500589737e-03
    23   -1.311634222746e-02
    24   -9.944130348989e-04
    25    6.129897847079e-05
    26   -6.450221312280e-05
    27   -9.826273925801e-04
    28   -1.545945949678e-01
    29   -1.627051129688e-01
    30   -1.608715292991e-02
    31   -5.302288900206e-01
    32   -5.581798861533e-01
    33   -5.456325302928e-02
    34    1.348010786309e-05
    35   -1.304817557502e-04
    36    1.286942798468e-04
    37   -1.377335635516e-03
    38   -7.681308935744e-05
    39    2.989331648852e-02
    40    1.169095151903e+00
    41   -2.857605105686e-03
    42   -1.312456267960e-02
    43   -8.660452118878e-04
    44   -2.986046189157e-02
    45   -1.167657095425e+00
    46   -1.294975779672e-02
    47   -3.510599504340e-03
    48   -7.688654380274e-04
Sym=X
Ene= 0.236440
Spin=Alpha
Occup=0
     1    1.931402947149e-02
     2    1.072996162556e+00
     3   -1.589434932821e-02
     4   -9.215967690008e-03
     5   -1.339092938709e-03
     6    8.712308370901e-02
     7   -8.232659131375e-02
     8   -1.545037066578e+00
     9   -5.898902734385e-02
    10    5.581225069564e-02
    11    5.390147112147e-04
    12   -2.424103726820e-01
    13    2.294559891370e-01
    14    2.208959633611e-03
    15    2.127532902820e-02
    16   -2.544661154684e-03
    17   -2.917528079368e-03
    18    6.128560340804e-04
    19   -1.240793054095e-02
    20    1.928355720859e-02
    21    1.071339138096e+00
    22    8.394646880070e-03
    23    1.631504418804e-02
    24    1.408155111750e-03
    25   -8.712268154984e-02
    26    8.232491292861e-02
    27    1.545041624442e+00
    28   -5.898953411803e-02
    29    5.581385473106e-02
    30    5.616644943926e-04
    31   -2.424008550106e-01
    32    2.294804683055e-01
    33    2.302444315565e-03
    34   -2.129046288850e-02
    35    2.465159149873e-03
    36    2.838180316864e-03
    37   -6.155489527634e-04
    38    1.241629064557e-02
    39   -1.928346676256e-02
    40   -1.071374715427e+00
    41    8.396504171131e-03
    42    1.631812417478e-02
    43    1.371491836698e-03
    44   -1.931271467380e-02
    45   -1.072964848726e+00
    46   -1.589540068903e-02
    47   -9.219053371389e-03
    48   -1.299493051605e-03
Sym=X
Ene= 0.302963
Spin=Alpha
Occup=0
     1   -2.107108125218e-02
     2    1.657825824491e+00
     3   -2.350587279535e-02
     4    4.066760106459e-04
     5   -1.149847364674e-03
     6   -2.961987043621e-07
     7   -3.058142273423e-06
     8    2.429607749231e-05
     9   -1.355864285314e-01
    10   -1.426214874854e-01
    11   -1.574412753115e-02
    12   -1.124858023103e+00
    13   -1.183144299153e+00
    14   -1.275299715514e-01
    15    3.227137437760e-05
    16   -1.774194119872e-03
    17    2.003579432096e-03
    18   -3.407606579302e-02
    19   -1.740985446733e-03
    20    2.107002261419e-02
    21   -1.657829739021e+00
    22    1.604672793316e-03
    23   -2.344276312731e-02
    24   -1.382760658277e-03
    25    2.028262436441e-06
    26   -2.114615035089e-06
    27   -6.517629738638e-05
    28    1.356482758163e-01
    29    1.426972672976e-01
    30    1.451860314528e-02
    31    1.125016444033e+00
    32    1.183418249709e+00
    33    1.234892449377e-01
    34    3.336191727497e-05
    35   -1.708514791833e-03
    36    1.947358905051e-03
    37   -3.408188198158e-02
    38   -1.743177581739e-03
    39    2.106877625557e-02
    40   -1.657819319085e+00
    41   -1.601263830382e-03
    42    2.344729984863e-02
    43    1.295067094523e-03
    44   -2.106798465375e-02
    45    1.657858396612e+00
    46    2.351098116671e-02
    47   -4.012935843870e-04
    48    1.060259784127e-03
Sym=X
Ene= 0.462774
Spin=Alpha
Occup=0
     1   -1.144299549936e-01
     2   -6.987738218481e-01
     3   -1.496447885156e-02
     4   -1.030142109631e-02
     5   -1.408669562658e-03
     6    6.251442587301e-02
     7    1.658686953647e-02
     8   -3.641088705079e+00
     9    1.043423709148e-01
    10   -9.909053015767e-02
    11   -9.911877867767e-04
    12    2.433288697720e+00
    13   -2.310982335868e+00
    14   -2.257683372670e-02
    15    5.293354108830e-02
    16   -3.444939019519e-03
    17   -4.728357243082e-03
    18   -1.081126298207e-03
    19    2.014089496306e-02
    20   -1.144004272678e-01
    21   -6.987954214118e-01
    22    9.535163509561e-03
    23    1.545919795386e-02
    24    1.459161382372e-03
    25   -6.251495717657e-02
    26   -1.658301655652e-02
    27    3.641088567787e+00
    28    1.043515058112e-01
    29   -9.909319028837e-02
    30   -1.002788563203e-03
    31    2.433283886724e+00
    32   -2.310958443338e+00
    33   -2.262812314834e-02
    34   -5.300109743593e-02
    35    3.081530852559e-03
    36    4.344427481815e-03
    37    1.074321453249e-03
    38   -2.010390442283e-02
    39    1.143772182608e-01
    40    6.988246582681e-01
    41    9.541702966290e-03
    42    1.546710140361e-02
    43    1.324468508476e-03
    44    1.144168415159e-01
    45    6.987790385757e-01
    46   -1.496999250222e-02
    47   -1.030760876974e-02
    48   -1.274835198863e-03
Sym=X
Ene= 0.579808
Spin=Alpha
Occup=0
     1    2.377764590458e-01
     2    4.785344650892e-02
     3   -2.207251127178e-02
     4    2.698084622784e-02
     5    5.770440636752e-04
     6   -6.253031960587e-03
     7   -1.690037833868e-01
     8   -4.172950839287e-01
     9    3.055746873165e-01
    10   -2.901932528516e-01
    11   -2.838352873379e-03
    12   -7.483077544678e-01
    13    7.105905251812e-01
    14    6.995430680276e-03
    15   -1.982864312950e-03
    16    3.656469931167e-03
    17    3.294810145500e-03
    18   -3.050083498905e-03
    19    5.979045296772e-02
    20    2.377767695005e-01
    21    4.785618530179e-02
    22   -2.808363141359e-02
    23    2.065626297703e-02
    24   -1.081489274085e-04
    25   -6.257251770434e-03
    26   -1.690059187759e-01
    27   -4.171017604869e-01
    28   -3.055738889474e-01
    29    2.901793930483e-01
    30    2.835763790406e-03
    31    7.484678249456e-01
    32   -7.106962939832e-01
    33   -7.005748229750e-03
    34   -1.985701866498e-03
    35    3.640561861349e-03
    36    3.277245758809e-03
    37   -3.041431840023e-03
    38    5.979265802170e-02
    39    2.377289585209e-01
    40    4.794761914653e-02
    41    2.809000184177e-02
    42   -2.066048025276e-02
    43    9.262502160351e-05
    44    2.378132743503e-01
    45    4.788154669465e-02
    46    2.206880003676e-02
    47   -2.697981167160e-02
    48   -5.638707662385e-04
Sym=X
Ene= 0.608872
Spin=Alpha
Occup=0
     1   -5.193295192801e-01
     2    2.451505995167e-01
     3   -5.952105273610e-02
     4    3.705373762777e-02
     5   -5.465215501989e-04
     6    3.394445178383e-06
     7   -1.469239454781e-05
     8    2.278799757138e-04
     9   -3.566748420666e-02
    10   -3.751895169848e-02
    11   -3.636177447814e-03
    12    2.610190319354e-01
    13    2.746832202876e-01
    14    3.164135292971e-02
    15    1.218239755841e-04
    16   -7.654907222584e-03
    17    8.663699836146e-03
    18   -1.485833581801e-01
    19   -7.599524710462e-03
    20    5.194015981397e-01
    21   -2.452054491881e-01
    22    4.006081165866e-02
    23   -5.753179277808e-02
    24   -1.477103153703e-03
    25   -4.463628009346e-06
    26    1.440140030126e-05
    27   -1.555203679088e-04
    28   -3.561780011772e-02
    29   -3.749708810465e-02
    30   -4.319127772859e-03
    31    2.611992447794e-01
    32    2.750637141200e-01
    33    2.664951338122e-02
    34   -1.180102430966e-04
    35    7.530780160647e-03
    36   -8.563775079993e-03
    37    1.485997065039e-01
    38    7.598979442872e-03
    39   -5.194484966182e-01
    40    2.452143823650e-01
    41    4.006229303516e-02
    42   -5.752232034469e-02
    43   -1.627397902174e-03
    44    5.193050453419e-01
    45   -2.451736840101e-01
    46   -5.951568741397e-02
    47    3.706539634466e-02
    48   -6.907664262261e-04
Sym=X
Ene= 0.688653
Spin=Alpha
Occup=0
     1    2.804012056755e-04
     2   -1.040796966912e-03
     3    1.012152473021e-03
     4    1.320216542483e-03
     5   -1.878195208250e-02
     6    2.945694842074e-06
     7    4.775668498589e-06
     8    5.025058346759e-05
     9    3.327563696233e-02
    10    4.164412740667e-02
    11   -6.705132398936e-01
    12   -3.092377016248e-02
    13   -3.837465460142e-02
    14    6.125007775145e-01
    15   -1.336242526714e-03
    16    8.261965254365e-02
    17   -7.838607957351e-02
    18   -8.322082071831e-03
    19   -1.186547192023e-03
    20   -1.819768355405e-04
    21    1.121562671894e-03
    22    1.069945370394e-03
    23    1.249941018366e-03
    24   -1.877856413698e-02
    25   -6.760803986354e-08
    26    4.011827221113e-05
    27   -8.379734287472e-05
    28    3.114472302601e-02
    29    3.937873497434e-02
    30   -6.707516825992e-01
    31   -2.814503898826e-02
    32   -3.543678611052e-02
    33    6.128103610935e-01
    34    1.318622833617e-03
    35   -8.257912944900e-02
    36    7.834443929799e-02
    37    9.083400775286e-03
    38    1.231757952577e-03
    39   -2.407725537591e-04
    40    1.013189063506e-03
    41    7.268306777866e-04
    42    1.028387952251e-03
    43   -1.880884660456e-02
    44    2.216213255634e-04
    45   -1.149237803672e-03
    46    7.853888054955e-04
    47    9.590351241829e-04
    48   -1.881448942286e-02
Sym=X
Ene= 0.704763
Spin=Alpha
Occup=0
     1   -4.879196303001e-01
     2    1.637433161046e-01
     3   -7.810277935052e-02
     4   -4.435370538097e-02
     5   -6.595678290008e-03
     6   -4.595630689925e-02
     7   -3.013080538962e-01
     8    4.636413492952e-01
     9    1.958959130138e-01
    10   -1.860837062134e-01
    11   -1.861380599928e-03
    12   -5.765366834170e-02
    13    5.491222693780e-02
    14    5.080217477706e-04
    15    1.910656758722e-01
    16   -2.087883513681e-02
    17   -2.448059602261e-02
    18    3.746552439719e-03
    19   -7.657423783450e-02
    20   -4.879622867566e-01
    21    1.639291344848e-01
    22    4.032943750567e-02
    23    8.023867206410e-02
    24    6.938043329874e-03
    25   -4.595256724604e-02
    26   -3.013110495020e-01
    27    4.634783151847e-01
    28   -1.958978488467e-01
    29    1.860833990034e-01
    30    1.799816817453e-03
    31    5.753519585352e-02
    32   -5.481794292074e-02
    33   -4.391453483568e-04
    34    1.912237235975e-01
    35   -2.006102139857e-02
    36   -2.361853110640e-02
    37    3.754206824125e-03
    38   -7.665950534296e-02
    39   -4.879326169588e-01
    40    1.638741812120e-01
    41   -4.034372066074e-02
    42   -8.025424476457e-02
    43   -6.622695275883e-03
    44   -4.879274423739e-01
    45    1.637109636729e-01
    46    7.811874208242e-02
    47    4.437234155227e-02
    48    6.276291988396e-03
Sym=X
Ene= 0.775739
Spin=Alpha
Occup=0
     1    5.387786711367e-01
     2   -4.806663251979e-01
     3    1.077277948032e-01
     4    2.642405790962e-02
     5    7.007766775635e-03
     6    8.893663984645e-02
     7   -2.266890438799e-01
     8   -5.668006748150e-01
     9    1.035326522123e-01
    10   -9.829031420936e-02
    11   -9.198760636345e-04
    12    2.941755461327e-01
    13   -2.795411201718e-01
    14   -2.805129225999e-03
    15   -2.030895536545e-01
    16    1.819027475972e-02
    17    2.253914463491e-02
    18   -1.879130905017e-04
    19    7.579843180386e-03
    20    5.386892944328e-01
    21   -4.807678753703e-01
    22   -2.092306079797e-02
    23   -1.088703481659e-01
    24   -7.816584744614e-03
    25   -8.893781881495e-02
    26    2.266840951350e-01
    27    5.668415721936e-01
    28    1.035446667772e-01
    29   -9.828107220921e-02
    30   -9.692262503538e-04
    31    2.941319209101e-01
    32   -2.795428698775e-01
    33   -2.693830527460e-03
    34    2.033761949804e-01
    35   -1.672606667651e-02
    36   -2.101951305308e-02
    37    2.160660150819e-04
    38   -7.741027074988e-03
    39   -5.387106764406e-01
    40    4.807762722246e-01
    41   -2.094501604912e-02
    42   -1.089029738283e-01
    43   -7.347769006846e-03
    44   -5.387933332449e-01
    45    4.806436031121e-01
    46    1.077467400589e-01
    47    2.645653141285e-02
    48    6.537536153385e-03
Sym=X
Ene= 0.807405
Spin=Alpha
Occup=0
     1   -5.840725210240e-05
     2    3.038162602925e-03
     3    1.202735406794e-03
     4    1.684158733470e-03
     5   -3.146076924061e-02
     6    4.516675024797e-06
     7   -3.546967572582e-05
     8    1.846349341520e-05
     9    3.871987683215e-02
    10    4.823721458320e-02
    11   -7.640146982852e-01
    12   -5.733144320909e-02
    13   -7.137984863804e-02
    14    1.123981260400e+00
    15    1.042648856853e-03
    16   -6.542023333508e-02
    17    6.207576984564e-02
    18    6.084499176589e-03
    19    9.165650500935e-04
    20    9.224494007472e-05
    21   -3.065888806244e-03
    22    1.309547723159e-03
    23    1.580932525035e-03
    24   -3.145298645291e-02
    25   -1.481857198656e-06
    26   -2.268590416009e-05
    27    1.088854280564e-05
    28   -3.471308694403e-02
    29   -4.407449974080e-02
    30    7.644595675817e-01
    31    5.071750945328e-02
    32    6.441642437200e-02
    33   -1.124719896864e+00
    34    1.061663673113e-03
    35   -6.533912813666e-02
    36    6.198082411296e-02
    37    7.692026937900e-03
    38    1.005364746477e-03
    39   -8.936984116622e-05
    40    3.082087516277e-03
    41   -1.704083703217e-03
    42   -2.228745654390e-03
    43    3.139332078810e-02
    44    6.123344906041e-05
    45   -3.022011082471e-03
    46   -1.803252026859e-03
    47   -2.117623746337e-03
    48    3.140592268483e-02
Sym=X
Ene= 0.858425
Spin=Alpha
Occup=0
     1    1.432580617520e-02
     2   -1.075764183375e+00
     3    1.463162421937e-01
     4    5.605973471243e-02
     5    1.064319441039e-02
     6    5.112870361828e-06
     7    9.806549910905e-06
     8    1.185390110457e-05
     9   -4.115330458575e-01
    10   -4.328556887700e-01
    11   -4.929377690381e-02
    12    9.369248346450e-01
    13    9.854066211450e-01
    14    1.119003872604e-01
    15   -2.255183811560e-04
    16    1.177388226684e-02
    17   -1.334307593905e-02
    18    2.303751046537e-01
    19    1.177589222724e-02
    20   -1.427867987611e-02
    21    1.075670973920e+00
    22    4.854973703234e-02
    23    1.488911771628e-01
    24    1.156614982520e-02
    25   -4.361885932512e-06
    26   -4.663270192365e-07
    27   -1.329842087416e-05
    28   -4.118542215113e-01
    29   -4.332686737844e-01
    30   -4.257381228996e-02
    31    9.376166308717e-01
    32    9.863194338915e-01
    33    9.724063323494e-02
    34    2.227668776630e-04
    35   -1.178113657192e-02
    36    1.335328428390e-02
    37   -2.303776129981e-01
    38   -1.178145871497e-02
    39    1.427534902026e-02
    40   -1.075671357120e+00
    41    4.856564703253e-02
    42    1.489206244241e-01
    43    1.110258526953e-02
    44   -1.431881286856e-02
    45    1.075760941921e+00
    46    1.463401085314e-01
    47    5.608692748250e-02
    48    1.017331794152e-02
Sym=X
Ene= 0.928009
Spin=Alpha
Occup=0
     1    1.417413085525e-01
     2   -1.231163737018e+00
     3    1.826843956140e-01
     4   -5.775557764639e-03
     5    8.764633694697e-03
     6    2.576515001151e-06
     7    8.481381439803e-05
     8   -1.242144052419e-04
     9   -4.739196530957e-01
    10   -4.985113891537e-01
    11   -5.387395447870e-02
    12    1.382632083083e+00
    13    1.454444784704e+00
    14    1.570777926957e-01
    15   -1.363135290227e-04
    16    6.926771420474e-03
    17   -7.735853387924e-03
    18    1.255830618253e-01
    19    6.416132525828e-03
    20   -1.417249672108e-01
    21    1.231290721151e+00
    22   -1.509064629550e-02
    23    1.820622063685e-01
    24    1.059883565085e-02
    25    2.335522727023e-06
    26    6.879697413100e-05
    27   -1.399601468450e-04
    28    4.740305466814e-01
    29    4.986135111276e-01
    30    5.188976257379e-02
    31   -1.382948722077e+00
    32   -1.454715980341e+00
    33   -1.514877910184e-01
    34   -1.252407673332e-04
    35    5.930792166023e-03
    36   -6.810267196531e-03
    37    1.256856571383e-01
    38    6.452609447913e-03
    39   -1.417155868051e-01
    40    1.231234366334e+00
    41    1.506956403694e-02
    42   -1.820933652528e-01
    43   -9.942951028521e-03
    44    1.417537967347e-01
    45   -1.231214995839e+00
    46   -1.827223057322e-01
    47    5.731079554126e-03
    48   -8.098079823826e-03
Sym=X
Ene= 0.970585
Spin=Alpha
Occup=0
     1   -5.973629944268e-02
     2    8.967676620092e-01
     3   -8.757573865656e-02
     4   -9.661322676430e-02
     5   -1.011721104726e-02
     6    2.706942292528e-02
     7    2.529097555124e-01
     8    5.138904809363e-01
     9    4.831082768729e-01
    10   -4.587916411980e-01
    11   -4.496391872998e-03
    12   -1.474821549166e+00
    13    1.400553293880e+00
    14    1.371232833270e-02
    15   -5.791050038289e-02
    16   -1.234820195312e-02
    17   -9.133062314019e-03
    18    1.518465766907e-02
    19   -2.963744414673e-01
    20   -5.976092048724e-02
    21    8.966690068494e-01
    22    9.206064074445e-02
    23    9.233460576856e-02
    24    1.008710690520e-02
    25   -2.706888736382e-02
    26   -2.528614592974e-01
    27   -5.139686343300e-01
    28    4.830841395404e-01
    29   -4.588088261934e-01
    30   -4.527648061099e-03
    31   -1.474726445510e+00
    32    1.400647374041e+00
    33    1.380306428711e-02
    34    5.792412966040e-02
    35    1.243326612776e-02
    36    9.227112991685e-03
    37   -1.519111386893e-02
    38    2.963563964132e-01
    39    5.975710485801e-02
    40   -8.967220595141e-01
    41    9.206324153885e-02
    42    9.235132093394e-02
    43    9.931749453483e-03
    44    5.974332645468e-02
    45   -8.966676434023e-01
    46   -8.757021676912e-02
    47   -9.662232574209e-02
    48   -9.948931920094e-03
[5D]

======= END OF MOLDEN-FORMATTED INPUT FILE =======


        *************************************************************
        *                                                           *
        *  Thank you very much for using Q-Chem.  Have a nice day.  *
        *                                                           *
        *************************************************************


