                  Welcome to Q-Chem
     A Quantum Leap Into The Future Of Chemistry


 Q-Chem 5.4 (devel), Q-Chem, Inc., Pleasanton, CA (2021)

 E. Epifanovsky,  A. T. B. Gilbert,  Xintian Feng,  Joonho Lee,  Yuezhi Mao,  
 N. Mardirossian,  P. Pokhilko,  A. White,  M. Wormit,  M. P. Coons,  
 A. L. Dempwolff,  Zhengting Gan,  D. Hait,  P. R. Horn,  L. D. Jacobson,  
 I. Kaliman,  J. Kussmann,  A. W. Lange,  Ka Un Lao,  D. S. Levine,  Jie Liu,  
 S. C. McKenzie,  A. F. Morrison,  K. Nanda,  F. Plasser,  D. R. Rehn,  
 M. L. Vidal,  Zhi-Qiang You,  Ying Zhu,  B. Alam,  B. Albrecht,  
 A. Aldossary,  E. Alguire,  J. H. Andersen,  D. Barton,  K. Begam,  A. Behn,  
 Y. A. Bernard,  E. J. Berquist,  H. Burton,  A. Carreras,  K. Carter-Fenk,  
 R. Chakraborty,  A. D. Chien,  K. D. Closser,  V. Cofer-Shabica,  
 S. Dasgupta,  Jia Deng,  M. de Wergifosse,  M. Diedenhofen,  Hainam Do,  
 S. Ehlert,  Po-Tung Fang,  S. Fatehi,  Qingguo Feng,  T. Friedhoff,  
 J. Gayvert,  Qinghui Ge,  G. Gidofalvi,  M. Goldey,  J. Gomes,  
 C. Gonzalez-Espinoza,  S. Gulania,  A. Gunina,  M. W. D. Hanson-Heine,  
 P. H. P. Harbach,  A. W. Hauser,  M. F. Herbst,  M. Hernandez Vera,  
 M. Hodecker,  Z. C. Holden,  S. Houck,  Xunkun Huang,  Kerwin Hui,  
 B. C. Huynh,  M. Ivanov,  Hyunjun Ji,  Hanjie Jiang,  B. Kaduk,  S. Kaehler,  
 K. Khistyaev,  Jaehoon Kim,  P. Klunzinger,  Z. Koczor-Benda,  
 Joong Hoon Koh,  D. Kosenkov,  L. Koulias,  T. Kowalczyk,  C. M. Krauter,  
 K. Kue,  A. Kunitsa,  T. Kus,  A. Landau,  K. V. Lawler,  D. Lefrancois,  
 S. Lehtola,  Rain Li,  Yi-Pei Li,  Jiashu Liang,  M. Liebenthal,  
 Hung-Hsuan Lin,  You-Sheng Lin,  Fenglai Liu,  Kuan-Yu Liu,  
 M. Loipersberger,  A. Luenser,  A. Manjanath,  P. Manohar,  E. Mansoor,  
 S. F. Manzer,  Shan-Ping Mao,  A. V. Marenich,  T. Markovich,  S. Mason,  
 S. A. Maurer,  P. F. McLaughlin,  M. F. S. J. Menger,  J.-M. Mewes,  
 S. A. Mewes,  P. Morgante,  J. W. Mullinax,  K. J. Oosterbaan,  G. Paran,  
 Alexander C. Paul,  Suranjan K. Paul,  F. Pavosevic,  Zheng Pei,  S. Prager,  
 E. I. Proynov,  E. Ramos,  B. Rana,  A. E. Rask,  A. Rettig,  R. M. Richard,  
 F. Rob,  E. Rossomme,  T. Scheele,  M. Scheurer,  M. Schneider,  
 N. Sergueev,  S. M. Sharada,  W. Skomorowski,  D. W. Small,  C. J. Stein,  
 Yu-Chuan Su,  E. J. Sundstrom,  Zhen Tao,  J. Thirman,  T. Tsuchimochi,  
 N. M. Tubman,  S. P. Veccham,  O. Vydrov,  J. Wenzel,  J. Witte,  A. Yamada,  
 Kun Yao,  S. Yeganeh,  S. R. Yost,  A. Zech,  Igor Ying Zhang,  Xing Zhang,  
 Yu Zhang,  D. Zuev,  A. Aspuru-Guzik,  A. T. Bell,  N. A. Besley,  
 K. B. Bravaya,  B. R. Brooks,  D. Casanova,  Jeng-Da Chai,  S. Coriani,  
 C. J. Cramer,  A. E. DePrince, III,  R. A. DiStasio Jr.,  A. Dreuw,  
 B. D. Dunietz,  T. R. Furlani,  W. A. Goddard III,  S. Grimme,  
 S. Hammes-Schiffer,  T. Head-Gordon,  W. J. Hehre,  Chao-Ping Hsu,  
 T.-C. Jagau,  Yousung Jung,  A. Klamt,  Jing Kong,  D. S. Lambrecht,  
 WanZhen Liang,  N. J. Mayhall,  C. W. McCurdy,  J. B. Neaton,  
 C. Ochsenfeld,  J. A. Parkhill,  R. Peverati,  V. A. Rassolov,  Yihan Shao,  
 L. V. Slipchenko,  T. Stauch,  R. P. Steele,  J. E. Subotnik,  
 A. J. W. Thom,  A. Tkatchenko,  D. G. Truhlar,  T. Van Voorhis,  
 T. A. Wesolowski,  K. B. Whaley,  H. L. Woodcock III,  P. M. Zimmerman,  
 S. Faraji,  P. M. W. Gill,  M. Head-Gordon,  J. M. Herbert,  A. I. Krylov

 Additional authors for Version 5.4.1: 
 S. Kotaru,  Shaozhi Li,  Xiangyuan Li,  F. Matz,  A. Molle,  Haisheng Ren,  
 Yingli Su,  Hung-Yi Tsai,  C. Utku,  Fang Wang

 Contributors to earlier versions of Q-Chem not listed above: 
 R. D. Adamson,  B. Austin,  R. Baer,  J. Baker,  G. J. O. Beran,  
 K. Brandhorst,  S. T. Brown,  E. F. C. Byrd,  A. K. Chakraborty,  
 G. K. L. Chan,  Chun-Min Chang,  Yunqing Chen,  C.-L. Cheng,  
 Siu Hung Chien,  D. M. Chipman,  D. L. Crittenden,  H. Dachsel,  
 R. J. Doerksen,  A. D. Dutoi,  R. G. Edgar,  J. Fosso-Tande,  
 L. Fusti-Molnar,  D. Ghosh,  A. Ghysels,  A. Golubeva-Zadorozhnaya,  
 J. Gonthier,  M. S. Gordon,  S. R. Gwaltney,  G. Hawkins,  J. E. Herr,  
 A. Heyden,  S. Hirata,  E. G. Hohenstein,  G. Kedziora,  F. J. Keil,  
 C. Kelley,  Jihan Kim,  R. A. King,  R. Z. Khaliullin,  P. P. Korambath,  
 W. Kurlancheek,  A. Laurent,  A. M. Lee,  M. S. Lee,  S. V. Levchenko,  
 Ching Yeh Lin,  D. Liotard,  E. Livshits,  R. C. Lochan,  I. Lotan,  
 L. A. Martinez-Martinez,  P. E. Maslen,  N. Nair,  D. P. O'Neill,  
 D. Neuhauser,  E. Neuscamman,  C. M. Oana,  R. Olivares-Amaya,  R. Olson,  
 T. M. Perrine,  B. Peters,  P. A. Pieniazek,  A. Prociuk,  Y. M. Rhee,  
 J. Ritchie,  M. A. Rohrdanz,  E. Rosta,  N. J. Russ,  H. F. Schaefer III,  
 M. W. Schmidt,  N. E. Schultz,  S. Sharma,  N. Shenvi,  C. D. Sherrill,  
 A. C. Simmonett,  A. Sodt,  T. Stein,  D. Stuck,  K. S. Thanthiriwatte,  
 V. Vanovschi,  L. Vogt,  Tao Wang,  A. Warshel,  M. A. Watson,  
 C. F. Williams,  Q. Wu,  X. Xu,  Jun Yang,  W. Zhang,  Yan Zhao

 Please cite Q-Chem as follows:
 Y. Shao et al., Mol. Phys. 113, 184-215 (2015)
 DOI: 10.1080/00268976.2014.952696

 Q-Chem 5.4.1 for Intel X86 EM64T Linux

 Parts of Q-Chem use Armadillo 9.800.1 (Horizon Scraper).
 http://arma.sourceforge.net/

 Q-Chem begins on Thu Nov 17 15:41:06 2022  

 Host: cpu185.baobab
0

     Scratch files written to /scratch/fum/qchem21782//
 Processing $rem in /home/share/wesolowski/qc5.aug2021.FDE/config/preferences:
 Processing $rem in /home/fum/.qchemrc:

 Checking the input file for inconsistencies... 	...done.

--------------------------------------------------------------
User input:
--------------------------------------------------------------
$comment
generated from CCJob.Templates
$end

$rem
sym_ignore = true
method = adc(2)
ee_states = 10
basis = cc-pVDZ
mem_static = 1024
mem_total = 40000
adc_davidson_maxiter = 900
adc_davidson_conv = 6
adc_print = 3
adc_prop_es = true
adc_prop_es2es = true
adc_prop_tpa = true
molden_format = True
state_analysis = true
print_orbitals = 15
gen_scfman = false
fde_export_density = true
fde_details = 3
$end

$molecule
0 1
H -0.0448278765 -0.2442097827 0.0636489606
C -1.0765972949 -0.5242748755 -0.0023551776
H -1.313264467 -1.5767591607 -0.0757276926
C -2.043634118 0.3926884087 0.0061254933
H -1.8137616575 1.4459188338 0.0804456828
H -3.085977293 0.114931858 -0.0593381042                     
$end
--------------------------------------------------------------
 ----------------------------------------------------------------
             Standard Nuclear Orientation (Angstroms)
    I     Atom           X                Y                Z
 ----------------------------------------------------------------
    1      H      -0.0448278765    -0.2442097827     0.0636489606
    2      C      -1.0765972949    -0.5242748755    -0.0023551776
    3      H      -1.3132644670    -1.5767591607    -0.0757276926
    4      C      -2.0436341180     0.3926884087     0.0061254933
    5      H      -1.8137616575     1.4459188338     0.0804456828
    6      H      -3.0859772930     0.1149318580    -0.0593381042
 ----------------------------------------------------------------
 Nuclear Repulsion Energy =          33.45917798 hartrees
 There are        8 alpha and        8 beta electrons
 Requested basis set is cc-pVDZ
 There are 24 shells and 48 basis functions
 Total memory of 40000 MB is distributed as follows: 
   MEM_STATIC is set to 1024 MB
   QALLOC/CCMAN JOB total memory use is  38976 MB
 Warning: actual memory use might exceed 40000 MB

 Total QAlloc Memory Limit  40000 MB
 Mega-Array Size      1001 MB
 MEM_STATIC part      1024 MB

                       Distance Matrix (Angstroms)
             H (  1)   C (  2)   H (  3)   C (  4)   H (  5)
   C (  2)  1.071140
   H (  3)  1.845005  1.081258
   C (  4)  2.098613  1.332687  2.102109
   H (  5)  2.446619  2.105215  3.067812  1.080583
   H (  6)  3.064751  2.109370  2.450428  1.080700  1.846510

 A cutoff of  1.0D-11 yielded    300 shell pairs
 There are      1220 function pairs (      1329 Cartesian)
 Smallest overlap matrix eigenvalue = 4.80E-03

 Scale SEOQF with 1.000000e-01/1.000000e-01/1.000000e+00

 Standard Electronic Orientation quadrupole field applied
 Nucleus-field energy     =     0.0000000022 hartrees
 Guess from superposition of atomic densities
 Warning:  Energy on first SCF cycle will be non-variational
 SAD guess density has 16.000000 electrons
 A restricted Hartree-Fock SCF calculation will be
 performed using Pulay DIIS extrapolation
 SCF converges when DIIS error is below 1.0E-08
 using 10 threads for integral computing
 -------------------------------------------------------
 OpenMP Integral computing Module                
 Release: version 1.0, May 2013, Q-Chem Inc. Pittsburgh 
 -------------------------------------------------------
 ---------------------------------------
  Cycle       Energy         DIIS Error
 ---------------------------------------
    1     -78.4457965749      1.01E-01
    2     -78.0175475609      7.23E-03
    3     -78.0382098331      1.85E-03
    4     -78.0396941930      5.74E-04
    5     -78.0398164220      5.83E-05
    6     -78.0398183092      1.00E-05
    7     -78.0398183731      3.50E-06
    8     -78.0398183779      1.07E-06
    9     -78.0398183785      1.49E-07
   10     -78.0398183785      4.61E-08
   11     -78.0398183785      8.11E-09 Convergence criterion met
 ---------------------------------------
 SCF time:  CPU 1.53 s  wall 2.98 s
 SCF   energy in the final basis set = -78.03981838
 Total energy in the final basis set = -78.03981838
Exporting Density Matrix to file 'Densmat_SCF.txt'.
Export successful
================================================================================
|                                                                              |
|                                 A D C  M A N                                 |
|                                                                              |
 ------------------------------------------------------------------------------ 
|                                                                              |
| Components:                                                                  |
|                                                                              |
| - libvmm - 1.3-trunk                                                         |
|   Authors:                                                                   |
|   Evgeny Epifanovsky, Ilya Kaliman                                           |
|                                                                              |
| - libtensor - 2.5-trunk                                                      |
|   Authors:                                                                   |
|   Evgeny Epifanovsky, Michael Wormit, Dmitry Zuev, Sam Manzer,               |
|   Ilya Kaliman                                                               |
|                                                                              |
| - libwfa - 1.1-trunk                                                         |
|   Authors:                                                                   |
|   Felix Plasser, Stefanie Mewes (Baeppler), Benjamin Thomitzni,              |
|   Michael Wormit, Feng Chen, Anna I. Krylov, Pavel Pokhilko                  |
|                                                                              |
| - libadc - 1.1-trunk                                                         |
|   Authors:                                                                   |
|   Michael Wormit, Adrian L. Dempwolff, Philipp H. P. Harbach,                |
|   Caroline Krauter, Dirk Rehn, Matthias Schneider, Jan Wenzel                |
|                                                                              |
| - adcman - 2.6-trunk                                                         |
|   Authors:                                                                   |
|   Michael Wormit, Adrian L. Dempwolff, Philipp H. P. Harbach,                |
|   Caroline Krauter, Daniel Lefrancois, Jan-Michael Mewes, Dirk Rehn,         |
|   Matthias Schneider, Jan Wenzel, Andreas Dreuw                              |
|                                                                              |
| Authors of earlier versions of ADCMAN:                                       |
| Andreas Dreuw, Jan Hendrik Starcke, Dirk Rehn, Michael Wormit                |
|                                                                              |
================================================================================

 Created directory /scratch/fum/qchem21782/plots
  Import QC data ...  CPU 0.00 s  wall 0.00 s

 Alpha MOs, Restricted
 -- Occupied --                  
-11.235 -11.233  -1.033  -0.791  -0.642  -0.582  -0.505  -0.374
  1 A     2 A     3 A     4 A     5 A     6 A     7 A     8 A                  
 -- Virtual --                   
  0.168   0.204   0.233   0.240   0.303   0.462   0.577   0.616
  9 A    10 A    11 A    12 A    13 A    14 A    15 A    16 A                  
  0.689   0.710   0.786   0.808   0.863   0.937   0.973   1.010
 17 A    18 A    19 A    20 A    21 A    22 A    23 A    24 A                  
  1.131   1.234   1.256   1.266   1.294   1.603   1.728   1.752
 25 A    26 A    27 A    28 A    29 A    30 A    31 A    32 A                  
  1.821   1.860   1.869   1.924   1.977   1.981   2.222   2.259
 33 A    34 A    35 A    36 A    37 A    38 A    39 A    40 A                  
  2.379   2.459   2.510   2.637   2.728   2.828   3.147   3.405
 41 A    42 A    43 A    44 A    45 A    46 A    47 A    48 A                  

 Beta MOs, Restricted
 -- Occupied --                  
-11.235 -11.233  -1.033  -0.791  -0.642  -0.582  -0.505  -0.374
  1 A     2 A     3 A     4 A     5 A     6 A     7 A     8 A                  
 -- Virtual --                   
  0.168   0.204   0.233   0.240   0.303   0.462   0.577   0.616
  9 A    10 A    11 A    12 A    13 A    14 A    15 A    16 A                  
  0.689   0.710   0.786   0.808   0.863   0.937   0.973   1.010
 17 A    18 A    19 A    20 A    21 A    22 A    23 A    24 A                  
  1.131   1.234   1.256   1.266   1.294   1.603   1.728   1.752
 25 A    26 A    27 A    28 A    29 A    30 A    31 A    32 A                  
  1.821   1.860   1.869   1.924   1.977   1.981   2.222   2.259
 33 A    34 A    35 A    36 A    37 A    38 A    39 A    40 A                  
  2.379   2.459   2.510   2.637   2.728   2.828   3.147   3.405
 41 A    42 A    43 A    44 A    45 A    46 A    47 A    48 A                  
  Import AO data ...  CPU 0.00 s  wall 0.00 s
  Using point group: C1
  Irreducible representations in point group: A
  Molecular orbitals: 
  Occupied MOs:
  Block   0:   1 (  A) A   2 (  A) A   3 (  A) A   4 (  A) A   5 (  A) A
                  -11.23      -11.23      -1.033     -0.7907     -0.6421
               6 (  A) A   7 (  A) A   8 (  A) A
                 -0.5821     -0.5054     -0.3739
  Block   1:   1 (  A) B   2 (  A) B   3 (  A) B   4 (  A) B   5 (  A) B
                  -11.23      -11.23      -1.033     -0.7907     -0.6421
               6 (  A) B   7 (  A) B   8 (  A) B
                 -0.5821     -0.5054     -0.3739
  Virtual MOs:
  Block   0:   9 (  A) A  10 (  A) A  11 (  A) A  12 (  A) A  13 (  A) A
                  0.1684      0.2039      0.2333      0.2398      0.3033
              14 (  A) A  15 (  A) A  16 (  A) A  17 (  A) A  18 (  A) A
                  0.4621      0.5773      0.6158      0.6892      0.7098
              19 (  A) A  20 (  A) A  21 (  A) A  22 (  A) A
                   0.786       0.808      0.8629      0.9372
  Block   1:  23 (  A) A  24 (  A) A  25 (  A) A  26 (  A) A  27 (  A) A
                  0.9729        1.01       1.131       1.234       1.256
              28 (  A) A  29 (  A) A  30 (  A) A  31 (  A) A  32 (  A) A
                   1.266       1.294       1.603       1.728       1.752
              33 (  A) A  34 (  A) A  35 (  A) A  36 (  A) A
                   1.821        1.86       1.869       1.924
  Block   2:  37 (  A) A  38 (  A) A  39 (  A) A  40 (  A) A  41 (  A) A
                   1.977       1.981       2.222       2.259       2.379
              42 (  A) A  43 (  A) A  44 (  A) A  45 (  A) A  46 (  A) A
                   2.459        2.51       2.637       2.728       2.828
              47 (  A) A  48 (  A) A
                   3.147       3.405
  Block   3:   9 (  A) B  10 (  A) B  11 (  A) B  12 (  A) B  13 (  A) B
                  0.1684      0.2039      0.2333      0.2398      0.3033
              14 (  A) B  15 (  A) B  16 (  A) B  17 (  A) B  18 (  A) B
                  0.4621      0.5773      0.6158      0.6892      0.7098
              19 (  A) B  20 (  A) B  21 (  A) B  22 (  A) B
                   0.786       0.808      0.8629      0.9372
  Block   4:  23 (  A) B  24 (  A) B  25 (  A) B  26 (  A) B  27 (  A) B
                  0.9729        1.01       1.131       1.234       1.256
              28 (  A) B  29 (  A) B  30 (  A) B  31 (  A) B  32 (  A) B
                   1.266       1.294       1.603       1.728       1.752
              33 (  A) B  34 (  A) B  35 (  A) B  36 (  A) B
                   1.821        1.86       1.869       1.924
  Block   5:  37 (  A) B  38 (  A) B  39 (  A) B  40 (  A) B  41 (  A) B
                   1.977       1.981       2.222       2.259       2.379
              42 (  A) B  43 (  A) B  44 (  A) B  45 (  A) B  46 (  A) B
                   2.459        2.51       2.637       2.728       2.828
              47 (  A) B  48 (  A) B
                   3.147       3.405
  Import MO data ...  CPU 0.01 s  wall 0.00 s
  Import HF data ...  CPU 0.08 s  wall 0.03 s
  Import 2e integrals ...  CPU 0.68 s  wall 0.13 s

--------------------------------------------------------------------------------
                                   HF Summary                                   
--------------------------------------------------------------------------------
  Energy:                                                  -78.0398183785 a.u.
  Dip. moment [a.u.]:                  [   0.000879,    0.001005,    0.000688]
  Total dipole [Debye]:                                               0.003817
  <r^2> [a.u.]:                        [ 175.332416,   34.914553,   11.616941]
  Total <r^2> [a.u.]:                                               221.863911
--------------------------------------------------------------------------------
  HF properties ...  CPU 0.01 s  wall 0.01 s
  MP(1) calculation ...  CPU 0.01 s  wall 0.00 s
  N^6 prerequesite intermediates ...  CPU 0.62 s  wall 0.10 s
  Difference density matrix of state mp2_gs printed to ASCII file 'State_mp2_gs_Difference.txt'
Exporting MP density matrix to file 'Densmat_MP.txt'.
Export successful
  Total density matrix of state mp2_gs printed to ASCII file 'State_mp2_gs_Total.txt'
Exporting MP density matrix to file 'Densmat_MP.txt'.
Export successful

--------------------------------------------------------------------------------
                                 MP(2) Summary                                  
--------------------------------------------------------------------------------
  MP energy contribution:                                   -0.2795700252 a.u.
  Total energy:                                            -78.3193884037 a.u.
  Dip. moment [a.u.]:                  [   0.000751,    0.000770,    0.000661]
  Total dipole [Debye]:                                               0.003208
  <r^2> [a.u.]:                        [ 175.379689,   34.955497,   11.449449]
  Total <r^2> [a.u.]:                                               221.784635

  Density matrix analysis:
  ------------------------
  NOs
    Occupation of frontier NOs:
       0.0453   1.9383
    Number of electrons: 16.000000
    Number of unpaired electrons: n_u =  0.40279, n_u,nl =  0.04496
    NO participation ratio (PR_NO): 13.849037
  
  
  Mulliken Population Analysis
  Atom      Charge (e)              h+              e-           Del q
  --------------------------------------------------------------------
   1 H        0.048269        0.014179       -0.011155        0.003024
   2 C       -0.095926        0.092616       -0.098547       -0.005932
   3 H        0.050279        0.014086       -0.011164        0.002922
   4 C       -0.102973        0.093071       -0.098916       -0.005845
   5 H        0.049984        0.014117       -0.011178        0.002940
   6 H        0.050368        0.014080       -0.011189        0.002891
  --------------------------------------------------------------------
  Sum:        0.000000        0.242149       -0.242149       -0.000000
  
  Multipole moment analysis of the density matrix
    Molecular charge:                      0.000000
    Number of electrons:                   16.000000
      Center of electronic charge [Ang]: [ -1.561226,  -0.065628,   0.001956]
    Total nuclear charge:                  16.000000
      Center of nuclear charge [Ang]:    [ -1.561201,  -0.065602,   0.001978]
    Dipole moment [D]:                     0.003208
      Cartesian components [D]:          [  0.001909,   0.001957,   0.001679]
    RMS size of the density [Ang]:         1.199954
      Cartesian components [Ang]:        [  0.795003,   0.779408,   0.447640]
  
  Exciton analysis of the difference density matrix
    <r_h> [Ang]:                  [ -1.562478,  -0.065503,   0.001810]
    <r_e> [Ang]:                  [ -1.562200,  -0.064989,   0.001870]
    |<r_e - r_h>| [Ang]:            0.000588
    Hole size [Ang]:                1.392464
      Cartesian components [Ang]: [  0.844668,   0.834190,   0.727749]
    Electron size [Ang]:            1.359491
      Cartesian components [Ang]: [  0.876928,   0.862142,   0.579591]
--------------------------------------------------------------------------------
  MP(2) calculation ...  CPU 0.13 s  wall 0.20 s
  Start ADC(2)-s ...  CPU 0.01 s  wall 0.00 s
  ADC(2) intermediates ...  CPU 0.02 s  wall 0.01 s
  Starting Davidson for singlet states of irrep A ... 
--------------------------------------------------------------------------------
   It NVec Conv  Avg. Norm  Max. Norm  Conv. states           Remark
--------------------------------------------------------------------------------
        10    0  1.330e-01  4.688e-01  0.4120 n n n n n n n n Guess.
    1   20    0  2.306e-02  1.109e-01  0.3262 n n n n n n n n 
    2   30    0  5.918e-03  2.721e-02  0.3215 n n n n n n n n 
    3   40    0  2.114e-03  1.533e-02  0.3211 n n n n n n n n 
    4   50    0  6.370e-04  4.847e-03  0.3211 n n n n n n n n 
    5   20    0  2.672e-04  1.920e-03  0.3211 n n n n n n n n Subspace collapsed.
    6   30    0  1.935e-04  1.753e-03  0.3211 n n n n n n n n 
    7   40    0  1.140e-04  9.552e-04  0.3211 n n n n n n n n 
    8   50    0  1.055e-04  9.986e-04  0.3211 n n n n n n n n 
    9   20    2  1.003e-04  9.786e-04  0.3211 n y n y n n n n Subspace collapsed.
   10   30    4  1.195e-04  1.181e-03  0.3211 n y y y n y n n 
   11   40    5  1.293e-04  1.291e-03  0.3211 n y y y y y n n 
   12   50    6  1.062e-04  1.061e-03  0.3211 y y y y y y n n 
   13   20    6  5.620e-05  5.617e-04  0.3211 y y y y y y n n Subspace collapsed.
   14   30    6  3.942e-05  3.939e-04  0.3211 y y y y y y n n 
   15   40    7  2.332e-05  2.330e-04  0.3211 y y y y y y n y 
   16   50    7  2.447e-05  2.446e-04  0.3211 y y y y y y n y 
   17   20    8  1.467e-05  1.467e-04  0.3211 y y y y y y n y Subspace collapsed.
   18   30    8  2.257e-05  2.257e-04  0.3211 y y y y y y n y 
   19   40    9  2.294e-05  2.294e-04  0.3211 y y y y y y y y 
   20   50    9  2.220e-05  2.220e-04  0.3211 y y y y y y y y 
   21   20    9  8.798e-06  8.798e-05  0.3211 y y y y y y y y Subspace collapsed.
   22   30    9  8.823e-06  8.823e-05  0.3211 y y y y y y y y 
   23   32    9  7.480e-06  7.480e-05  0.3211 y y y y y y y y 
   24   33    9  7.238e-06  7.238e-05  0.3211 y y y y y y y y 
   25   34    9  7.466e-06  7.466e-05  0.3211 y y y y y y y y 
   26   35    9  7.435e-06  7.435e-05  0.3211 y y y y y y y y 
   27   35    9  7.435e-06  7.435e-05  0.3211 y y y y y y y y 
   28   45    9  5.619e-06  5.619e-05  0.3211 y y y y y y y y 
   29   50    9  5.192e-06  5.192e-05  0.3211 y y y y y y y y 
   30   16    9  3.977e-06  3.977e-05  0.3211 y y y y y y y y Subspace collapsed.
   31   21    9  5.091e-06  5.091e-05  0.3211 y y y y y y y y 
   32   25    9  5.013e-06  5.013e-05  0.3211 y y y y y y y y 
   33   29    9  4.883e-06  4.883e-05  0.3211 y y y y y y y y 
   34   33    9  3.596e-06  3.596e-05  0.3211 y y y y y y y y 
   35   37    9  2.399e-06  2.399e-05  0.3211 y y y y y y y y 
   36   41    9  1.466e-06  1.466e-05  0.3211 y y y y y y y y 
   37   45    9  5.439e-07  5.439e-06  0.3211 y y y y y y y y 
   38   49    9  3.123e-07  3.123e-06  0.3211 y y y y y y y y 
   39   50    9  3.134e-07  3.134e-06  0.3211 y y y y y y y y 
   40   14    9  1.428e-07  1.428e-06  0.3211 y y y y y y y y Subspace collapsed.
   41   18    9  1.359e-07  1.359e-06  0.3211 y y y y y y y y 
   42   22   10  6.840e-08  6.840e-07  0.3211 y y y y y y y y Converged.
--------------------------------------------------------------------------------
  Davidson Summary: 
 ------------------------------------------------------------
  State  0: excitation energy =   0.3211 a.u.   (converged)
  State  1: excitation energy =   0.3333 a.u.   (converged)
  State  2: excitation energy =   0.3373 a.u.   (converged)
  State  3: excitation energy =   0.3620 a.u.   (converged)
  State  4: excitation energy =   0.3756 a.u.   (converged)
  State  5: excitation energy =   0.3874 a.u.   (converged)
  State  6: excitation energy =   0.4255 a.u.   (converged)
  State  7: excitation energy =   0.4475 a.u.   (converged)
  State  8: excitation energy =   0.4567 a.u.   (converged)
  State  9: excitation energy =   0.4657 a.u.   (converged)
 ------------------------------------------------------------

  Singlet states of irrep A ...  CPU 95.91 s  wall 33.62 s
  TDMs ...  CPU 0.67 s  wall 0.28 s
  SDMs ...  CPU 1.48 s  wall 0.52 s
  Starting TPA DIIS iterations ... 
------------------------------------ 
   It     Res. Norm  Remark
------------------------------------
                       Guess.
    1     4.411e+00  
    2     5.847e+00  
    3     1.075e+00  
    4     2.541e-01  
    5     6.555e-02  
    6     2.634e-02  
    7     8.184e-03  
    8     1.399e-03  
    9     5.171e-04  
   10     8.798e-05  
   11     2.709e-05  
   12     4.243e-06  
   13     1.358e-06  
   14     4.144e-07  Converged.
   ... Converged in 14 steps (norm: 4.14403e-07)
------------------------------------
  Starting TPA DIIS iterations ... 
------------------------------------ 
   It     Res. Norm  Remark
------------------------------------
                       Guess.
    1     4.184e+00  
    2     5.542e+00  
    3     1.030e+00  
    4     2.561e-01  
    5     6.554e-02  
    6     2.683e-02  
    7     8.107e-03  
    8     1.458e-03  
    9     5.376e-04  
   10     8.949e-05  
   11     2.834e-05  
   12     4.310e-06  
   13     1.406e-06  
   14     4.142e-07  Converged.
   ... Converged in 14 steps (norm: 4.14226e-07)
------------------------------------
  Starting TPA DIIS iterations ... 
------------------------------------ 
   It     Res. Norm  Remark
------------------------------------
                       Guess.
    1     6.879e-01  
    2     4.837e-01  
    3     1.709e-01  
    4     6.038e-02  
    5     1.824e-02  
    6     6.605e-03  
    7     1.035e-03  
    8     4.433e-04  
    9     1.271e-04  
   10     2.557e-05  
   11     7.778e-06  
   12     2.364e-06  
   13     1.660e-06  
   14     7.023e-07  Converged.
   ... Converged in 14 steps (norm: 7.02263e-07)
------------------------------------
  Starting TPA DIIS iterations ... 
------------------------------------ 
   It     Res. Norm  Remark
------------------------------------
                       Guess.
    1     4.713e+00  
    2     6.389e+00  
    3     1.159e+00  
    4     2.838e-01  
    5     7.427e-02  
    6     3.010e-02  
    7     9.334e-03  
    8     1.592e-03  
    9     5.932e-04  
   10     1.015e-04  
   11     3.160e-05  
   12     4.993e-06  
   13     1.610e-06  
   14     4.907e-07  Converged.
   ... Converged in 14 steps (norm: 4.90673e-07)
------------------------------------
  Starting TPA DIIS iterations ... 
------------------------------------ 
   It     Res. Norm  Remark
------------------------------------
                       Guess.
    1     4.470e+00  
    2     6.056e+00  
    3     1.111e+00  
    4     2.858e-01  
    5     7.426e-02  
    6     3.069e-02  
    7     9.250e-03  
    8     1.662e-03  
    9     6.171e-04  
   10     1.033e-04  
   11     3.304e-05  
   12     5.068e-06  
   13     1.666e-06  
   14     4.896e-07  Converged.
   ... Converged in 14 steps (norm: 4.89557e-07)
------------------------------------
  Starting TPA DIIS iterations ... 
------------------------------------ 
   It     Res. Norm  Remark
------------------------------------
                       Guess.
    1     7.006e-01  
    2     5.020e-01  
    3     1.813e-01  
    4     6.874e-02  
    5     1.971e-02  
    6     7.252e-03  
    7     1.176e-03  
    8     5.253e-04  
    9     1.539e-04  
   10     2.859e-05  
   11     9.070e-06  
   12     2.829e-06  
   13     2.100e-06  
   14     9.020e-07  Converged.
   ... Converged in 14 steps (norm: 9.01999e-07)
------------------------------------
  Starting TPA DIIS iterations ... 
------------------------------------ 
   It     Res. Norm  Remark
------------------------------------
                       Guess.
    1     4.820e+00  
    2     6.584e+00  
    3     1.189e+00  
    4     2.946e-01  
    5     7.744e-02  
    6     3.147e-02  
    7     9.753e-03  
    8     1.662e-03  
    9     6.211e-04  
   10     1.065e-04  
   11     3.327e-05  
   12     5.271e-06  
   13     1.705e-06  
   14     5.190e-07  Converged.
   ... Converged in 14 steps (norm: 5.19018e-07)
------------------------------------
  Starting TPA DIIS iterations ... 
------------------------------------ 
   It     Res. Norm  Remark
------------------------------------
                       Guess.
    1     4.571e+00  
    2     6.240e+00  
    3     1.140e+00  
    4     2.966e-01  
    5     7.744e-02  
    6     3.210e-02  
    7     9.667e-03  
    8     1.736e-03  
    9     6.462e-04  
   10     1.084e-04  
   11     3.478e-05  
   12     5.348e-06  
   13     1.763e-06  
   14     5.175e-07  Converged.
   ... Converged in 14 steps (norm: 5.17539e-07)
------------------------------------
  Starting TPA DIIS iterations ... 
------------------------------------ 
   It     Res. Norm  Remark
------------------------------------
                       Guess.
    1     7.048e-01  
    2     5.083e-01  
    3     1.849e-01  
    4     7.183e-02  
    5     2.023e-02  
    6     7.488e-03  
    7     1.228e-03  
    8     5.560e-04  
    9     1.639e-04  
   10     2.944e-05  
   11     9.550e-06  
   12     3.006e-06  
   13     2.272e-06  
   14     9.816e-07  Converged.
   ... Converged in 14 steps (norm: 9.8159e-07)
------------------------------------
  Starting TPA DIIS iterations ... 
------------------------------------ 
   It     Res. Norm  Remark
------------------------------------
                       Guess.
    1     5.575e+00  
    2     7.992e+00  
    3     1.400e+00  
    4     3.754e-01  
    5     1.012e-01  
    6     4.186e-02  
    7     1.289e-02  
    8     2.186e-03  
    9     8.311e-04  
   10     1.441e-04  
   11     4.615e-05  
   12     7.415e-06  
   13     2.451e-06  
   14     7.397e-07  Converged.
   ... Converged in 14 steps (norm: 7.39715e-07)
------------------------------------
  Starting TPA DIIS iterations ... 
------------------------------------ 
   It     Res. Norm  Remark
------------------------------------
                       Guess.
    1     5.285e+00  
    2     7.574e+00  
    3     1.341e+00  
    4     3.774e-01  
    5     1.012e-01  
    6     4.279e-02  
    7     1.279e-02  
    8     2.290e-03  
    9     8.659e-04  
   10     1.467e-04  
   11     4.816e-05  
   12     7.510e-06  
   13     2.529e-06  
   14     7.356e-07  Converged.
   ... Converged in 14 steps (norm: 7.35552e-07)
------------------------------------
  Starting TPA DIIS iterations ... 
------------------------------------ 
   It     Res. Norm  Remark
------------------------------------
                       Guess.
    1     7.321e-01  
    2     5.505e-01  
    3     2.098e-01  
    4     9.571e-02  
    5     2.383e-02  
    6     9.258e-03  
    7     1.635e-03  
    8     7.898e-04  
    9     2.392e-04  
   10     3.294e-05  
   11     1.333e-05  
   12     4.463e-06  
   13     3.728e-06  
   14     1.681e-06  
   15     6.394e-07  Converged.
   ... Converged in 15 steps (norm: 6.39375e-07)
------------------------------------
  Starting TPA DIIS iterations ... 
------------------------------------ 
   It     Res. Norm  Remark
------------------------------------
                       Guess.
    1     6.078e+00  
    2     8.964e+00  
    3     1.540e+00  
    4     4.332e-01  
    5     1.182e-01  
    6     4.938e-02  
    7     1.514e-02  
    8     2.558e-03  
    9     9.831e-04  
   10     1.713e-04  
   11     5.569e-05  
   12     9.003e-06  
   13     3.021e-06  
   14     9.068e-07  Converged.
   ... Converged in 14 steps (norm: 9.06764e-07)
------------------------------------
  Starting TPA DIIS iterations ... 
------------------------------------ 
   It     Res. Norm  Remark
------------------------------------
                       Guess.
    1     5.760e+00  
    2     8.494e+00  
    3     1.474e+00  
    4     4.352e-01  
    5     1.182e-01  
    6     5.055e-02  
    7     1.502e-02  
    8     2.686e-03  
    9     1.025e-03  
   10     1.744e-04  
   11     5.804e-05  
   12     9.106e-06  
   13     3.109e-06  
   14     9.011e-07  Converged.
   ... Converged in 14 steps (norm: 9.0112e-07)
------------------------------------
  Starting TPA DIIS iterations ... 
------------------------------------ 
   It     Res. Norm  Remark
------------------------------------
                       Guess.
    1     7.481e-01  
    2     5.767e-01  
    3     2.259e-01  
    4     1.134e-01  
    5     2.626e-02  
    6     1.054e-02  
    7     1.942e-03  
    8     9.510e-04  
    9     2.908e-04  
   10     3.431e-05  
   11     1.626e-05  
   12     5.651e-06  
   13     4.942e-06  
   14     2.284e-06  
   15     8.392e-07  Converged.
   ... Converged in 15 steps (norm: 8.39231e-07)
------------------------------------
  Starting TPA DIIS iterations ... 
------------------------------------ 
   It     Res. Norm  Remark
------------------------------------
                       Guess.
    1     6.576e+00  
    2     9.951e+00  
    3     1.677e+00  
    4     4.934e-01  
    5     1.358e-01  
    6     5.727e-02  
    7     1.748e-02  
    8     2.945e-03  
    9     1.142e-03  
   10     1.999e-04  
   11     6.581e-05  
   12     1.068e-05  
   13     3.637e-06  
   14     1.089e-06  
   15     4.089e-07  Converged.
   ... Converged in 15 steps (norm: 4.08944e-07)
------------------------------------
  Starting TPA DIIS iterations ... 
------------------------------------ 
   It     Res. Norm  Remark
------------------------------------
                       Guess.
    1     6.232e+00  
    2     9.429e+00  
    3     1.605e+00  
    4     4.953e-01  
    5     1.360e-01  
    6     5.870e-02  
    7     1.735e-02  
    8     3.096e-03  
    9     1.191e-03  
   10     2.035e-04  
   11     6.847e-05  
   12     1.080e-05  
   13     3.732e-06  
   14     1.082e-06  
   15     3.537e-07  Converged.
   ... Converged in 15 steps (norm: 3.53678e-07)
------------------------------------
  Starting TPA DIIS iterations ... 
------------------------------------ 
   It     Res. Norm  Remark
------------------------------------
                       Guess.
    1     7.626e-01  
    2     6.015e-01  
    3     2.414e-01  
    4     1.322e-01  
    5     2.874e-02  
    6     1.187e-02  
    7     2.274e-03  
    8     1.105e-03  
    9     3.413e-04  
   10     3.639e-05  
   11     1.950e-05  
   12     7.018e-06  
   13     6.342e-06  
   14     2.987e-06  
   15     1.086e-06  
   16     4.704e-07  Converged.
   ... Converged in 16 steps (norm: 4.70351e-07)
------------------------------------
  Starting TPA DIIS iterations ... 
------------------------------------ 
   It     Res. Norm  Remark
------------------------------------
                       Guess.
    1     8.735e+00  
    2     1.447e+01  
    3     2.262e+00  
    4     7.819e-01  
    5     2.207e-01  
    6     9.592e-02  
    7     2.870e-02  
    8     4.785e-03  
    9     1.920e-03  
   10     3.387e-04  
   11     1.152e-04  
   12     1.894e-05  
   13     6.765e-06  
   14     2.085e-06  
   15     8.729e-07  Converged.
   ... Converged in 15 steps (norm: 8.72928e-07)
------------------------------------
  Starting TPA DIIS iterations ... 
------------------------------------ 
   It     Res. Norm  Remark
------------------------------------
                       Guess.
    1     8.274e+00  
    2     1.371e+01  
    3     2.163e+00  
    4     7.824e-01  
    5     2.211e-01  
    6     9.870e-02  
    7     2.853e-02  
    8     5.057e-03  
    9     2.004e-03  
   10     3.448e-04  
   11     1.190e-04  
   12     1.910e-05  
   13     6.806e-06  
   14     2.087e-06  
   15     6.748e-07  Converged.
   ... Converged in 15 steps (norm: 6.74765e-07)
------------------------------------
  Starting TPA DIIS iterations ... 
------------------------------------ 
   It     Res. Norm  Remark
------------------------------------
                       Guess.
    1     8.136e-01  
    2     6.975e-01  
    3     3.046e-01  
    4     2.237e-01  
    5     4.034e-02  
    6     1.821e-02  
    7     3.976e-03  
    8     1.597e-03  
    9     5.443e-04  
   10     6.118e-05  
   11     3.740e-05  
   12     1.536e-05  
   13     1.462e-05  
   14     7.186e-06  
   15     2.882e-06  
   16     1.248e-06  
   17     2.741e-07  Converged.
   ... Converged in 17 steps (norm: 2.74108e-07)
------------------------------------
  Starting TPA DIIS iterations ... 
------------------------------------ 
   It     Res. Norm  Remark
------------------------------------
                       Guess.
    1     1.055e+01  
    2     1.856e+01  
    3     2.741e+00  
    4     1.052e+00  
    5     3.008e-01  
    6     1.332e-01  
    7     3.928e-02  
    8     6.507e-03  
    9     2.667e-03  
   10     4.710e-04  
   11     1.609e-04  
   12     2.685e-05  
   13     9.816e-06  
   14     3.213e-06  
   15     1.454e-06  
   16     4.642e-07  Converged.
   ... Converged in 16 steps (norm: 4.64167e-07)
------------------------------------
  Starting TPA DIIS iterations ... 
------------------------------------ 
   It     Res. Norm  Remark
------------------------------------
                       Guess.
    1     9.991e+00  
    2     1.758e+01  
    3     2.619e+00  
    4     1.050e+00  
    5     3.015e-01  
    6     1.374e-01  
    7     3.908e-02  
    8     6.897e-03  
    9     2.784e-03  
   10     4.793e-04  
   11     1.653e-04  
   12     2.717e-05  
   13     9.704e-06  
   14     3.219e-06  
   15     1.043e-06  
   16     3.143e-07  Converged.
   ... Converged in 16 steps (norm: 3.1427e-07)
------------------------------------
  Starting TPA DIIS iterations ... 
------------------------------------ 
   It     Res. Norm  Remark
------------------------------------
                       Guess.
    1     8.467e-01  
    2     7.681e-01  
    3     3.537e-01  
    4     3.053e-01  
    5     5.098e-02  
    6     2.383e-02  
    7     5.637e-03  
    8     1.791e-03  
    9     6.993e-04  
   10     9.280e-05  
   11     5.700e-05  
   12     2.572e-05  
   13     2.416e-05  
   14     1.202e-05  
   15     5.279e-06  
   16     2.210e-06  
   17     5.220e-07  Converged.
   ... Converged in 17 steps (norm: 5.22044e-07)
------------------------------------
  Starting TPA DIIS iterations ... 
------------------------------------ 
   It     Res. Norm  Remark
------------------------------------
                       Guess.
    1     1.149e+01  
    2     2.077e+01  
    3     2.986e+00  
    4     1.199e+00  
    5     3.450e-01  
    6     1.541e-01  
    7     4.512e-02  
    8     7.453e-03  
    9     3.084e-03  
   10     5.442e-04  
   11     1.854e-04  
   12     3.128e-05  
   13     1.156e-05  
   14     3.907e-06  
   15     1.854e-06  
   16     6.325e-07  Converged.
   ... Converged in 16 steps (norm: 6.32464e-07)
------------------------------------
  Starting TPA DIIS iterations ... 
------------------------------------ 
   It     Res. Norm  Remark
------------------------------------
                       Guess.
    1     1.088e+01  
    2     1.968e+01  
    3     2.852e+00  
    4     1.196e+00  
    5     3.459e-01  
    6     1.591e-01  
    7     4.490e-02  
    8     7.910e-03  
    9     3.218e-03  
   10     5.535e-04  
   11     1.902e-04  
   12     3.178e-05  
   13     1.135e-05  
   14     3.902e-06  
   15     1.305e-06  
   16     4.029e-07  Converged.
   ... Converged in 16 steps (norm: 4.02851e-07)
------------------------------------
  Starting TPA DIIS iterations ... 
------------------------------------ 
   It     Res. Norm  Remark
------------------------------------
                       Guess.
    1     8.616e-01  
    2     8.022e-01  
    3     3.780e-01  
    4     3.465e-01  
    5     5.672e-02  
    6     2.668e-02  
    7     6.548e-03  
    8     1.848e-03  
    9     7.765e-04  
   10     1.104e-04  
   11     6.865e-05  
   12     3.236e-05  
   13     3.012e-05  
   14     1.495e-05  
   15     6.812e-06  
   16     2.805e-06  
   17     6.923e-07  Converged.
   ... Converged in 17 steps (norm: 6.92299e-07)
------------------------------------
  Starting TPA DIIS iterations ... 
------------------------------------ 
   It     Res. Norm  Remark
------------------------------------
                       Guess.
    1     1.255e+01  
    2     2.332e+01  
    3     3.257e+00  
    4     1.369e+00  
    5     3.967e-01  
    6     1.787e-01  
    7     5.194e-02  
    8     8.555e-03  
    9     3.574e-03  
   10     6.297e-04  
   11     2.136e-04  
   12     3.654e-05  
   13     1.370e-05  
   14     4.777e-06  
   15     2.407e-06  
   16     8.808e-07  Converged.
   ... Converged in 16 steps (norm: 8.8077e-07)
------------------------------------
  Starting TPA DIIS iterations ... 
------------------------------------ 
   It     Res. Norm  Remark
------------------------------------
                       Guess.
    1     1.188e+01  
    2     2.210e+01  
    3     3.110e+00  
    4     1.364e+00  
    5     3.977e-01  
    6     1.846e-01  
    7     5.170e-02  
    8     9.090e-03  
    9     3.729e-03  
   10     6.403e-04  
   11     2.188e-04  
   12     3.733e-05  
   13     1.335e-05  
   14     4.746e-06  
   15     1.679e-06  
   16     5.221e-07  Converged.
   ... Converged in 16 steps (norm: 5.22084e-07)
------------------------------------
  Starting TPA DIIS iterations ... 
------------------------------------ 
   It     Res. Norm  Remark
------------------------------------
                       Guess.
    1     8.768e-01  
    2     8.388e-01  
    3     4.044e-01  
    4     3.905e-01  
    5     6.330e-02  
    6     2.977e-02  
    7     7.594e-03  
    8     1.899e-03  
    9     8.615e-04  
   10     1.306e-04  
   11     8.290e-05  
   12     4.085e-05  
   13     3.793e-05  
   14     1.858e-05  
   15     8.763e-06  
   16     3.540e-06  
   17     9.106e-07  Converged.
   ... Converged in 17 steps (norm: 9.10612e-07)
------------------------------------
  Two-photon absorbption ...  CPU 73.03 s  wall 18.29 s
  Transition density matrix of state singlet_A_1 printed to ASCII file 'State_singlet_A_1_Transition.txt'
  Transition density matrix of state singlet_A_2 printed to ASCII file 'State_singlet_A_2_Transition.txt'
  Transition density matrix of state singlet_A_3 printed to ASCII file 'State_singlet_A_3_Transition.txt'
  Transition density matrix of state singlet_A_4 printed to ASCII file 'State_singlet_A_4_Transition.txt'
  Transition density matrix of state singlet_A_5 printed to ASCII file 'State_singlet_A_5_Transition.txt'
  Transition density matrix of state singlet_A_6 printed to ASCII file 'State_singlet_A_6_Transition.txt'
  Transition density matrix of state singlet_A_7 printed to ASCII file 'State_singlet_A_7_Transition.txt'
  Transition density matrix of state singlet_A_8 printed to ASCII file 'State_singlet_A_8_Transition.txt'
  Transition density matrix of state singlet_A_9 printed to ASCII file 'State_singlet_A_9_Transition.txt'
  Transition density matrix of state singlet_A_10 printed to ASCII file 'State_singlet_A_10_Transition.txt'
  Transition properties ...  CPU 0.16 s  wall 0.36 s
  Difference density matrix of state singlet_A_1 printed to ASCII file 'State_singlet_A_1_Difference.txt'
  Total density matrix of state singlet_A_1 printed to ASCII file 'State_singlet_A_1_Total.txt'
  Difference density matrix of state singlet_A_2 printed to ASCII file 'State_singlet_A_2_Difference.txt'
  Total density matrix of state singlet_A_2 printed to ASCII file 'State_singlet_A_2_Total.txt'
  Difference density matrix of state singlet_A_3 printed to ASCII file 'State_singlet_A_3_Difference.txt'
  Total density matrix of state singlet_A_3 printed to ASCII file 'State_singlet_A_3_Total.txt'
  Difference density matrix of state singlet_A_4 printed to ASCII file 'State_singlet_A_4_Difference.txt'
  Total density matrix of state singlet_A_4 printed to ASCII file 'State_singlet_A_4_Total.txt'
  Difference density matrix of state singlet_A_5 printed to ASCII file 'State_singlet_A_5_Difference.txt'
  Total density matrix of state singlet_A_5 printed to ASCII file 'State_singlet_A_5_Total.txt'
  Difference density matrix of state singlet_A_6 printed to ASCII file 'State_singlet_A_6_Difference.txt'
  Total density matrix of state singlet_A_6 printed to ASCII file 'State_singlet_A_6_Total.txt'
  Difference density matrix of state singlet_A_7 printed to ASCII file 'State_singlet_A_7_Difference.txt'
  Total density matrix of state singlet_A_7 printed to ASCII file 'State_singlet_A_7_Total.txt'
  Difference density matrix of state singlet_A_8 printed to ASCII file 'State_singlet_A_8_Difference.txt'
  Total density matrix of state singlet_A_8 printed to ASCII file 'State_singlet_A_8_Total.txt'
  Difference density matrix of state singlet_A_9 printed to ASCII file 'State_singlet_A_9_Difference.txt'
  Total density matrix of state singlet_A_9 printed to ASCII file 'State_singlet_A_9_Total.txt'
  Difference density matrix of state singlet_A_10 printed to ASCII file 'State_singlet_A_10_Difference.txt'
  Total density matrix of state singlet_A_10 printed to ASCII file 'State_singlet_A_10_Total.txt'
  Properties ...  CPU 0.31 s  wall 0.57 s
  ISR TDMS ...  CPU 9.04 s  wall 3.19 s
  ISR transition properties ...  CPU 0.17 s  wall 0.08 s
  Sum-over-states TPA ...  CPU 0.00 s  wall 0.00 s

--------------------------------------------------------------------------------
                   State-averaged natural transition orbitals
--------------------------------------------------------------------------------
--------------------------------------------------------------------------------
  SA-NTO decomposition ...  CPU 0.01 s  wall 0.03 s

--------------------------------------------------------------------------------
                             Excited State Summary
--------------------------------------------------------------------------------
--------------------------------------------------------------------------------

  Excited state 1 (singlet, A)                                     [converged]
  ----------------------------------------------------------------------------
  Term symbol:  2 (1) A                                     R^2 =  1.81340e-13

  Total energy:                                            -77.9983206774 a.u.
  Excitation energy:                                               8.736697 eV

  Osc. strength:                                                      0.445447
  Trans. dip. moment [a.u.]:           [  -1.044440,    0.995062,    0.009407]
  <i|r^2|0> [a.u.]:                    [  -6.167805,    0.250136,   -0.000316]
  Two-photon absorption cross-section (SoS) [a.u.]:                   0.002353
  Two-photon absorption matrix (SoS) [a.u.]:
                                       |   -0.014737   -0.010879   -0.001300 |
                                       |   -0.010879   -0.003688   -0.001439 |
                                       |   -0.001300   -0.001439    0.006187 |
  Two-photon absorption cross-section [a.u.]:                         0.001269
  Two-photon absorption matrix [a.u.]:
                                       |   -0.002532   -0.004504   -0.000468 |
                                       |   -0.004504    0.008957   -0.001729 |
                                       |   -0.000468   -0.001729    0.008503 |

  Dip. moment [a.u.]:                  [   0.000735,    0.000512,    0.000781]
  Total dipole [Debye]:                                               0.003021
  <r^2> [a.u.]:                        [ 176.134986,   35.645456,   11.859070]
  Total <r^2> [a.u.]:                                               223.639512

  V1^2 = 0.9715, V2^2 = 0.0285

  Important amplitudes:
      occ i     occ j     vir a      vir b          v   
    -----------------------------------------------------
     8 (A) A              9 (A) A                -0.6811
     6 (A) A             14 (A) A                 0.0624
     4 (A) A             10 (A) A                -0.0604
     7 (A) A             16 (A) A                -0.0569
     5 (A) A             13 (A) A                 0.0511
     6 (A) A             23 (A) A                 0.0485
     8 (A) A             20 (A) A                -0.0350
     6 (A) A             19 (A) A                -0.0310
     3 (A) A             12 (A) A                 0.0281
     5 (A) A             22 (A) A                -0.0214
     7 (A) A             11 (A) A                -0.0212
     4 (A) A             24 (A) A                -0.0187
     3 (A) A             26 (A) A                 0.0185
     8 (A) A   8 (A) B   17 (A) A   20 (A) B      0.0184
     8 (A) A   8 (A) B    9 (A) A   28 (A) B      0.0168
     6 (A) A             26 (A) A                 0.0163
     7 (A) A             21 (A) A                -0.0147
     3 (A) A             14 (A) A                 0.0139
     6 (A) A             12 (A) A                -0.0131
     3 (A) A   4 (A) B    9 (A) A    9 (A) B      0.0129
     3 (A) A             19 (A) A                -0.0119
     8 (A) A   8 (A) B   18 (A) A   19 (A) B      0.0113
     7 (A) A             32 (A) A                -0.0096
     7 (A) A             36 (A) A                -0.0086
     3 (A) A             23 (A) A                 0.0080
     8 (A) A   8 (A) B   25 (A) A   29 (A) B     -0.0076
     6 (A) A             35 (A) A                -0.0072
     6 (A) A             40 (A) A                 0.0068
     3 (A) A   6 (A) B    9 (A) A   28 (A) B      0.0065
     6 (A) A   8 (A) A   19 (A) A   28 (A) A     -0.0061
     5 (A) A   7 (A) B    9 (A) A    9 (A) B      0.0060
     5 (A) A   8 (A) B   11 (A) A   20 (A) B      0.0059
     7 (A) A   8 (A) B   13 (A) A   20 (A) B     -0.0059
     5 (A) A   8 (A) B   16 (A) A    9 (A) B      0.0059
     5 (A) A   8 (A) B   11 (A) A    9 (A) B     -0.0058
     3 (A) A   5 (A) B    9 (A) A   25 (A) B      0.0058
     3 (A) A             40 (A) A                 0.0057
     7 (A) A   8 (A) B   22 (A) A   20 (A) B      0.0057
     6 (A) A   8 (A) A    9 (A) A   18 (A) A      0.0057
     8 (A) A   8 (A) B   19 (A) A   30 (A) B      0.0056
    -----------------------------------------------------

  Density matrix analysis:
  ------------------------
  NOs
    Occupation of frontier NOs:
       0.9496   1.0216
    Number of electrons: 16.000000
    Number of unpaired electrons: n_u =  2.31281, n_u,nl =  2.03253
    NO participation ratio (PR_NO):  2.862126
  
  
  Mulliken Population Analysis
  Atom      Charge (e)              h+              e-           Del q
  --------------------------------------------------------------------
   1 H        0.055865        0.020184       -0.012588        0.007596
   2 C       -0.110938        0.490893       -0.505905       -0.015012
   3 H        0.057895        0.020219       -0.012603        0.007616
   4 C       -0.118575        0.490752       -0.506355       -0.015603
   5 H        0.057622        0.020206       -0.012568        0.007638
   6 H        0.058133        0.020271       -0.012506        0.007765
  --------------------------------------------------------------------
  Sum:        0.000000        1.062523       -1.062523       -0.000000
  
  Multipole moment analysis of the density matrix
    Molecular charge:                      0.000000
    Number of electrons:                   16.000000
      Center of electronic charge [Ang]: [ -1.561226,  -0.065619,   0.001952]
    Total nuclear charge:                  16.000000
      Center of nuclear charge [Ang]:    [ -1.561201,  -0.065602,   0.001978]
    Dipole moment [D]:                     0.003021
      Cartesian components [D]:          [  0.001868,   0.001302,   0.001986]
    RMS size of the density [Ang]:         1.213406
      Cartesian components [Ang]:        [  0.803275,   0.787117,   0.455578]
  
  Exciton analysis of the difference density matrix
    <r_h> [Ang]:                  [ -1.560461,  -0.065765,   0.001690]
    <r_e> [Ang]:                  [ -1.560453,  -0.065637,   0.001630]
    |<r_e - r_h>| [Ang]:            0.000142
    Hole size [Ang]:                1.285156
      Cartesian components [Ang]: [  0.727858,   0.712681,   0.783540]
    Electron size [Ang]:            1.463052
      Cartesian components [Ang]: [  0.853734,   0.830524,   0.849641]

  Transition density matrix analysis:
  -----------------------------------
  
  CT numbers (Mulliken)
    omega =     0.9536
    <Phe> =    -0.1608
  
  Exciton analysis of the transition density matrix
    Trans. dipole moment [D]:             1.833360
      Cartesian components [D]:         [ -1.327350,   1.264597,   0.011955]
    <r_h> [Ang]:                        [ -1.560032,  -0.065961,   0.001753]
    <r_e> [Ang]:                        [ -1.560529,  -0.065625,   0.001581]
    |<r_e - r_h>| [Ang]:                  0.000624
    Hole size [Ang]:                      1.214140
      Cartesian components [Ang]:       [  0.649458,   0.636476,   0.804511]
    Electron size [Ang]:                  1.485889
      Cartesian components [Ang]:       [  0.864184,   0.839409,   0.869738]
    RMS electron-hole separation [Ang]:   1.936708
      Cartesian components [Ang]:       [  1.106705,   1.075152,   1.170508]
    Covariance(r_h, r_e) [Ang^2]:        -0.034418
    Correlation coefficient:             -0.019078
    Center-of-mass size [Ang]:            0.950416
      Cartesian components [Ang]:       [  0.527358,   0.515622,   0.599432]

  Decomposition into state-averaged NTOs
    H- 0 -> L+ 0:  0.6699 ( 89.8%)
    H- 2 -> L+ 5: -0.0837 (  1.4%)
                   omega =  95.4%
  ----------------------------------------------------------------------------


  Excited state 2 (singlet, A)                                     [converged]
  ----------------------------------------------------------------------------
  Term symbol:  3 (1) A                                     R^2 =  2.59525e-13

  Total energy:                                            -77.9861198862 a.u.
  Excitation energy:                                               9.068698 eV

  Osc. strength:                                                      0.000054
  Trans. dip. moment [a.u.]:           [  -0.000310,    0.002466,   -0.015373]
  <i|r^2|0> [a.u.]:                    [   0.061502,    0.087906,   -0.150533]
  Two-photon absorption cross-section (SoS) [a.u.]:                   4.947986
  Two-photon absorption matrix (SoS) [a.u.]:
                                       |    0.050477    0.058700   -0.520227 |
                                       |    0.058700    0.068231   -0.577730 |
                                       |   -0.520227   -0.577730   -0.118687 |
  Two-photon absorption cross-section [a.u.]:                         0.071452
  Two-photon absorption matrix [a.u.]:
                                       |   -0.001707   -0.006363    0.039102 |
                                       |   -0.006363   -0.011994    0.084798 |
                                       |    0.039102    0.084798    0.013993 |

  Dip. moment [a.u.]:                  [  -0.000671,    0.033827,    0.003305]
  Total dipole [Debye]:                                               0.086405
  <r^2> [a.u.]:                        [ 174.579647,   33.967026,   13.162122]
  Total <r^2> [a.u.]:                                               221.708795

  V1^2 = 0.9542, V2^2 = 0.0458

  Important amplitudes:
      occ i     occ j     vir a      vir b          v   
    -----------------------------------------------------
     7 (A) A              9 (A) A                -0.6688
     8 (A) A             11 (A) A                -0.1474
     7 (A) A             20 (A) A                -0.0759
     5 (A) A   8 (A) B    9 (A) A    9 (A) B      0.0316
     8 (A) A             10 (A) A                 0.0288
     8 (A) A             16 (A) A                 0.0272
     8 (A) A             21 (A) A                -0.0175
     5 (A) A             28 (A) A                 0.0151
     4 (A) A   7 (A) B    9 (A) A   19 (A) B      0.0135
     5 (A) A   7 (A) B    9 (A) A   16 (A) B     -0.0134
     7 (A) A   8 (A) B   20 (A) A   17 (A) B      0.0105
     7 (A) A   8 (A) A    9 (A) A   28 (A) A     -0.0098
     5 (A) A   8 (A) B    9 (A) A   20 (A) B      0.0096
     4 (A) A   6 (A) B    9 (A) A   16 (A) B      0.0091
     5 (A) A   6 (A) A    9 (A) A   23 (A) A      0.0091
     5 (A) A   6 (A) A    9 (A) A   14 (A) A      0.0089
     5 (A) A   6 (A) B    9 (A) A   19 (A) B     -0.0087
     8 (A) A   7 (A) B    9 (A) A   28 (A) B      0.0085
     4 (A) A   5 (A) A    9 (A) A   10 (A) A      0.0084
     6 (A) A   7 (A) B    9 (A) A   18 (A) B      0.0083
     5 (A) A   6 (A) B    9 (A) A   23 (A) B      0.0080
     3 (A) A   7 (A) B    9 (A) A   18 (A) B     -0.0080
     5 (A) A   7 (A) A    9 (A) A   16 (A) A     -0.0079
     4 (A) A   8 (A) B    9 (A) A   25 (A) B      0.0077
     7 (A) A   8 (A) B   17 (A) A   20 (A) B      0.0074
     4 (A) A   7 (A) B   19 (A) A    9 (A) B      0.0074
     5 (A) A   5 (A) B    9 (A) A   13 (A) B      0.0072
     7 (A) A   8 (A) B   19 (A) A   18 (A) B      0.0072
     5 (A) A   8 (A) A    9 (A) A   20 (A) A      0.0069
     4 (A) A   5 (A) B    9 (A) A   18 (A) B     -0.0067
     7 (A) A   7 (A) B   20 (A) A   22 (A) B      0.0065
     7 (A) A   8 (A) B   17 (A) A    9 (A) B      0.0065
     5 (A) A   6 (A) B    9 (A) A   14 (A) B      0.0063
     4 (A) A   7 (A) A    9 (A) A   19 (A) A      0.0061
     4 (A) A   5 (A) B   10 (A) A    9 (A) B     -0.0061
     5 (A) A   7 (A) B   11 (A) A   20 (A) B      0.0060
     4 (A) A   7 (A) B    9 (A) A   14 (A) B      0.0060
     6 (A) A   7 (A) A   19 (A) A   28 (A) A     -0.0057
     4 (A) A   8 (A) A    9 (A) A   25 (A) A      0.0057
     5 (A) A   7 (A) A   11 (A) A   20 (A) A      0.0052
    -----------------------------------------------------

  Density matrix analysis:
  ------------------------
  NOs
    Occupation of frontier NOs:
       0.9569   1.0548
    Number of electrons: 16.000000
    Number of unpaired electrons: n_u =  2.35478, n_u,nl =  2.06338
    NO participation ratio (PR_NO):  3.032430
  
  
  Mulliken Population Analysis
  Atom      Charge (e)              h+              e-           Del q
  --------------------------------------------------------------------
   1 H        0.146468        0.117570       -0.019370        0.098199
   2 C       -0.296757        0.268755       -0.469585       -0.200831
   3 H        0.148106        0.128152       -0.030325        0.097827
   4 C       -0.302817        0.275082       -0.474927       -0.199845
   5 H        0.158905        0.129027       -0.020106        0.108922
   6 H        0.146095        0.124673       -0.028945        0.095728
  --------------------------------------------------------------------
  Sum:        0.000000        1.043259       -1.043259       -0.000000
  
  Multipole moment analysis of the density matrix
    Molecular charge:                      0.000000
    Number of electrons:                   16.000000
      Center of electronic charge [Ang]: [ -1.561179,  -0.066721,   0.001869]
    Total nuclear charge:                  16.000000
      Center of nuclear charge [Ang]:    [ -1.561201,  -0.065602,   0.001978]
    Dipole moment [D]:                     0.086405
      Cartesian components [D]:          [ -0.001705,   0.085979,   0.008400]
    RMS size of the density [Ang]:         1.199401
      Cartesian components [Ang]:        [  0.786241,   0.768135,   0.479955]
  
  Exciton analysis of the difference density matrix
    <r_h> [Ang]:                  [ -1.576119,  -0.060896,   0.001621]
    <r_e> [Ang]:                  [ -1.575398,  -0.077664,   0.000279]
    |<r_e - r_h>| [Ang]:            0.016837
    Hole size [Ang]:                1.484775
      Cartesian components [Ang]: [  0.993469,   1.005238,   0.455052]
    Electron size [Ang]:            1.477888
      Cartesian components [Ang]: [  0.880062,   0.861892,   0.816569]

  Transition density matrix analysis:
  -----------------------------------
  
  CT numbers (Mulliken)
    omega =     0.9218
    <Phe> =    -0.0122
  
  Exciton analysis of the transition density matrix
    Trans. dipole moment [D]:             0.019791
      Cartesian components [D]:         [ -0.000394,   0.003134,  -0.019537]
    <r_h> [Ang]:                        [ -1.577681,  -0.059320,   0.001722]
    <r_e> [Ang]:                        [ -1.574744,  -0.079777,   0.000097]
    |<r_e - r_h>| [Ang]:                  0.020731
    Hole size [Ang]:                      1.512637
      Cartesian components [Ang]:       [  1.015229,   1.029556,   0.444293]
    Electron size [Ang]:                  1.475302
      Cartesian components [Ang]:       [  0.871133,   0.851509,   0.832210]
    RMS electron-hole separation [Ang]:   2.093340
      Cartesian components [Ang]:       [  1.322116,   1.321178,   0.942640]
    Covariance(r_h, r_e) [Ang^2]:         0.041473
    Correlation coefficient:              0.018584
    Center-of-mass size [Ang]:            1.066247
      Cartesian components [Ang]:       [  0.676599,   0.675466,   0.472063]

  Decomposition into state-averaged NTOs
    H- 1 -> L+ 0:  0.6612 ( 87.4%)
    H- 0 -> L+ 2: -0.1479 (  4.4%)
                   omega =  92.2%
  ----------------------------------------------------------------------------


  Excited state 3 (singlet, A)                                     [converged]
  ----------------------------------------------------------------------------
  Term symbol:  4 (1) A                                     R^2 =  1.64050e-13

  Total energy:                                            -77.9821103252 a.u.
  Excitation energy:                                               9.177803 eV

  Osc. strength:                                                      0.025469
  Trans. dip. moment [a.u.]:           [  -0.015682,   -0.020193,    0.335583]
  <i|r^2|0> [a.u.]:                    [  -0.090605,   -0.000176,   -0.008604]
  Two-photon absorption cross-section (SoS) [a.u.]:                   0.003473
  Two-photon absorption matrix (SoS) [a.u.]:
                                       |   -0.006902   -0.001458    0.019582 |
                                       |   -0.001458    0.003788    0.000581 |
                                       |    0.019582    0.000581   -0.003527 |
  Two-photon absorption cross-section [a.u.]:                         0.007989
  Two-photon absorption matrix [a.u.]:
                                       |   -0.008332   -0.001722    0.027506 |
                                       |   -0.001722   -0.000842    0.013655 |
                                       |    0.027506    0.013655    0.000873 |

  Dip. moment [a.u.]:                  [   0.051564,    0.010455,    0.002285]
  Total dipole [Debye]:                                               0.133856
  <r^2> [a.u.]:                        [ 181.142579,   40.608545,   11.028712]
  Total <r^2> [a.u.]:                                               232.779836

  V1^2 = 0.9588, V2^2 = 0.0412

  Important amplitudes:
      occ i     occ j     vir a      vir b          v   
    -----------------------------------------------------
     8 (A) A             10 (A) A                -0.6885
     8 (A) A             24 (A) A                -0.0506
     8 (A) A             18 (A) A                 0.0309
     7 (A) A              9 (A) A                -0.0295
     4 (A) A              9 (A) A                -0.0236
     8 (A) A   8 (A) B    9 (A) A   12 (A) B      0.0218
     8 (A) A   8 (A) B   10 (A) A   17 (A) B     -0.0173
     8 (A) A             15 (A) A                -0.0170
     5 (A) A   8 (A) B   11 (A) A   10 (A) B     -0.0165
     7 (A) A   8 (A) B   13 (A) A   10 (A) B      0.0141
     4 (A) A   8 (A) B   12 (A) A   10 (A) B      0.0111
     6 (A) A   8 (A) A   10 (A) A   15 (A) A      0.0110
     7 (A) A   8 (A) B   22 (A) A   10 (A) B     -0.0108
     6 (A) A   8 (A) B   15 (A) A   10 (A) B     -0.0107
     4 (A) A   8 (A) A   10 (A) A   12 (A) A     -0.0106
     7 (A) A   8 (A) A   10 (A) A   22 (A) A      0.0099
     7 (A) A   8 (A) A   10 (A) A   13 (A) A     -0.0097
     5 (A) A   8 (A) B   21 (A) A   10 (A) B     -0.0094
     5 (A) A   8 (A) A   10 (A) A   11 (A) A      0.0094
     6 (A) A   8 (A) A   10 (A) A   18 (A) A      0.0088
     6 (A) A   8 (A) B   10 (A) A   10 (A) B      0.0086
     7 (A) A   8 (A) A   12 (A) A   16 (A) A      0.0081
     5 (A) A   8 (A) A   10 (A) A   21 (A) A      0.0080
     3 (A) A   4 (A) B   10 (A) A    9 (A) B      0.0079
     4 (A) A   8 (A) B   19 (A) A   10 (A) B     -0.0075
     8 (A) A   8 (A) B    9 (A) A   23 (A) B     -0.0075
     8 (A) A   8 (A) B   10 (A) A   28 (A) B      0.0073
     3 (A) A   8 (A) B   10 (A) A   10 (A) B     -0.0072
     5 (A) A   8 (A) B   10 (A) A   11 (A) B     -0.0071
     3 (A) A   8 (A) A   10 (A) A   24 (A) A      0.0071
     7 (A) A   8 (A) B   16 (A) A   12 (A) B     -0.0070
     3 (A) A   8 (A) B   10 (A) A   18 (A) B      0.0069
     8 (A) A   8 (A) B    9 (A) A   19 (A) B     -0.0067
     6 (A) A   8 (A) B   18 (A) A   10 (A) B     -0.0067
     3 (A) A   6 (A) B   10 (A) A   28 (A) B      0.0062
     7 (A) A   8 (A) B   12 (A) A   11 (A) B      0.0057
     6 (A) A             28 (A) A                -0.0057
     3 (A) A   5 (A) B   10 (A) A   25 (A) B      0.0056
     3 (A) A   8 (A) A   10 (A) A   18 (A) A      0.0056
     5 (A) A   8 (A) A   10 (A) A   16 (A) A     -0.0055
    -----------------------------------------------------

  Density matrix analysis:
  ------------------------
  NOs
    Occupation of frontier NOs:
       0.9832   0.9833
    Number of electrons: 16.000000
    Number of unpaired electrons: n_u =  2.28831, n_u,nl =  2.02510
    NO participation ratio (PR_NO):  2.698653
  
  
  Mulliken Population Analysis
  Atom      Charge (e)              h+              e-           Del q
  --------------------------------------------------------------------
   1 H       -0.158480        0.054123       -0.260871       -0.206749
   2 C        0.331494        0.534868       -0.107448        0.427420
   3 H       -0.166251        0.053655       -0.270186       -0.216530
   4 C        0.327637        0.537981       -0.107372        0.430609
   5 H       -0.163317        0.054465       -0.267766       -0.213301
   6 H       -0.171081        0.053458       -0.274907       -0.221449
  --------------------------------------------------------------------
  Sum:        0.000000        1.288550       -1.288550       -0.000000
  
  Multipole moment analysis of the density matrix
    Molecular charge:                      0.000000
    Number of electrons:                   16.000000
      Center of electronic charge [Ang]: [ -1.562907,  -0.065948,   0.001903]
    Total nuclear charge:                  16.000000
      Center of nuclear charge [Ang]:    [ -1.561201,  -0.065602,   0.001978]
    Dipole moment [D]:                     0.133856
      Cartesian components [D]:          [  0.131063,   0.026573,   0.005809]
    RMS size of the density [Ang]:         1.275552
      Cartesian components [Ang]:        [  0.853019,   0.840460,   0.439339]
  
  Exciton analysis of the difference density matrix
    <r_h> [Ang]:                  [ -1.562138,  -0.064206,   0.001837]
    <r_e> [Ang]:                  [ -1.583005,  -0.068183,   0.001170]
    |<r_e - r_h>| [Ang]:            0.021254
    Hole size [Ang]:                1.410336
      Cartesian components [Ang]: [  0.833393,   0.820625,   0.788086]
    Electron size [Ang]:            2.076626
      Cartesian components [Ang]: [  1.371608,   1.378921,   0.727768]

  Transition density matrix analysis:
  -----------------------------------
  
  CT numbers (Mulliken)
    omega =     0.9261
    <Phe> =    -0.0109
  
  Exciton analysis of the transition density matrix
    Trans. dipole moment [D]:             0.427719
      Cartesian components [D]:         [ -0.019930,  -0.025663,   0.426483]
    <r_h> [Ang]:                        [ -1.558826,  -0.064210,   0.001836]
    <r_e> [Ang]:                        [ -1.589894,  -0.068972,   0.000942]
    |<r_e - r_h>| [Ang]:                  0.031444
    Hole size [Ang]:                      1.213645
      Cartesian components [Ang]:       [  0.637389,   0.624614,   0.822512]
    Electron size [Ang]:                  2.294902
      Cartesian components [Ang]:       [  1.514242,   1.525291,   0.804444]
    RMS electron-hole separation [Ang]:   2.586338
      Cartesian components [Ang]:       [  1.635716,   1.641254,   1.148852]
    Covariance(r_h, r_e) [Ang^2]:         0.025676
    Correlation coefficient:              0.009219
    Center-of-mass size [Ang]:            1.302964
      Cartesian components [Ang]:       [  0.825194,   0.827590,   0.576076]

  Decomposition into state-averaged NTOs
    H- 0 -> L+ 1: -0.6790 ( 92.2%)
                   omega =  92.6%
  ----------------------------------------------------------------------------


  Excited state 4 (singlet, A)                                     [converged]
  ----------------------------------------------------------------------------
  Term symbol:  5 (1) A                                     R^2 =  4.59247e-13

  Total energy:                                            -77.9574262068 a.u.
  Excitation energy:                                               9.849492 eV

  Osc. strength:                                                      0.000026
  Trans. dip. moment [a.u.]:           [   0.000019,    0.001141,   -0.010224]
  <i|r^2|0> [a.u.]:                    [  -0.016171,   -0.020944,    0.037569]
  Two-photon absorption cross-section (SoS) [a.u.]:                 152.173622
  Two-photon absorption matrix (SoS) [a.u.]:
                                       |   -0.283615   -0.326803    2.944834 |
                                       |   -0.326803   -0.374731    3.148913 |
                                       |    2.944834    3.148913    0.658439 |
  Two-photon absorption cross-section [a.u.]:                        93.980953
  Two-photon absorption matrix [a.u.]:
                                       |   -0.222216   -0.256559    2.294157 |
                                       |   -0.256559   -0.295353    2.493253 |
                                       |    2.294157    2.493253    0.517737 |

  Dip. moment [a.u.]:                  [  -0.046241,   -0.067286,   -0.007063]
  Total dipole [Debye]:                                               0.208292
  <r^2> [a.u.]:                        [ 180.633521,   40.946143,   10.760783]
  Total <r^2> [a.u.]:                                               232.340447

  V1^2 = 0.9636, V2^2 = 0.0364

  Important amplitudes:
      occ i     occ j     vir a      vir b          v   
    -----------------------------------------------------
     8 (A) A             11 (A) A                 0.6701
     7 (A) A              9 (A) A                -0.1492
     8 (A) A             21 (A) A                 0.0781
     8 (A) A             16 (A) A                -0.0641
     8 (A) A   8 (A) B    9 (A) A   13 (A) B     -0.0167
     5 (A) A   8 (A) B   11 (A) A   11 (A) B      0.0155
     8 (A) A   8 (A) B   11 (A) A   17 (A) B      0.0140
     7 (A) A             20 (A) A                -0.0136
     7 (A) A   8 (A) B   13 (A) A   11 (A) B     -0.0128
     5 (A) A   8 (A) A   11 (A) A   21 (A) A     -0.0110
     4 (A) A   8 (A) B   12 (A) A   11 (A) B     -0.0110
     8 (A) A   8 (A) B    9 (A) A   22 (A) B      0.0107
     7 (A) A   8 (A) A   11 (A) A   22 (A) A     -0.0097
     6 (A) A   8 (A) B   15 (A) A   11 (A) B      0.0090
     6 (A) A   8 (A) B   10 (A) A   11 (A) B     -0.0089
     7 (A) A   8 (A) B   22 (A) A   11 (A) B      0.0089
     3 (A) A   4 (A) B   11 (A) A    9 (A) B     -0.0083
     3 (A) A   8 (A) B   11 (A) A   18 (A) B     -0.0081
     6 (A) A   8 (A) A   11 (A) A   15 (A) A     -0.0081
     7 (A) A   8 (A) A   13 (A) A   16 (A) A     -0.0078
     7 (A) A   8 (A) A   11 (A) A   13 (A) A      0.0077
     5 (A) A   8 (A) B   21 (A) A   11 (A) B      0.0071
     8 (A) A             10 (A) A                 0.0071
     4 (A) A   8 (A) B   19 (A) A   11 (A) B      0.0070
     5 (A) A   8 (A) B    9 (A) A    9 (A) B      0.0067
     4 (A) A   8 (A) A   11 (A) A   12 (A) A      0.0063
     6 (A) A   8 (A) A   11 (A) A   18 (A) A     -0.0062
     3 (A) A   6 (A) B   11 (A) A   28 (A) B     -0.0061
     6 (A) A   8 (A) B   18 (A) A   11 (A) B      0.0060
     7 (A) A   8 (A) B   16 (A) A   13 (A) B      0.0057
     3 (A) A   8 (A) A   11 (A) A   18 (A) A     -0.0056
     5 (A) A   8 (A) B   10 (A) A   10 (A) B      0.0056
     3 (A) A   8 (A) B   11 (A) A   30 (A) B     -0.0055
     3 (A) A   5 (A) B   11 (A) A   25 (A) B     -0.0055
     6 (A) A   8 (A) B   11 (A) A   10 (A) B     -0.0054
     7 (A) A   8 (A) B   12 (A) A   10 (A) B     -0.0054
     8 (A) A   8 (A) B   20 (A) A   22 (A) B      0.0053
     3 (A) A   8 (A) A   11 (A) A   24 (A) A     -0.0053
     8 (A) A             12 (A) A                 0.0053
     5 (A) A   8 (A) A   11 (A) A   16 (A) A      0.0048
    -----------------------------------------------------

  Density matrix analysis:
  ------------------------
  NOs
    Occupation of frontier NOs:
       0.9415   1.0271
    Number of electrons: 16.000000
    Number of unpaired electrons: n_u =  2.31855, n_u,nl =  2.04848
    NO participation ratio (PR_NO):  2.908827
  
  
  Mulliken Population Analysis
  Atom      Charge (e)              h+              e-           Del q
  --------------------------------------------------------------------
   1 H       -0.143481        0.046241       -0.237991       -0.191749
   2 C        0.282100        0.496636       -0.118610        0.378026
   3 H       -0.134546        0.046450       -0.231275       -0.184825
   4 C        0.274359        0.498323       -0.120991        0.377331
   5 H       -0.158200        0.046733       -0.254917       -0.208184
   6 H       -0.120232        0.046229       -0.216828       -0.170599
  --------------------------------------------------------------------
  Sum:        0.000000        1.180612       -1.180612       -0.000000
  
  Multipole moment analysis of the density matrix
    Molecular charge:                      0.000000
    Number of electrons:                   16.000000
      Center of electronic charge [Ang]: [ -1.559672,  -0.063377,   0.002212]
    Total nuclear charge:                  16.000000
      Center of nuclear charge [Ang]:    [ -1.561201,  -0.065602,   0.001978]
    Dipole moment [D]:                     0.208292
      Cartesian components [D]:          [ -0.117534,  -0.171023,  -0.017953]
    RMS size of the density [Ang]:         1.276626
      Cartesian components [Ang]:        [  0.853717,   0.844165,   0.433968]
  
  Exciton analysis of the difference density matrix
    <r_h> [Ang]:                  [ -1.560117,  -0.063198,   0.001966]
    <r_e> [Ang]:                  [ -1.539054,  -0.032694,   0.005428]
    |<r_e - r_h>| [Ang]:            0.037231
    Hole size [Ang]:                1.394701
      Cartesian components [Ang]: [  0.817357,   0.807408,   0.790703]
    Electron size [Ang]:            2.125345
      Cartesian components [Ang]: [  1.406948,   1.440746,   0.679589]

  Transition density matrix analysis:
  -----------------------------------
  
  CT numbers (Mulliken)
    omega =     0.9299
    <Phe> =    -0.0133
  
  Exciton analysis of the transition density matrix
    Trans. dipole moment [D]:             0.013075
      Cartesian components [D]:         [  0.000024,   0.001450,  -0.012994]
    <r_h> [Ang]:                        [ -1.560886,  -0.065439,   0.001686]
    <r_e> [Ang]:                        [ -1.535311,  -0.026083,   0.006092]
    |<r_e - r_h>| [Ang]:                  0.047142
    Hole size [Ang]:                      1.227699
      Cartesian components [Ang]:       [  0.659009,   0.648285,   0.807885]
    Electron size [Ang]:                  2.264240
      Cartesian components [Ang]:       [  1.497646,   1.536945,   0.722247]
    RMS electron-hole separation [Ang]:   2.565470
      Cartesian components [Ang]:       [  1.628112,   1.660592,   1.083199]
    Covariance(r_h, r_e) [Ang^2]:         0.027307
    Correlation coefficient:              0.009823
    Center-of-mass size [Ang]:            1.293121
      Cartesian components [Ang]:       [  0.822250,   0.837993,   0.542065]

  Decomposition into state-averaged NTOs
    H- 0 -> L+ 2:  0.6646 ( 88.3%)
    H- 1 -> L+ 0:  0.1472 (  4.3%)
                   omega =  93.0%
  ----------------------------------------------------------------------------


  Excited state 5 (singlet, A)                                     [converged]
  ----------------------------------------------------------------------------
  Term symbol:  6 (1) A                                     R^2 =  5.13916e-13

  Total energy:                                            -77.9438067804 a.u.
  Excitation energy:                                              10.220096 eV

  Osc. strength:                                                      0.000004
  Trans. dip. moment [a.u.]:           [  -0.000078,   -0.000209,    0.004002]
  <i|r^2|0> [a.u.]:                    [   0.089259,   -0.103331,    0.013673]
  Two-photon absorption cross-section (SoS) [a.u.]:                 172.749200
  Two-photon absorption matrix (SoS) [a.u.]:
                                       |    0.326467    0.053525   -3.416652 |
                                       |    0.053525   -0.370770    3.129552 |
                                       |   -3.416652    3.129552    0.047918 |
  Two-photon absorption cross-section [a.u.]:                        75.845086
  Two-photon absorption matrix [a.u.]:
                                       |    0.217236    0.035749   -2.260215 |
                                       |    0.035749   -0.245032    2.077654 |
[...]
    16   -1.505979410644e-03
    17   -1.756591214452e-03
    18   -2.729584118796e-04
    19   -3.266074477801e-03
    20    1.043073656377e-02
    21    9.361910185077e-01
    22   -2.154996302928e-04
    23    1.401688413052e-02
    24    8.196180872523e-04
    25    7.095585268051e-02
    26   -5.313644320183e-02
    27   -1.408268039962e+00
    28    9.895588133100e-02
    29   -9.193904385178e-02
    30   -9.304219661497e-04
    31    3.900285689517e-01
    32   -3.618712018176e-01
    33   -3.639579124266e-03
    34    1.575909554151e-02
    35   -1.474481169120e-03
    36   -1.821693990510e-03
    37    1.997848748594e-04
    38   -3.262887277021e-03
    39    9.206609350535e-03
    40    9.318891170831e-01
    41    2.262226049406e-04
    42   -1.396735020303e-02
    43   -8.314239767476e-04
    44    1.098366308715e-02
    45    9.547583711557e-01
    46    1.425644615796e-02
    47    4.970011071771e-04
    48    6.981809081720e-04
Sym=X
Ene= 0.233337
Spin=Alpha
Occup=0
     1    2.381946952935e-02
     2    1.191477601991e+00
     3   -1.391069817831e-02
     4   -3.425388909274e-03
     5   -8.616125257330e-04
     6   -1.463358935790e-03
     7    1.250044585308e-03
     8    1.855262839720e-02
     9   -1.506959308557e-01
    10   -1.605548739033e-01
    11   -1.666314885341e-02
    12   -5.464823460816e-01
    13   -5.695810036481e-01
    14   -5.965173781716e-02
    15   -2.463499830496e-04
    16    1.170235126868e-05
    17    4.258174906317e-05
    18   -2.940449672438e-04
    19    7.418256653747e-05
    20   -2.640357148147e-02
    21   -1.215018894713e+00
    22   -2.835824571162e-03
    23   -1.432143359383e-02
    24   -9.844172637898e-04
    25    2.773192659216e-03
    26   -2.055085273206e-03
    27   -5.857166901239e-02
    28   -1.506354930887e-01
    29   -1.631686581751e-01
    30   -1.691468221006e-02
    31   -5.335411440896e-01
    32   -5.739330870333e-01
    33   -5.970236520757e-02
    34    9.150710021112e-04
    35   -7.158969136840e-05
    36   -1.828604821555e-04
    37    8.486475917496e-04
    38   -4.119625550391e-04
    39    2.533684517982e-02
    40    1.230267904190e+00
    41   -2.927746135533e-03
    42   -1.479617487624e-02
    43   -1.025231776440e-03
    44   -2.447916233355e-02
    45   -1.157210729496e+00
    46   -1.333102863259e-02
    47   -3.227679534852e-03
    48   -8.254797483679e-04
Sym=X
Ene= 0.239826
Spin=Alpha
Occup=0
     1    1.608332045855e-02
     2    1.135632927971e+00
     3   -1.787632114915e-02
     4   -9.346690244953e-03
     5   -1.418087767529e-03
     6    8.688880944137e-02
     7   -7.977543597575e-02
     8   -1.615811839112e+00
     9   -6.104709733396e-02
    10    5.272804653044e-02
    11    3.222505329146e-05
    12   -2.429605194167e-01
    13    2.059919811078e-01
    14   -1.819207028995e-04
    15    2.305115937337e-02
    16   -2.690638122533e-03
    17   -3.009068560394e-03
    18    3.381572835232e-04
    19   -1.301684074220e-02
    20    1.500024654663e-02
    21    1.065677252443e+00
    22    8.513278107929e-03
    23    1.719169822024e-02
    24    1.413148764304e-03
    25   -8.584541092269e-02
    26    7.850552584875e-02
    27    1.588490528895e+00
    28   -6.216502455517e-02
    29    5.111879554702e-02
    30    3.554390499016e-04
    31   -2.411409845532e-01
    32    2.021675237256e-01
    33    1.666584444190e-03
    34   -2.252812546601e-02
    35    2.588370518738e-03
    36    2.987263000829e-03
    37   -3.283060218840e-04
    38    1.273611687988e-02
    39   -1.602726055164e-02
    40   -1.052616369636e+00
    41    8.501298895804e-03
    42    1.692751835103e-02
    43    1.430145427345e-03
    44   -1.622177042680e-02
    45   -1.114176742546e+00
    46   -1.728046129853e-02
    47   -9.440262406972e-03
    48   -1.364775090692e-03
Sym=X
Ene= 0.303315
Spin=Alpha
Occup=0
     1   -2.191524103495e-02
     2    1.715908994617e+00
     3   -2.296509845314e-02
     4    2.435713560956e-04
     5   -1.087277202829e-03
     6    6.675875834427e-05
     7    1.908936595107e-04
     8   -2.138487503208e-02
     9   -1.334503200631e-01
    10   -1.397135000294e-01
    11   -1.462700978588e-02
    12   -1.147763643139e+00
    13   -1.199996231010e+00
    14   -1.258364748606e-01
    15    3.839607953472e-04
    16   -1.736061658692e-03
    17    1.775759227122e-03
    18   -3.271064921445e-02
    19   -1.964301821164e-03
    20    1.954111852729e-02
    21   -1.693114271343e+00
    22    1.593539188771e-03
    23   -2.277212004842e-02
    24   -1.264436855513e-03
    25   -1.799737948758e-05
    26   -5.951501281515e-05
    27   -1.442425379840e-03
    28    1.339949142493e-01
    29    1.400035732997e-01
    30    1.471909057784e-02
    31    1.140682351456e+00
    32    1.195132970603e+00
    33    1.253751212809e-01
    34    2.905758125197e-05
    35   -1.578960731549e-03
    36    1.879715166005e-03
    37   -3.209964949921e-02
    38   -1.640239344154e-03
    39    1.885257001503e-02
    40   -1.692636317077e+00
    41   -1.564548807247e-03
    42    2.280663113732e-02
    43    1.295677874188e-03
    44   -1.949263416898e-02
    45    1.694360475173e+00
    46    2.284941821986e-02
    47   -3.859304202983e-04
    48    1.052992870088e-03
Sym=X
Ene= 0.462101
Spin=Alpha
Occup=0
     1   -1.147743833356e-01
     2   -7.319141046112e-01
     3   -1.578599998496e-02
     4   -1.016764907128e-02
     5   -1.347734742314e-03
     6    6.049969359833e-02
     7    1.742739897055e-02
     8   -3.579001803337e+00
     9    1.026959900333e-01
    10   -9.832862464448e-02
    11   -8.877192851950e-04
    12    2.435414594606e+00
    13   -2.298285425796e+00
    14   -2.010844748543e-02
    15    5.356381082942e-02
    16   -3.378178312041e-03
    17   -4.697065096115e-03
    18   -3.520607505199e-04
    19    1.754495599269e-02
    20   -1.216488473425e-01
    21   -6.968400750169e-01
    22    8.739504299246e-03
    23    1.654954615225e-02
    24    1.401424973872e-03
    25   -6.091582294724e-02
    26   -1.582769940416e-02
    27    3.589971033313e+00
    28    1.058849429737e-01
    29   -1.009856368609e-01
    30   -1.181654707282e-03
    31    2.418829045739e+00
    32   -2.299348366133e+00
    33   -2.226776674501e-02
    34   -5.264545045058e-02
    35    3.275139413166e-03
    36    4.492802796116e-03
    37    7.955504389564e-04
    38   -1.907712967988e-02
    39    1.149233065247e-01
    40    7.127509377954e-01
    41    8.513404601307e-03
    42    1.619709367227e-02
    43    1.364133452918e-03
    44    1.103522625148e-01
    45    7.168884433443e-01
    46   -1.551985787792e-02
    47   -9.882410856889e-03
    48   -1.334626031611e-03
Sym=X
Ene= 0.577315
Spin=Alpha
Occup=0
     1    2.532366497741e-01
     2    4.450320602950e-02
     3   -1.686707246987e-02
     4    2.449227796375e-02
     5    6.446837209012e-04
     6   -4.037214282289e-03
     7   -1.555033228218e-01
     8   -4.843919384634e-01
     9    2.997743341304e-01
    10   -2.866717547061e-01
    11   -2.798481959854e-03
    12   -7.231113001702e-01
    13    6.812100774708e-01
    14    6.099218741526e-03
    15   -5.978393826778e-03
    16    3.925237769848e-03
    17    3.718445569318e-03
    18   -3.668210613280e-03
    19    6.026852549426e-02
    20    2.517024628239e-01
    21    2.550869025367e-02
    22   -2.665938435987e-02
    23    1.659203207510e-02
    24   -2.899579674116e-04
    25   -5.780256696991e-03
    26   -1.570901079160e-01
    27   -3.994444134017e-01
    28   -2.963255689011e-01
    29    2.845108504484e-01
    30    2.792161360757e-03
    31    7.695646868244e-01
    32   -7.389246347632e-01
    33   -7.620701015757e-03
    34   -6.272573675257e-03
    35    3.885930842792e-03
    36    3.818023824672e-03
    37   -4.823460421917e-03
    38    6.015330081272e-02
    39    2.554477413557e-01
    40    4.891444926214e-02
    41    2.694818328176e-02
    42   -1.636902206614e-02
    43    2.910662754395e-04
    44    2.459012200734e-01
    45    6.051334617056e-02
    46    1.876284012652e-02
    47   -2.632748127232e-02
    48   -6.920814549757e-04
Sym=X
Ene= 0.615843
Spin=Alpha
Occup=0
     1   -5.101310091968e-01
     2    1.714840158334e-01
     3   -6.083488454895e-02
     4    3.817013692040e-02
     5   -6.536814591138e-04
     6   -2.067705981168e-04
     7   -2.865085008523e-03
     8   -1.201343545230e-02
     9   -4.134553794445e-02
    10   -4.167791543111e-02
    11   -4.459612835456e-03
    12    3.156200115235e-01
    13    2.917943687174e-01
    14    3.226505341742e-02
    15   -3.649254600820e-04
    16   -7.353215918066e-03
    17    8.435406676839e-03
    18   -1.469719333264e-01
    19   -5.371594703090e-03
    20    5.161289832213e-01
    21   -2.012389662948e-01
    22    4.122351104984e-02
    23   -5.883793594339e-02
    24   -1.512497991528e-03
    25    3.610543067761e-04
    26   -1.096379692062e-04
    27    1.972573445555e-02
    28   -4.059232633405e-02
    29   -3.896281424202e-02
    30   -4.241650576748e-03
    31    3.100379883199e-01
    32    2.792585144677e-01
    33    3.144319205731e-02
    34   -1.876864944740e-03
    35    7.571580798687e-03
    36   -8.498358561060e-03
    37    1.496202311144e-01
    38    7.389620693867e-03
    39   -5.123228429752e-01
    40    2.123825294199e-01
    41    4.150778003895e-02
    42   -5.889582686310e-02
    43   -1.571386585285e-03
    44    5.264929905851e-01
    45   -2.033180545597e-01
    46   -6.172109802919e-02
    47    3.731381885314e-02
    48   -6.685483575151e-04
Sym=X
Ene= 0.689247
Spin=Alpha
Occup=0
     1    3.694458129139e-04
     2   -6.886136797629e-05
     3    1.180883850730e-03
     4    1.383567781159e-03
     5   -2.270028838698e-02
     6    2.473347124658e-05
     7    4.176433121990e-04
     8   -1.322440529808e-04
     9    3.170157611112e-02
    10    3.990864784357e-02
    11   -6.700539255924e-01
    12   -2.929861807305e-02
    13   -3.631016663432e-02
    14    6.139719186154e-01
    15   -1.377959621591e-03
    16    8.293101319309e-02
    17   -7.828313086246e-02
    18   -8.615551318594e-03
    19   -1.126066935076e-03
    20    3.817825183219e-04
    21   -1.740486936644e-04
    22    9.455840715645e-04
    23    1.128653402955e-03
    24   -2.083628784555e-02
    25    1.658225709160e-05
    26    5.031613125147e-04
    27   -4.000222002068e-04
    28    3.195913664979e-02
    29    3.985205016641e-02
    30   -6.702543470424e-01
    31   -2.953171153218e-02
    32   -3.621738346636e-02
    33    6.131217317949e-01
    34    1.104001017818e-03
    35   -8.272954572866e-02
    36    7.833374222394e-02
    37    8.573266448529e-03
    38    1.220285655791e-03
    39    2.480411797736e-04
    40   -4.561314390899e-04
    41    1.022320331378e-03
    42    1.388029040844e-03
    43   -2.107235625892e-02
    44    2.150244241636e-04
    45   -3.699415917786e-04
    46    8.790632945932e-04
    47    1.240723957559e-03
    48   -2.108991805064e-02
Sym=X
Ene= 0.709840
Spin=Alpha
Occup=0
     1   -4.676340813807e-01
     2    1.267332702373e-01
     3   -7.975073853322e-02
     4   -4.398478933197e-02
     5   -6.434436448561e-03
     6   -4.709788398287e-02
     7   -3.271584553127e-01
     8    5.146195947908e-01
     9    2.010739410277e-01
    10   -1.974896599932e-01
    11   -2.711295765568e-03
    12   -7.642516152786e-02
    13    9.170517233419e-02
    14    2.251850046438e-03
    15    1.921388968258e-01
    16   -2.038398505601e-02
    17   -2.374996049886e-02
    18    2.939447466537e-03
    19   -7.725177330802e-02
    20   -4.680498841246e-01
    21    1.520892870420e-01
    22    4.124824079713e-02
    23    8.085205944743e-02
    24    6.731195346428e-03
    25   -4.787195437705e-02
    26   -3.200967316828e-01
    27    4.710467589082e-01
    28   -2.035577359072e-01
    29    1.915852255953e-01
    30    1.205648161015e-03
    31    7.265619725630e-02
    32   -5.762607471278e-02
    33    8.531141377831e-04
    34    1.965262955147e-01
    35   -2.060644112583e-02
    36   -2.425576367211e-02
    37    4.001330250308e-03
    38   -7.565861940578e-02
    39   -4.842984244945e-01
    40    1.462685069111e-01
    41   -4.023815398646e-02
    42   -8.326237025127e-02
    43   -6.883614149278e-03
    44   -4.745076137162e-01
    45    1.500651209580e-01
    46    8.108144080397e-02
    47    4.487918730088e-02
    48    6.517271911563e-03
Sym=X
Ene= 0.785966
Spin=Alpha
Occup=0
     1   -5.289087192580e-01
     2    4.335377823289e-01
     3   -1.101535208459e-01
     4   -2.571633558555e-02
     5   -6.785934820757e-03
     6   -9.214767433083e-02
     7    2.034932583055e-01
     8    6.659839090106e-01
     9   -1.197855269440e-01
    10    9.540318663283e-02
    11   -1.091258277253e-03
    12   -2.875142199668e-01
    13    3.161904756107e-01
    14    7.121785174033e-03
    15    2.103232483165e-01
    16   -1.792240961088e-02
    17   -2.232277507095e-02
    18    3.535274455576e-03
    19   -9.825939550849e-03
    20   -5.416761652079e-01
    21    4.878271553464e-01
    22    2.128839045070e-02
    23    1.158798460067e-01
    24    7.862704830857e-03
    25    9.086593698458e-02
    26   -2.206370370026e-01
    27   -6.463013122999e-01
    28   -1.162169659370e-01
    29    1.085583996542e-01
    30    1.917028581512e-03
    31   -3.049254708923e-01
    32    2.867333717537e-01
    33    5.648084023862e-04
    34   -2.050685125424e-01
    35    1.720531341741e-02
    36    2.189866326260e-02
    37   -1.687128943910e-03
    38    7.439868950522e-03
    39    5.310703636209e-01
    40   -4.649953949050e-01
    41    2.088722037631e-02
    42    1.116714534557e-01
    43    7.674547190575e-03
    44    5.307847285215e-01
    45   -4.618084527245e-01
    46   -1.095701985886e-01
    47   -2.516586063816e-02
    48   -6.685599483817e-03
Sym=X
Ene= 0.808029
Spin=Alpha
Occup=0
     1    6.496694357903e-04
     2   -8.105828794593e-04
     3    1.915937751282e-03
     4    2.112341326212e-03
     5   -3.573283923656e-02
     6    1.283112717110e-04
     7   -3.195896489871e-04
     8   -2.462166694301e-04
     9    3.657885250057e-02
    10    4.492786637791e-02
    11   -7.626779477080e-01
    12   -5.333315899757e-02
    13   -6.712070638061e-02
    14    1.127528530805e+00
    15    6.254999414795e-04
    16   -6.515062332067e-02
    17    6.179763770680e-02
    18    6.799577523853e-03
    19    8.544191613036e-04
    20    6.667280135887e-04
    21   -6.695001772505e-04
    22    1.666717323678e-03
    23    1.836629661608e-03
    24   -3.430774409858e-02
    25   -1.191412019163e-04
    26    1.944546440666e-04
    27    2.931040454713e-04
    28   -3.595211885471e-02
    29   -4.583142629346e-02
    30    7.631146425478e-01
    31    5.389372507539e-02
    32    6.696936618162e-02
    33   -1.127153367103e+00
    34    1.347185573951e-03
    35   -6.524877471876e-02
    36    6.163215150524e-02
    37    6.737860771434e-03
    38    1.009172791730e-03
    39   -6.436907842260e-04
    40    6.817688417413e-04
    41   -1.575054742216e-03
    42   -2.269486424662e-03
    43    3.421623253453e-02
    44   -6.491770928648e-04
    45    8.912684655395e-04
    46   -1.348588095741e-03
    47   -2.032308918496e-03
    48    3.373679698909e-02
Sym=X
Ene= 0.862947
Spin=Alpha
Occup=0
     1    1.553983262620e-02
     2   -1.094617897293e+00
     3    1.484845727999e-01
     4    5.625780947423e-02
     5    1.041158852281e-02
     6    1.750738458998e-03
     7    6.026542634090e-03
     8   -1.576274173043e-03
     9   -3.950860709915e-01
    10   -4.264795864983e-01
    11   -4.401720499829e-02
    12    9.327181936432e-01
    13    9.949772781832e-01
    14    1.032197412956e-01
    15   -5.699864995413e-03
    16    1.220064451798e-02
    17   -1.299908793462e-02
    18    2.355370109286e-01
    19    9.230370388895e-03
    20   -4.725119214957e-03
    21    1.095781507722e+00
    22    5.046486744026e-02
    23    1.485333084906e-01
    24    1.120501020536e-02
    25   -1.042324848769e-03
    26    9.008426595745e-03
    27   -1.157762749766e-02
    28   -4.086927390436e-01
    29   -4.377587648708e-01
    30   -4.558157788603e-02
    31    9.574239539342e-01
    32    1.015394631256e+00
    33    1.061770305009e-01
    34    2.426121699506e-03
    35   -1.201007901672e-02
    36    1.357672130592e-02
    37   -2.385514869623e-01
    38   -8.909180418079e-03
    39    1.150713102152e-02
    40   -1.109515552072e+00
    41    4.877849305181e-02
    42    1.525704392418e-01
    43    1.146490085596e-02
    44   -1.892465051460e-02
    45    1.111997985680e+00
    46    1.522522814682e-01
    47    5.527865116190e-02
    48    1.047071617951e-02
Sym=X
Ene= 0.937230
Spin=Alpha
Occup=0
     1   -1.130803106820e-01
     2    1.281366307611e+00
     3   -1.815461883479e-01
     4    7.323703505553e-03
     5   -8.251912700162e-03
     6   -1.971333757086e-03
     7   -2.406889345426e-02
     8    1.244597073669e-02
     9    4.619218561830e-01
    10    5.163421222393e-01
    11    5.261120613542e-02
    12   -1.451737798994e+00
    13   -1.600219715512e+00
    14   -1.640194442500e-01
    15    5.494427525323e-03
    16   -6.249418618235e-03
    17    6.827334983640e-03
    18   -1.240707306504e-01
    19    3.620159039345e-03
    20    1.102683474795e-01
    21   -1.332403489565e+00
    22    9.124343196048e-03
    23   -1.864685291700e-01
    24   -1.056566775644e-02
    25    1.122336472144e-03
    26   -1.507001909675e-02
    27    4.421948533263e-02
    28   -4.806763219847e-01
    29   -4.835140568489e-01
    30   -5.163592113991e-02
    31    1.494065725560e+00
    32    1.509036755943e+00
    33    1.608558233495e-01
    34   -2.920193051480e-03
    35   -5.748104313337e-03
    36    6.855579466921e-03
    37   -1.156773990765e-01
    38   -1.001840045167e-02
    39    1.140019283821e-01
    40   -1.269041399321e+00
    41   -1.497357170469e-02
    42    1.805791578945e-01
    43    1.009424143540e-02
    44   -1.086952369682e-01
    45    1.282626959225e+00
    46    1.788894194782e-01
    47   -4.470600067019e-03
    48    8.195594959315e-03
Sym=X
Ene= 0.972859
Spin=Alpha
Occup=0
     1   -6.545480072432e-02
     2    9.631412383061e-01
     3   -9.520477443424e-02
     4   -9.880700440355e-02
     5   -1.044592041457e-02
     6    2.462299299924e-02
     7    2.354449844088e-01
     8    5.482547570177e-01
     9    4.896998172148e-01
    10   -4.381063342583e-01
    11   -2.453979414382e-03
    12   -1.536667708280e+00
    13    1.356397833691e+00
    14    6.700683109720e-03
    15   -5.168936455075e-02
    16   -1.327478098673e-02
    17   -9.549747539541e-03
    18    8.305435388940e-03
    19   -3.006182038286e-01
    20   -6.230732809557e-02
    21    8.602532152414e-01
    22    9.464218966989e-02
    23    8.640231802446e-02
    24    9.589631710149e-03
    25   -2.493608845999e-02
    26   -2.539643843971e-01
    27   -5.173174034347e-01
    28    4.707587493065e-01
    29   -4.662537065820e-01
    30   -5.748187418356e-03
    31   -1.459952045128e+00
    32    1.460207622084e+00
    33    1.850441952912e-02
    34    5.223179045380e-02
    35    1.285021598503e-02
    36    9.949022280549e-03
    37   -1.528164640341e-02
    38    3.006780434331e-01
    39    6.486718606421e-02
    40   -9.492468214952e-01
    41    9.477790213635e-02
    42    9.848582699962e-02
    43    1.046124223683e-02
    44    6.743679561550e-02
    45   -8.983857236567e-01
    46   -8.792951104082e-02
    47   -9.898915238732e-02
    48   -9.971888377114e-03
[5D]

======= END OF MOLDEN-FORMATTED INPUT FILE =======


        *************************************************************
        *                                                           *
        *  Thank you very much for using Q-Chem.  Have a nice day.  *
        *                                                           *
        *************************************************************


