                  Welcome to Q-Chem
     A Quantum Leap Into The Future Of Chemistry


 Q-Chem 5.4 (devel), Q-Chem, Inc., Pleasanton, CA (2021)

 E. Epifanovsky,  A. T. B. Gilbert,  Xintian Feng,  Joonho Lee,  Yuezhi Mao,  
 N. Mardirossian,  P. Pokhilko,  A. White,  M. Wormit,  M. P. Coons,  
 A. L. Dempwolff,  Zhengting Gan,  D. Hait,  P. R. Horn,  L. D. Jacobson,  
 I. Kaliman,  J. Kussmann,  A. W. Lange,  Ka Un Lao,  D. S. Levine,  Jie Liu,  
 S. C. McKenzie,  A. F. Morrison,  K. Nanda,  F. Plasser,  D. R. Rehn,  
 M. L. Vidal,  Zhi-Qiang You,  Ying Zhu,  B. Alam,  B. Albrecht,  
 A. Aldossary,  E. Alguire,  J. H. Andersen,  D. Barton,  K. Begam,  A. Behn,  
 Y. A. Bernard,  E. J. Berquist,  H. Burton,  A. Carreras,  K. Carter-Fenk,  
 R. Chakraborty,  A. D. Chien,  K. D. Closser,  V. Cofer-Shabica,  
 S. Dasgupta,  Jia Deng,  M. de Wergifosse,  M. Diedenhofen,  Hainam Do,  
 S. Ehlert,  Po-Tung Fang,  S. Fatehi,  Qingguo Feng,  T. Friedhoff,  
 J. Gayvert,  Qinghui Ge,  G. Gidofalvi,  M. Goldey,  J. Gomes,  
 C. Gonzalez-Espinoza,  S. Gulania,  A. Gunina,  M. W. D. Hanson-Heine,  
 P. H. P. Harbach,  A. W. Hauser,  M. F. Herbst,  M. Hernandez Vera,  
 M. Hodecker,  Z. C. Holden,  S. Houck,  Xunkun Huang,  Kerwin Hui,  
 B. C. Huynh,  M. Ivanov,  Hyunjun Ji,  Hanjie Jiang,  B. Kaduk,  S. Kaehler,  
 K. Khistyaev,  Jaehoon Kim,  P. Klunzinger,  Z. Koczor-Benda,  
 Joong Hoon Koh,  D. Kosenkov,  L. Koulias,  T. Kowalczyk,  C. M. Krauter,  
 K. Kue,  A. Kunitsa,  T. Kus,  A. Landau,  K. V. Lawler,  D. Lefrancois,  
 S. Lehtola,  Rain Li,  Yi-Pei Li,  Jiashu Liang,  M. Liebenthal,  
 Hung-Hsuan Lin,  You-Sheng Lin,  Fenglai Liu,  Kuan-Yu Liu,  
 M. Loipersberger,  A. Luenser,  A. Manjanath,  P. Manohar,  E. Mansoor,  
 S. F. Manzer,  Shan-Ping Mao,  A. V. Marenich,  T. Markovich,  S. Mason,  
 S. A. Maurer,  P. F. McLaughlin,  M. F. S. J. Menger,  J.-M. Mewes,  
 S. A. Mewes,  P. Morgante,  J. W. Mullinax,  K. J. Oosterbaan,  G. Paran,  
 Alexander C. Paul,  Suranjan K. Paul,  F. Pavosevic,  Zheng Pei,  S. Prager,  
 E. I. Proynov,  E. Ramos,  B. Rana,  A. E. Rask,  A. Rettig,  R. M. Richard,  
 F. Rob,  E. Rossomme,  T. Scheele,  M. Scheurer,  M. Schneider,  
 N. Sergueev,  S. M. Sharada,  W. Skomorowski,  D. W. Small,  C. J. Stein,  
 Yu-Chuan Su,  E. J. Sundstrom,  Zhen Tao,  J. Thirman,  T. Tsuchimochi,  
 N. M. Tubman,  S. P. Veccham,  O. Vydrov,  J. Wenzel,  J. Witte,  A. Yamada,  
 Kun Yao,  S. Yeganeh,  S. R. Yost,  A. Zech,  Igor Ying Zhang,  Xing Zhang,  
 Yu Zhang,  D. Zuev,  A. Aspuru-Guzik,  A. T. Bell,  N. A. Besley,  
 K. B. Bravaya,  B. R. Brooks,  D. Casanova,  Jeng-Da Chai,  S. Coriani,  
 C. J. Cramer,  A. E. DePrince, III,  R. A. DiStasio Jr.,  A. Dreuw,  
 B. D. Dunietz,  T. R. Furlani,  W. A. Goddard III,  S. Grimme,  
 S. Hammes-Schiffer,  T. Head-Gordon,  W. J. Hehre,  Chao-Ping Hsu,  
 T.-C. Jagau,  Yousung Jung,  A. Klamt,  Jing Kong,  D. S. Lambrecht,  
 WanZhen Liang,  N. J. Mayhall,  C. W. McCurdy,  J. B. Neaton,  
 C. Ochsenfeld,  J. A. Parkhill,  R. Peverati,  V. A. Rassolov,  Yihan Shao,  
 L. V. Slipchenko,  T. Stauch,  R. P. Steele,  J. E. Subotnik,  
 A. J. W. Thom,  A. Tkatchenko,  D. G. Truhlar,  T. Van Voorhis,  
 T. A. Wesolowski,  K. B. Whaley,  H. L. Woodcock III,  P. M. Zimmerman,  
 S. Faraji,  P. M. W. Gill,  M. Head-Gordon,  J. M. Herbert,  A. I. Krylov

 Additional authors for Version 5.4.1: 
 S. Kotaru,  Shaozhi Li,  Xiangyuan Li,  F. Matz,  A. Molle,  Haisheng Ren,  
 Yingli Su,  Hung-Yi Tsai,  C. Utku,  Fang Wang

 Contributors to earlier versions of Q-Chem not listed above: 
 R. D. Adamson,  B. Austin,  R. Baer,  J. Baker,  G. J. O. Beran,  
 K. Brandhorst,  S. T. Brown,  E. F. C. Byrd,  A. K. Chakraborty,  
 G. K. L. Chan,  Chun-Min Chang,  Yunqing Chen,  C.-L. Cheng,  
 Siu Hung Chien,  D. M. Chipman,  D. L. Crittenden,  H. Dachsel,  
 R. J. Doerksen,  A. D. Dutoi,  R. G. Edgar,  J. Fosso-Tande,  
 L. Fusti-Molnar,  D. Ghosh,  A. Ghysels,  A. Golubeva-Zadorozhnaya,  
 J. Gonthier,  M. S. Gordon,  S. R. Gwaltney,  G. Hawkins,  J. E. Herr,  
 A. Heyden,  S. Hirata,  E. G. Hohenstein,  G. Kedziora,  F. J. Keil,  
 C. Kelley,  Jihan Kim,  R. A. King,  R. Z. Khaliullin,  P. P. Korambath,  
 W. Kurlancheek,  A. Laurent,  A. M. Lee,  M. S. Lee,  S. V. Levchenko,  
 Ching Yeh Lin,  D. Liotard,  E. Livshits,  R. C. Lochan,  I. Lotan,  
 L. A. Martinez-Martinez,  P. E. Maslen,  N. Nair,  D. P. O'Neill,  
 D. Neuhauser,  E. Neuscamman,  C. M. Oana,  R. Olivares-Amaya,  R. Olson,  
 T. M. Perrine,  B. Peters,  P. A. Pieniazek,  A. Prociuk,  Y. M. Rhee,  
 J. Ritchie,  M. A. Rohrdanz,  E. Rosta,  N. J. Russ,  H. F. Schaefer III,  
 M. W. Schmidt,  N. E. Schultz,  S. Sharma,  N. Shenvi,  C. D. Sherrill,  
 A. C. Simmonett,  A. Sodt,  T. Stein,  D. Stuck,  K. S. Thanthiriwatte,  
 V. Vanovschi,  L. Vogt,  Tao Wang,  A. Warshel,  M. A. Watson,  
 C. F. Williams,  Q. Wu,  X. Xu,  Jun Yang,  W. Zhang,  Yan Zhao

 Please cite Q-Chem as follows:
 Y. Shao et al., Mol. Phys. 113, 184-215 (2015)
 DOI: 10.1080/00268976.2014.952696

 Q-Chem 5.4.1 for Intel X86 EM64T Linux

 Parts of Q-Chem use Armadillo 9.800.1 (Horizon Scraper).
 http://arma.sourceforge.net/

 Q-Chem begins on Thu Nov 17 15:42:27 2022  

 Host: cpu184.baobab
0

     Scratch files written to /scratch/fum/qchem27914//
 Processing $rem in /home/share/wesolowski/qc5.aug2021.FDE/config/preferences:
 Processing $rem in /home/fum/.qchemrc:

 Checking the input file for inconsistencies... 	...done.

--------------------------------------------------------------
User input:
--------------------------------------------------------------
$comment
generated from CCJob.Templates
$end

$rem
sym_ignore = true
method = adc(2)
ee_states = 10
basis = cc-pVDZ
mem_static = 1024
mem_total = 40000
adc_davidson_maxiter = 900
adc_davidson_conv = 6
adc_print = 3
adc_prop_es = true
adc_prop_es2es = true
adc_prop_tpa = true
molden_format = True
state_analysis = true
print_orbitals = 15
gen_scfman = false
fde_export_density = true
fde_details = 3
$end

$molecule
0 1
H -0.0348278765 -0.2442097827 0.0636489606
C -1.0765972949 -0.5242748755 -0.0023551776
H -1.313264467 -1.5767591607 -0.0757276926
C -2.0536341179999997 0.3926884087 0.0061254933
H -1.8137616575 1.4459188338 0.0804456828
H -3.085977293 0.114931858 -0.0593381042                     
$end
--------------------------------------------------------------
 ----------------------------------------------------------------
             Standard Nuclear Orientation (Angstroms)
    I     Atom           X                Y                Z
 ----------------------------------------------------------------
    1      H      -0.0348278765    -0.2442097827     0.0636489606
    2      C      -1.0765972949    -0.5242748755    -0.0023551776
    3      H      -1.3132644670    -1.5767591607    -0.0757276926
    4      C      -2.0536341180     0.3926884087     0.0061254933
    5      H      -1.8137616575     1.4459188338     0.0804456828
    6      H      -3.0859772930     0.1149318580    -0.0593381042
 ----------------------------------------------------------------
 Nuclear Repulsion Energy =          33.35732204 hartrees
 There are        8 alpha and        8 beta electrons
 Requested basis set is cc-pVDZ
 There are 24 shells and 48 basis functions
 Total memory of 40000 MB is distributed as follows: 
   MEM_STATIC is set to 1024 MB
   QALLOC/CCMAN JOB total memory use is  38976 MB
 Warning: actual memory use might exceed 40000 MB

 Total QAlloc Memory Limit  40000 MB
 Mega-Array Size      1001 MB
 MEM_STATIC part      1024 MB

                       Distance Matrix (Angstroms)
             H (  1)   C (  2)   H (  3)   C (  4)   H (  5)
   C (  2)  1.080776
   H (  3)  1.851895  1.081258
   C (  4)  2.117670  1.339961  2.105605
   H (  5)  2.453859  2.105215  3.067812  1.082754
   H (  6)  3.074674  2.109370  2.450428  1.071059  1.846510

 A cutoff of  1.0D-11 yielded    300 shell pairs
 There are      1220 function pairs (      1329 Cartesian)
 Smallest overlap matrix eigenvalue = 4.93E-03

 Scale SEOQF with 1.000000e-01/1.000000e-01/1.000000e+00

 Standard Electronic Orientation quadrupole field applied
 Nucleus-field energy     =     0.0000000022 hartrees
 Guess from superposition of atomic densities
 Warning:  Energy on first SCF cycle will be non-variational
 SAD guess density has 16.000000 electrons
 A restricted Hartree-Fock SCF calculation will be
 performed using Pulay DIIS extrapolation
 SCF converges when DIIS error is below 1.0E-08
 using 10 threads for integral computing
 -------------------------------------------------------
 OpenMP Integral computing Module                
 Release: version 1.0, May 2013, Q-Chem Inc. Pittsburgh 
 -------------------------------------------------------
 ---------------------------------------
  Cycle       Energy         DIIS Error
 ---------------------------------------
    1     -78.4296000643      1.01E-01
    2     -78.0173273786      7.19E-03
    3     -78.0379127809      1.83E-03
    4     -78.0393883015      5.62E-04
    5     -78.0395053795      5.85E-05
    6     -78.0395072655      1.04E-05
    7     -78.0395073314      3.95E-06
    8     -78.0395073373      1.06E-06
    9     -78.0395073380      1.45E-07
   10     -78.0395073380      4.57E-08
   11     -78.0395073380      8.30E-09 Convergence criterion met
 ---------------------------------------
 SCF time:  CPU 1.51 s  wall 2.12 s
 SCF   energy in the final basis set = -78.03950734
 Total energy in the final basis set = -78.03950734
Exporting Density Matrix to file 'Densmat_SCF.txt'.
Export successful
================================================================================
|                                                                              |
|                                 A D C  M A N                                 |
|                                                                              |
 ------------------------------------------------------------------------------ 
|                                                                              |
| Components:                                                                  |
|                                                                              |
| - libvmm - 1.3-trunk                                                         |
|   Authors:                                                                   |
|   Evgeny Epifanovsky, Ilya Kaliman                                           |
|                                                                              |
| - libtensor - 2.5-trunk                                                      |
|   Authors:                                                                   |
|   Evgeny Epifanovsky, Michael Wormit, Dmitry Zuev, Sam Manzer,               |
|   Ilya Kaliman                                                               |
|                                                                              |
| - libwfa - 1.1-trunk                                                         |
|   Authors:                                                                   |
|   Felix Plasser, Stefanie Mewes (Baeppler), Benjamin Thomitzni,              |
|   Michael Wormit, Feng Chen, Anna I. Krylov, Pavel Pokhilko                  |
|                                                                              |
| - libadc - 1.1-trunk                                                         |
|   Authors:                                                                   |
|   Michael Wormit, Adrian L. Dempwolff, Philipp H. P. Harbach,                |
|   Caroline Krauter, Dirk Rehn, Matthias Schneider, Jan Wenzel                |
|                                                                              |
| - adcman - 2.6-trunk                                                         |
|   Authors:                                                                   |
|   Michael Wormit, Adrian L. Dempwolff, Philipp H. P. Harbach,                |
|   Caroline Krauter, Daniel Lefrancois, Jan-Michael Mewes, Dirk Rehn,         |
|   Matthias Schneider, Jan Wenzel, Andreas Dreuw                              |
|                                                                              |
| Authors of earlier versions of ADCMAN:                                       |
| Andreas Dreuw, Jan Hendrik Starcke, Dirk Rehn, Michael Wormit                |
|                                                                              |
================================================================================

 Created directory /scratch/fum/qchem27914/plots
  Import QC data ...  CPU 0.00 s  wall 0.00 s

 Alpha MOs, Restricted
 -- Occupied --                  
-11.236 -11.234  -1.030  -0.791  -0.642  -0.580  -0.507  -0.372
  1 A     2 A     3 A     4 A     5 A     6 A     7 A     8 A                  
 -- Virtual --                   
  0.167   0.204   0.234   0.240   0.303   0.460   0.578   0.615
  9 A    10 A    11 A    12 A    13 A    14 A    15 A    16 A                  
  0.691   0.710   0.783   0.807   0.864   0.936   0.969   1.010
 17 A    18 A    19 A    20 A    21 A    22 A    23 A    24 A                  
  1.131   1.232   1.255   1.263   1.292   1.604   1.725   1.749
 25 A    26 A    27 A    28 A    29 A    30 A    31 A    32 A                  
  1.819   1.857   1.865   1.922   1.976   1.981   2.217   2.253
 33 A    34 A    35 A    36 A    37 A    38 A    39 A    40 A                  
  2.376   2.456   2.505   2.627   2.727   2.823   3.143   3.394
 41 A    42 A    43 A    44 A    45 A    46 A    47 A    48 A                  

 Beta MOs, Restricted
 -- Occupied --                  
-11.236 -11.234  -1.030  -0.791  -0.642  -0.580  -0.507  -0.372
  1 A     2 A     3 A     4 A     5 A     6 A     7 A     8 A                  
 -- Virtual --                   
  0.167   0.204   0.234   0.240   0.303   0.460   0.578   0.615
  9 A    10 A    11 A    12 A    13 A    14 A    15 A    16 A                  
  0.691   0.710   0.783   0.807   0.864   0.936   0.969   1.010
 17 A    18 A    19 A    20 A    21 A    22 A    23 A    24 A                  
  1.131   1.232   1.255   1.263   1.292   1.604   1.725   1.749
 25 A    26 A    27 A    28 A    29 A    30 A    31 A    32 A                  
  1.819   1.857   1.865   1.922   1.976   1.981   2.217   2.253
 33 A    34 A    35 A    36 A    37 A    38 A    39 A    40 A                  
  2.376   2.456   2.505   2.627   2.727   2.823   3.143   3.394
 41 A    42 A    43 A    44 A    45 A    46 A    47 A    48 A                  
  Import AO data ...  CPU 0.00 s  wall 0.01 s
  Using point group: C1
  Irreducible representations in point group: A
  Molecular orbitals: 
  Occupied MOs:
  Block   0:   1 (  A) A   2 (  A) A   3 (  A) A   4 (  A) A   5 (  A) A
                  -11.24      -11.23       -1.03      -0.791     -0.6415
               6 (  A) A   7 (  A) A   8 (  A) A
                 -0.5804     -0.5066     -0.3722
  Block   1:   1 (  A) B   2 (  A) B   3 (  A) B   4 (  A) B   5 (  A) B
                  -11.24      -11.23       -1.03      -0.791     -0.6415
               6 (  A) B   7 (  A) B   8 (  A) B
                 -0.5804     -0.5066     -0.3722
  Virtual MOs:
  Block   0:   9 (  A) A  10 (  A) A  11 (  A) A  12 (  A) A  13 (  A) A
                  0.1667      0.2036      0.2335      0.2396      0.3028
              14 (  A) A  15 (  A) A  16 (  A) A  17 (  A) A  18 (  A) A
                  0.4603      0.5784      0.6154      0.6907      0.7096
              19 (  A) A  20 (  A) A  21 (  A) A  22 (  A) A
                  0.7829      0.8072      0.8638      0.9357
  Block   1:  23 (  A) A  24 (  A) A  25 (  A) A  26 (  A) A  27 (  A) A
                  0.9689        1.01       1.131       1.232       1.255
              28 (  A) A  29 (  A) A  30 (  A) A  31 (  A) A  32 (  A) A
                   1.263       1.292       1.604       1.725       1.749
              33 (  A) A  34 (  A) A  35 (  A) A  36 (  A) A
                   1.819       1.857       1.865       1.922
  Block   2:  37 (  A) A  38 (  A) A  39 (  A) A  40 (  A) A  41 (  A) A
                   1.976       1.981       2.217       2.253       2.376
              42 (  A) A  43 (  A) A  44 (  A) A  45 (  A) A  46 (  A) A
                   2.456       2.505       2.627       2.727       2.823
              47 (  A) A  48 (  A) A
                   3.143       3.394
  Block   3:   9 (  A) B  10 (  A) B  11 (  A) B  12 (  A) B  13 (  A) B
                  0.1667      0.2036      0.2335      0.2396      0.3028
              14 (  A) B  15 (  A) B  16 (  A) B  17 (  A) B  18 (  A) B
                  0.4603      0.5784      0.6154      0.6907      0.7096
              19 (  A) B  20 (  A) B  21 (  A) B  22 (  A) B
                  0.7829      0.8072      0.8638      0.9357
  Block   4:  23 (  A) B  24 (  A) B  25 (  A) B  26 (  A) B  27 (  A) B
                  0.9689        1.01       1.131       1.232       1.255
              28 (  A) B  29 (  A) B  30 (  A) B  31 (  A) B  32 (  A) B
                   1.263       1.292       1.604       1.725       1.749
              33 (  A) B  34 (  A) B  35 (  A) B  36 (  A) B
                   1.819       1.857       1.865       1.922
  Block   5:  37 (  A) B  38 (  A) B  39 (  A) B  40 (  A) B  41 (  A) B
                   1.976       1.981       2.217       2.253       2.376
              42 (  A) B  43 (  A) B  44 (  A) B  45 (  A) B  46 (  A) B
                   2.456       2.505       2.627       2.727       2.823
              47 (  A) B  48 (  A) B
                   3.143       3.394
  Import MO data ...  CPU 0.01 s  wall 0.02 s
  Import HF data ...  CPU 0.08 s  wall 0.05 s
  Import 2e integrals ...  CPU 0.66 s  wall 0.13 s

--------------------------------------------------------------------------------
                                   HF Summary                                   
--------------------------------------------------------------------------------
  Energy:                                                  -78.0395073380 a.u.
  Dip. moment [a.u.]:                  [  -0.001460,   -0.000638,    0.000088]
  Total dipole [Debye]:                                               0.004057
  <r^2> [a.u.]:                        [ 176.166986,   34.936234,   11.640493]
  Total <r^2> [a.u.]:                                               222.743713
--------------------------------------------------------------------------------
  HF properties ...  CPU 0.01 s  wall 0.01 s
  MP(1) calculation ...  CPU 0.01 s  wall 0.01 s
  N^6 prerequesite intermediates ...  CPU 0.51 s  wall 0.08 s
  Difference density matrix of state mp2_gs printed to ASCII file 'State_mp2_gs_Difference.txt'
Exporting MP density matrix to file 'Densmat_MP.txt'.
Export successful
  Total density matrix of state mp2_gs printed to ASCII file 'State_mp2_gs_Total.txt'
Exporting MP density matrix to file 'Densmat_MP.txt'.
Export successful

--------------------------------------------------------------------------------
                                 MP(2) Summary                                  
--------------------------------------------------------------------------------
  MP energy contribution:                                   -0.2800288923 a.u.
  Total energy:                                            -78.3195362303 a.u.
  Dip. moment [a.u.]:                  [  -0.001265,   -0.000421,    0.000108]
  Total dipole [Debye]:                                               0.003401
  <r^2> [a.u.]:                        [ 176.216447,   34.974003,   11.467875]
  Total <r^2> [a.u.]:                                               222.658326

  Density matrix analysis:
  ------------------------
  NOs
    Occupation of frontier NOs:
       0.0459   1.9377
    Number of electrons: 16.000000
    Number of unpaired electrons: n_u =  0.40485, n_u,nl =  0.04560
    NO participation ratio (PR_NO): 13.789390
  
  
  Mulliken Population Analysis
  Atom      Charge (e)              h+              e-           Del q
  --------------------------------------------------------------------
   1 H        0.051687        0.014004       -0.011219        0.002785
   2 C       -0.104057        0.093941       -0.099584       -0.005643
   3 H        0.050713        0.014103       -0.011194        0.002908
   4 C       -0.098512        0.093373       -0.099307       -0.005935
   5 H        0.050903        0.014100       -0.011177        0.002922
   6 H        0.049266        0.014144       -0.011182        0.002962
  --------------------------------------------------------------------
  Sum:       -0.000000        0.243664       -0.243664       -0.000000
  
  Multipole moment analysis of the density matrix
    Molecular charge:                      -0.000000
    Number of electrons:                   16.000000
      Center of electronic charge [Ang]: [ -1.564284,  -0.065588,   0.001975]
    Total nuclear charge:                  16.000000
      Center of nuclear charge [Ang]:    [ -1.564326,  -0.065602,   0.001978]
    Dipole moment [D]:                     0.003401
      Cartesian components [D]:          [ -0.003217,  -0.001070,   0.000273]
    RMS size of the density [Ang]:         1.202342
      Cartesian components [Ang]:        [  0.798196,   0.779619,   0.448000]
  
  Exciton analysis of the difference density matrix
    <r_h> [Ang]:                  [ -1.562939,  -0.065682,   0.002001]
    <r_e> [Ang]:                  [ -1.563362,  -0.066154,   0.001959]
    |<r_e - r_h>| [Ang]:            0.000636
    Hole size [Ang]:                1.395929
      Cartesian components [Ang]: [  0.846803,   0.835001,   0.730970]
    Electron size [Ang]:            1.359817
      Cartesian components [Ang]: [  0.878974,   0.860564,   0.579602]
--------------------------------------------------------------------------------
  MP(2) calculation ...  CPU 0.13 s  wall 0.12 s
  Start ADC(2)-s ...  CPU 0.01 s  wall 0.01 s
  ADC(2) intermediates ...  CPU 0.02 s  wall 0.01 s
  Starting Davidson for singlet states of irrep A ... 
--------------------------------------------------------------------------------
   It NVec Conv  Avg. Norm  Max. Norm  Conv. states           Remark
--------------------------------------------------------------------------------
        10    0  1.329e-01  4.678e-01  0.4104 n n n n n n n n Guess.
    1   20    0  2.340e-02  1.117e-01  0.3240 n n n n n n n n 
    2   30    0  6.171e-03  3.171e-02  0.3192 n n n n n n n n 
    3   40    0  2.239e-03  1.687e-02  0.3188 n n n n n n n n 
    4   50    0  6.768e-04  5.314e-03  0.3188 n n n n n n n n 
    5   20    0  3.185e-04  2.567e-03  0.3188 n n n n n n n n Subspace collapsed.
    6   30    0  3.121e-04  3.012e-03  0.3188 n n n n n n n n 
    7   40    0  2.734e-04  2.709e-03  0.3188 n n n n n n n n 
    8   50    0  2.156e-04  2.129e-03  0.3188 n n n n n n n n 
    9   20    2  2.274e-04  2.250e-03  0.3188 n y n y n n n n Subspace collapsed.
   10   30    5  2.206e-04  2.188e-03  0.3188 n y y y y y n n 
   11   40    5  1.904e-04  1.901e-03  0.3188 n y y y y y n n 
   12   50    5  2.817e-04  2.816e-03  0.3188 n y y y y y n n 
   13   20    7  1.232e-04  1.232e-03  0.3188 y y y y y y n y Subspace collapsed.
   14   30    7  1.256e-04  1.256e-03  0.3188 y y y y y y n y 
   15   40    8  1.036e-04  1.036e-03  0.3188 y y y y y y n y 
   16   50    8  1.477e-04  1.477e-03  0.3188 y y y y y y n y 
   17   20    8  7.432e-05  7.432e-04  0.3188 y y y y y y n y Subspace collapsed.
   18   30    8  5.954e-05  5.954e-04  0.3188 y y y y y y n y 
   19   40    8  6.239e-05  6.239e-04  0.3188 y y y y y y n y 
   20   50    9  7.163e-05  7.163e-04  0.3188 y y y y y y y y 
   21   19    9  4.163e-05  4.163e-04  0.3188 y y y y y y y y Subspace collapsed.
   22   28    9  3.753e-05  3.753e-04  0.3188 y y y y y y y y 
   23   37    9  3.887e-05  3.887e-04  0.3188 y y y y y y y y 
   24   45    9  3.608e-05  3.608e-04  0.3188 y y y y y y y y 
   25   50    9  4.173e-05  4.173e-04  0.3188 y y y y y y y y 
   26   16    9  1.730e-05  1.730e-04  0.3188 y y y y y y y y Subspace collapsed.
   27   21    9  1.655e-05  1.655e-04  0.3188 y y y y y y y y 
   28   26    9  1.014e-05  1.014e-04  0.3188 y y y y y y y y 
   29   30    9  1.083e-05  1.083e-04  0.3188 y y y y y y y y 
   30   34    9  1.172e-05  1.172e-04  0.3188 y y y y y y y y 
   31   38    9  9.846e-06  9.846e-05  0.3188 y y y y y y y y 
   32   42    9  8.089e-06  8.089e-05  0.3188 y y y y y y y y 
   33   46    9  5.457e-06  5.457e-05  0.3188 y y y y y y y y 
   34   50    9  3.254e-06  3.254e-05  0.3188 y y y y y y y y 
   35   14    9  1.140e-06  1.140e-05  0.3188 y y y y y y y y Subspace collapsed.
   36   18    9  8.923e-07  8.923e-06  0.3188 y y y y y y y y 
   37   22    9  4.560e-07  4.560e-06  0.3188 y y y y y y y y 
   38   26    9  3.281e-07  3.281e-06  0.3188 y y y y y y y y 
   39   30    9  2.358e-07  2.358e-06  0.3188 y y y y y y y y 
   40   34    9  1.461e-07  1.461e-06  0.3188 y y y y y y y y 
   41   37    9  1.459e-07  1.459e-06  0.3188 y y y y y y y y 
   42   40    9  1.371e-07  1.371e-06  0.3188 y y y y y y y y 
   43   43    9  1.453e-07  1.453e-06  0.3188 y y y y y y y y 
   44   43    9  1.453e-07  1.453e-06  0.3188 y y y y y y y y 
   45   50    9  1.425e-07  1.425e-06  0.3188 y y y y y y y y 
   46   12   10  7.376e-08  7.376e-07  0.3188 y y y y y y y y Converged.
--------------------------------------------------------------------------------
  Davidson Summary: 
 ------------------------------------------------------------
  State  0: excitation energy =   0.3188 a.u.   (converged)
  State  1: excitation energy =   0.3327 a.u.   (converged)
  State  2: excitation energy =   0.3359 a.u.   (converged)
  State  3: excitation energy =   0.3613 a.u.   (converged)
  State  4: excitation energy =   0.3735 a.u.   (converged)
  State  5: excitation energy =   0.3853 a.u.   (converged)
  State  6: excitation energy =   0.4262 a.u.   (converged)
  State  7: excitation energy =   0.4457 a.u.   (converged)
  State  8: excitation energy =   0.4549 a.u.   (converged)
  State  9: excitation energy =   0.4669 a.u.   (converged)
 ------------------------------------------------------------

  Singlet states of irrep A ...  CPU 99.57 s  wall 34.90 s
  TDMs ...  CPU 0.67 s  wall 0.28 s
  SDMs ...  CPU 1.47 s  wall 0.52 s
  Starting TPA DIIS iterations ... 
------------------------------------ 
   It     Res. Norm  Remark
------------------------------------
                       Guess.
    1     4.526e+00  
    2     6.027e+00  
    3     1.090e+00  
    4     2.594e-01  
    5     6.792e-02  
    6     2.694e-02  
    7     8.344e-03  
    8     1.401e-03  
    9     5.207e-04  
   10     8.850e-05  
   11     2.724e-05  
   12     4.312e-06  
   13     1.341e-06  
   14     4.259e-07  Converged.
   ... Converged in 14 steps (norm: 4.25859e-07)
------------------------------------
  Starting TPA DIIS iterations ... 
------------------------------------ 
   It     Res. Norm  Remark
------------------------------------
                       Guess.
    1     4.243e+00  
    2     5.650e+00  
    3     1.041e+00  
    4     2.623e-01  
    5     6.764e-02  
    6     2.748e-02  
    7     8.278e-03  
    8     1.466e-03  
    9     5.372e-04  
   10     9.062e-05  
   11     2.846e-05  
   12     4.369e-06  
   13     1.406e-06  
   14     4.286e-07  Converged.
   ... Converged in 14 steps (norm: 4.28612e-07)
------------------------------------
  Starting TPA DIIS iterations ... 
------------------------------------ 
   It     Res. Norm  Remark
------------------------------------
                       Guess.
    1     6.885e-01  
    2     4.844e-01  
    3     1.710e-01  
    4     6.311e-02  
    5     1.832e-02  
    6     6.588e-03  
    7     1.037e-03  
    8     4.394e-04  
    9     1.265e-04  
   10     2.489e-05  
   11     8.304e-06  
   12     2.602e-06  
   13     1.807e-06  
   14     7.670e-07  Converged.
   ... Converged in 14 steps (norm: 7.67035e-07)
------------------------------------
  Starting TPA DIIS iterations ... 
------------------------------------ 
   It     Res. Norm  Remark
------------------------------------
                       Guess.
    1     4.888e+00  
    2     6.680e+00  
    3     1.191e+00  
    4     2.948e-01  
    5     7.842e-02  
    6     3.139e-02  
    7     9.699e-03  
    8     1.625e-03  
    9     6.098e-04  
   10     1.043e-04  
   11     3.251e-05  
   12     5.199e-06  
   13     1.629e-06  
   14     5.194e-07  Converged.
   ... Converged in 14 steps (norm: 5.19446e-07)
------------------------------------
  Starting TPA DIIS iterations ... 
------------------------------------ 
   It     Res. Norm  Remark
------------------------------------
                       Guess.
    1     4.581e+00  
    2     6.261e+00  
    3     1.136e+00  
    4     2.978e-01  
    5     7.813e-02  
    6     3.208e-02  
    7     9.631e-03  
    8     1.703e-03  
    9     6.291e-04  
   10     1.068e-04  
   11     3.394e-05  
   12     5.259e-06  
   13     1.708e-06  
   14     5.223e-07  Converged.
   ... Converged in 14 steps (norm: 5.22321e-07)
------------------------------------
  Starting TPA DIIS iterations ... 
------------------------------------ 
   It     Res. Norm  Remark
------------------------------------
                       Guess.
    1     7.030e-01  
    2     5.055e-01  
    3     1.830e-01  
    4     7.344e-02  
    5     1.999e-02  
    6     7.340e-03  
    7     1.201e-03  
    8     5.333e-04  
    9     1.574e-04  
   10     2.824e-05  
   11     9.923e-06  
   12     3.193e-06  
   13     2.360e-06  
   14     1.019e-06  
   15     3.977e-07  Converged.
   ... Converged in 15 steps (norm: 3.97714e-07)
------------------------------------
  Starting TPA DIIS iterations ... 
------------------------------------ 
   It     Res. Norm  Remark
------------------------------------
                       Guess.
    1     4.976e+00  
    2     6.841e+00  
    3     1.215e+00  
    4     3.037e-01  
    5     8.106e-02  
    6     3.251e-02  
    7     1.004e-02  
    8     1.681e-03  
    9     6.323e-04  
   10     1.083e-04  
   11     3.385e-05  
   12     5.426e-06  
   13     1.704e-06  
   14     5.436e-07  Converged.
   ... Converged in 14 steps (norm: 5.43629e-07)
------------------------------------
  Starting TPA DIIS iterations ... 
------------------------------------ 
   It     Res. Norm  Remark
------------------------------------
                       Guess.
    1     4.663e+00  
    2     6.413e+00  
    3     1.159e+00  
    4     3.068e-01  
    5     8.076e-02  
    6     3.324e-02  
    7     9.971e-03  
    8     1.763e-03  
    9     6.524e-04  
   10     1.109e-04  
   11     3.533e-05  
   12     5.486e-06  
   13     1.787e-06  
   14     5.466e-07  Converged.
   ... Converged in 14 steps (norm: 5.46558e-07)
------------------------------------
  Starting TPA DIIS iterations ... 
------------------------------------ 
   It     Res. Norm  Remark
------------------------------------
                       Guess.
    1     7.064e-01  
    2     5.106e-01  
    3     1.859e-01  
    4     7.608e-02  
    5     2.040e-02  
    6     7.528e-03  
    7     1.242e-03  
    8     5.576e-04  
    9     1.653e-04  
   10     2.889e-05  
   11     1.034e-05  
   12     3.349e-06  
   13     2.509e-06  
   14     1.088e-06  
   15     4.232e-07  Converged.
   ... Converged in 15 steps (norm: 4.23214e-07)
------------------------------------
  Starting TPA DIIS iterations ... 
------------------------------------ 
   It     Res. Norm  Remark
------------------------------------
                       Guess.
    1     5.792e+00  
    2     8.375e+00  
    3     1.440e+00  
    4     3.908e-01  
    5     1.069e-01  
    6     4.361e-02  
    7     1.338e-02  
    8     2.228e-03  
    9     8.546e-04  
   10     1.478e-04  
   11     4.746e-05  
   12     7.721e-06  
   13     2.474e-06  
   14     7.942e-07  Converged.
   ... Converged in 14 steps (norm: 7.94196e-07)
------------------------------------
  Starting TPA DIIS iterations ... 
------------------------------------ 
   It     Res. Norm  Remark
------------------------------------
                       Guess.
    1     5.426e+00  
    2     7.850e+00  
    3     1.373e+00  
    4     3.941e-01  
    5     1.066e-01  
    6     4.474e-02  
    7     1.331e-02  
    8     2.344e-03  
    9     8.815e-04  
   10     1.514e-04  
   11     4.940e-05  
   12     7.778e-06  
   13     2.590e-06  
   14     7.984e-07  Converged.
   ... Converged in 14 steps (norm: 7.98422e-07)
------------------------------------
  Starting TPA DIIS iterations ... 
------------------------------------ 
   It     Res. Norm  Remark
------------------------------------
                       Guess.
    1     7.346e-01  
    2     5.545e-01  
    3     2.120e-01  
    4     1.027e-01  
    5     2.414e-02  
    6     9.386e-03  
    7     1.670e-03  
    8     8.002e-04  
    9     2.441e-04  
   10     3.253e-05  
   11     1.463e-05  
   12     5.046e-06  
   13     4.174e-06  
   14     1.886e-06  
   15     6.872e-07  Converged.
   ... Converged in 15 steps (norm: 6.8722e-07)
------------------------------------
  Starting TPA DIIS iterations ... 
------------------------------------ 
   It     Res. Norm  Remark
------------------------------------
                       Guess.
    1     6.266e+00  
    2     9.296e+00  
    3     1.569e+00  
    4     4.449e-01  
    5     1.230e-01  
    6     5.059e-02  
    7     1.546e-02  
    8     2.567e-03  
    9     9.944e-04  
   10     1.726e-04  
   11     5.620e-05  
   12     9.197e-06  
   13     2.982e-06  
   14     9.627e-07  Converged.
   ... Converged in 14 steps (norm: 9.62656e-07)
------------------------------------
  Starting TPA DIIS iterations ... 
------------------------------------ 
   It     Res. Norm  Remark
------------------------------------
                       Guess.
    1     5.869e+00  
    2     8.712e+00  
    3     1.496e+00  
    4     4.483e-01  
    5     1.227e-01  
    6     5.198e-02  
    7     1.538e-02  
    8     2.704e-03  
    9     1.025e-03  
   10     1.769e-04  
   11     5.838e-05  
   12     9.245e-06  
   13     3.118e-06  
   14     9.685e-07  Converged.
   ... Converged in 14 steps (norm: 9.68512e-07)
------------------------------------
  Starting TPA DIIS iterations ... 
------------------------------------ 
   It     Res. Norm  Remark
------------------------------------
                       Guess.
    1     7.491e-01  
    2     5.783e-01  
    3     2.266e-01  
    4     1.198e-01  
    5     2.636e-02  
    6     1.055e-02  
    7     1.950e-03  
    8     9.456e-04  
    9     2.912e-04  
   10     3.406e-05  
   11     1.751e-05  
   12     6.254e-06  
   13     5.385e-06  
   14     2.478e-06  
   15     8.750e-07  Converged.
   ... Converged in 15 steps (norm: 8.74952e-07)
------------------------------------
  Starting TPA DIIS iterations ... 
------------------------------------ 
   It     Res. Norm  Remark
------------------------------------
                       Guess.
    1     6.786e+00  
    2     1.033e+01  
    3     1.711e+00  
    4     5.071e-01  
    5     1.414e-01  
    6     5.867e-02  
    7     1.784e-02  
    8     2.955e-03  
    9     1.156e-03  
   10     2.013e-04  
   11     6.641e-05  
   12     1.092e-05  
   13     3.585e-06  
   14     1.169e-06  
   15     3.827e-07  Converged.
   ... Converged in 15 steps (norm: 3.82741e-07)
------------------------------------
  Starting TPA DIIS iterations ... 
------------------------------------ 
   It     Res. Norm  Remark
------------------------------------
                       Guess.
    1     6.354e+00  
    2     9.681e+00  
    3     1.630e+00  
    4     5.105e-01  
    5     1.411e-01  
    6     6.038e-02  
    7     1.777e-02  
    8     3.116e-03  
    9     1.192e-03  
   10     2.063e-04  
   11     6.884e-05  
   12     1.095e-05  
   13     3.740e-06  
   14     1.177e-06  
   15     4.076e-07  Converged.
   ... Converged in 15 steps (norm: 4.07576e-07)
------------------------------------
  Starting TPA DIIS iterations ... 
------------------------------------ 
   It     Res. Norm  Remark
------------------------------------
                       Guess.
    1     7.635e-01  
    2     6.033e-01  
    3     2.422e-01  
    4     1.398e-01  
    5     2.887e-02  
    6     1.189e-02  
    7     2.283e-03  
    8     1.100e-03  
    9     3.423e-04  
   10     3.669e-05  
   11     2.102e-05  
   12     7.789e-06  
   13     6.936e-06  
   14     3.234e-06  
   15     1.126e-06  
   16     4.921e-07  Converged.
   ... Converged in 16 steps (norm: 4.92144e-07)
------------------------------------
  Starting TPA DIIS iterations ... 
------------------------------------ 
   It     Res. Norm  Remark
------------------------------------
                       Guess.
    1     9.260e+00  
    2     1.557e+01  
    3     2.371e+00  
    4     8.360e-01  
    5     2.394e-01  
    6     1.024e-01  
    7     3.049e-02  
    8     4.999e-03  
    9     2.031e-03  
   10     3.557e-04  
   11     1.216e-04  
   12     2.035e-05  
   13     6.928e-06  
   14     2.508e-06  
   15     8.062e-07  Converged.
   ... Converged in 15 steps (norm: 8.06188e-07)
------------------------------------
  Starting TPA DIIS iterations ... 
------------------------------------ 
   It     Res. Norm  Remark
------------------------------------
                       Guess.
    1     8.669e+00  
    2     1.459e+01  
    3     2.256e+00  
    4     8.389e-01  
    5     2.393e-01  
    6     1.060e-01  
    7     3.043e-02  
    8     5.291e-03  
    9     2.088e-03  
   10     3.643e-04  
   11     1.245e-04  
   12     2.023e-05  
   13     7.127e-06  
   14     2.533e-06  
   15     8.974e-07  Converged.
   ... Converged in 15 steps (norm: 8.97374e-07)
------------------------------------
  Starting TPA DIIS iterations ... 
------------------------------------ 
   It     Res. Norm  Remark
------------------------------------
                       Guess.
    1     8.189e-01  
    2     7.088e-01  
    3     3.118e-01  
    4     2.452e-01  
    5     4.182e-02  
    6     1.888e-02  
    7     4.179e-03  
    8     1.625e-03  
    9     5.674e-04  
   10     6.879e-05  
   11     4.261e-05  
   12     1.845e-05  
   13     1.784e-05  
   14     8.236e-06  
   15     3.162e-06  
   16     1.354e-06  
   17     2.913e-07  Converged.
   ... Converged in 17 steps (norm: 2.91307e-07)
------------------------------------
  Starting TPA DIIS iterations ... 
------------------------------------ 
   It     Res. Norm  Remark
------------------------------------
                       Guess.
    1     1.099e+01  
    2     1.950e+01  
    3     2.819e+00  
    4     1.090e+00  
    5     3.159e-01  
    6     1.373e-01  
    7     4.035e-02  
    8     6.583e-03  
    9     2.728e-03  
   10     4.774e-04  
   11     1.639e-04  
   12     2.789e-05  
   13     9.544e-06  
   14     3.843e-06  
   15     1.215e-06  
   16     7.593e-07  Converged.
   ... Converged in 16 steps (norm: 7.59298e-07)
------------------------------------
  Starting TPA DIIS iterations ... 
------------------------------------ 
   It     Res. Norm  Remark
------------------------------------
                       Guess.
    1     1.028e+01  
    2     1.828e+01  
    3     2.680e+00  
    4     1.092e+00  
    5     3.160e-01  
    6     1.425e-01  
    7     4.031e-02  
    8     6.976e-03  
    9     2.799e-03  
   10     4.885e-04  
   11     1.666e-04  
   12     2.768e-05  
   13     9.763e-06  
   14     3.865e-06  
   15     1.390e-06  
   16     8.064e-07  Converged.
   ... Converged in 16 steps (norm: 8.06392e-07)
------------------------------------
  Starting TPA DIIS iterations ... 
------------------------------------ 
   It     Res. Norm  Remark
------------------------------------
                       Guess.
    1     8.487e-01  
    2     7.732e-01  
    3     3.565e-01  
    4     3.205e-01  
    5     5.162e-02  
    6     2.397e-02  
    7     5.706e-03  
    8     1.793e-03  
    9     7.100e-04  
   10     1.005e-04  
   11     6.209e-05  
   12     2.935e-05  
   13     2.939e-05  
   14     1.292e-05  
   15     5.391e-06  
   16     2.169e-06  
   17     4.499e-07  Converged.
   ... Converged in 17 steps (norm: 4.49856e-07)
------------------------------------
  Starting TPA DIIS iterations ... 
------------------------------------ 
   It     Res. Norm  Remark
------------------------------------
                       Guess.
    1     1.199e+01  
    2     2.188e+01  
    3     3.074e+00  
    4     1.244e+00  
    5     3.630e-01  
    6     1.590e-01  
    7     4.641e-02  
    8     7.553e-03  
    9     3.161e-03  
   10     5.522e-04  
   11     1.892e-04  
   12     3.263e-05  
   13     1.117e-05  
   14     4.779e-06  
   15     1.524e-06  
   16     1.023e-06  
   17     3.468e-07  Converged.
   ... Converged in 17 steps (norm: 3.46802e-07)
------------------------------------
  Starting TPA DIIS iterations ... 
------------------------------------ 
   It     Res. Norm  Remark
------------------------------------
                       Guess.
    1     1.122e+01  
    2     2.050e+01  
    3     2.922e+00  
    4     1.245e+00  
    5     3.632e-01  
    6     1.653e-01  
    7     4.638e-02  
    8     8.008e-03  
    9     3.240e-03  
   10     5.648e-04  
   11     1.917e-04  
   12     3.240e-05  
   13     1.143e-05  
   14     4.791e-06  
   15     1.760e-06  
   16     1.071e-06  
   17     2.282e-07  Converged.
   ... Converged in 17 steps (norm: 2.28197e-07)
------------------------------------
  Starting TPA DIIS iterations ... 
------------------------------------ 
   It     Res. Norm  Remark
------------------------------------
                       Guess.
    1     8.637e-01  
    2     8.082e-01  
    3     3.814e-01  
    4     3.620e-01  
    5     5.750e-02  
    6     2.685e-02  
    7     6.636e-03  
    8     1.850e-03  
    9     7.895e-04  
   10     1.200e-04  
   11     7.493e-05  
   12     3.699e-05  
   13     3.792e-05  
   14     1.604e-05  
   15     6.971e-06  
   16     2.709e-06  
   17     5.550e-07  Converged.
   ... Converged in 17 steps (norm: 5.54958e-07)
------------------------------------
  Starting TPA DIIS iterations ... 
------------------------------------ 
   It     Res. Norm  Remark
------------------------------------
                       Guess.
    1     1.352e+01  
    2     2.565e+01  
    3     3.460e+00  
    4     1.489e+00  
    5     4.384e-01  
    6     1.942e-01  
    7     5.613e-02  
    8     9.106e-03  
    9     3.861e-03  
   10     6.725e-04  
   11     2.292e-04  
   12     4.046e-05  
   13     1.388e-05  
   14     6.449e-06  
   15     2.140e-06  
   16     1.534e-06  
   17     5.182e-07  Converged.
   ... Converged in 17 steps (norm: 5.18232e-07)
------------------------------------
  Starting TPA DIIS iterations ... 
------------------------------------ 
   It     Res. Norm  Remark
------------------------------------
                       Guess.
    1     1.266e+01  
    2     2.404e+01  
    3     3.288e+00  
    4     1.487e+00  
    5     4.389e-01  
    6     2.021e-01  
    7     5.612e-02  
    8     9.660e-03  
    9     3.951e-03  
   10     6.872e-04  
   11     2.313e-04  
   12     4.026e-05  
   13     1.427e-05  
   14     6.438e-06  
   15     2.472e-06  
   16     1.569e-06  
   17     3.339e-07  Converged.
   ... Converged in 17 steps (norm: 3.33862e-07)
------------------------------------
  Starting TPA DIIS iterations ... 
------------------------------------ 
   It     Res. Norm  Remark
------------------------------------
                       Guess.
    1     8.845e-01  
    2     8.593e-01  
    3     4.180e-01  
    4     4.204e-01  
    5     6.673e-02  
    6     3.103e-02  
    7     8.099e-03  
    8     1.921e-03  
    9     9.088e-04  
   10     1.505e-04  
   11     9.668e-05  
   12     5.051e-05  
   13     5.405e-05  
   14     2.134e-05  
   15     9.804e-06  
   16     3.627e-06  
   17     7.404e-07  Converged.
   ... Converged in 17 steps (norm: 7.40369e-07)
------------------------------------
  Two-photon absorbption ...  CPU 73.92 s  wall 18.35 s
  Transition density matrix of state singlet_A_1 printed to ASCII file 'State_singlet_A_1_Transition.txt'
  Transition density matrix of state singlet_A_2 printed to ASCII file 'State_singlet_A_2_Transition.txt'
  Transition density matrix of state singlet_A_3 printed to ASCII file 'State_singlet_A_3_Transition.txt'
  Transition density matrix of state singlet_A_4 printed to ASCII file 'State_singlet_A_4_Transition.txt'
  Transition density matrix of state singlet_A_5 printed to ASCII file 'State_singlet_A_5_Transition.txt'
  Transition density matrix of state singlet_A_6 printed to ASCII file 'State_singlet_A_6_Transition.txt'
  Transition density matrix of state singlet_A_7 printed to ASCII file 'State_singlet_A_7_Transition.txt'
  Transition density matrix of state singlet_A_8 printed to ASCII file 'State_singlet_A_8_Transition.txt'
  Transition density matrix of state singlet_A_9 printed to ASCII file 'State_singlet_A_9_Transition.txt'
  Transition density matrix of state singlet_A_10 printed to ASCII file 'State_singlet_A_10_Transition.txt'
  Transition properties ...  CPU 0.16 s  wall 0.57 s
  Difference density matrix of state singlet_A_1 printed to ASCII file 'State_singlet_A_1_Difference.txt'
  Total density matrix of state singlet_A_1 printed to ASCII file 'State_singlet_A_1_Total.txt'
  Difference density matrix of state singlet_A_2 printed to ASCII file 'State_singlet_A_2_Difference.txt'
  Total density matrix of state singlet_A_2 printed to ASCII file 'State_singlet_A_2_Total.txt'
  Difference density matrix of state singlet_A_3 printed to ASCII file 'State_singlet_A_3_Difference.txt'
  Total density matrix of state singlet_A_3 printed to ASCII file 'State_singlet_A_3_Total.txt'
  Difference density matrix of state singlet_A_4 printed to ASCII file 'State_singlet_A_4_Difference.txt'
  Total density matrix of state singlet_A_4 printed to ASCII file 'State_singlet_A_4_Total.txt'
  Difference density matrix of state singlet_A_5 printed to ASCII file 'State_singlet_A_5_Difference.txt'
  Total density matrix of state singlet_A_5 printed to ASCII file 'State_singlet_A_5_Total.txt'
  Difference density matrix of state singlet_A_6 printed to ASCII file 'State_singlet_A_6_Difference.txt'
  Total density matrix of state singlet_A_6 printed to ASCII file 'State_singlet_A_6_Total.txt'
  Difference density matrix of state singlet_A_7 printed to ASCII file 'State_singlet_A_7_Difference.txt'
  Total density matrix of state singlet_A_7 printed to ASCII file 'State_singlet_A_7_Total.txt'
  Difference density matrix of state singlet_A_8 printed to ASCII file 'State_singlet_A_8_Difference.txt'
  Total density matrix of state singlet_A_8 printed to ASCII file 'State_singlet_A_8_Total.txt'
  Difference density matrix of state singlet_A_9 printed to ASCII file 'State_singlet_A_9_Difference.txt'
  Total density matrix of state singlet_A_9 printed to ASCII file 'State_singlet_A_9_Total.txt'
  Difference density matrix of state singlet_A_10 printed to ASCII file 'State_singlet_A_10_Difference.txt'
  Total density matrix of state singlet_A_10 printed to ASCII file 'State_singlet_A_10_Total.txt'
  Properties ...  CPU 0.30 s  wall 0.66 s
  ISR TDMS ...  CPU 8.88 s  wall 3.15 s
  ISR transition properties ...  CPU 0.17 s  wall 0.08 s
  Sum-over-states TPA ...  CPU 0.00 s  wall 0.00 s

--------------------------------------------------------------------------------
                   State-averaged natural transition orbitals
--------------------------------------------------------------------------------
--------------------------------------------------------------------------------
  SA-NTO decomposition ...  CPU 0.01 s  wall 0.02 s

--------------------------------------------------------------------------------
                             Excited State Summary
--------------------------------------------------------------------------------
--------------------------------------------------------------------------------

  Excited state 1 (singlet, A)                                     [converged]
  ----------------------------------------------------------------------------
  Term symbol:  2 (1) A                                     R^2 =  9.14884e-14

  Total energy:                                            -78.0007683176 a.u.
  Excitation energy:                                               8.674116 eV

  Osc. strength:                                                      0.442358
  Trans. dip. moment [a.u.]:           [  -1.047209,    0.992384,    0.009687]
  <i|r^2|0> [a.u.]:                    [  -6.185195,    0.242625,    0.000579]
  Two-photon absorption cross-section (SoS) [a.u.]:                   0.001743
  Two-photon absorption matrix (SoS) [a.u.]:
                                       |    0.011252    0.010608    0.001568 |
                                       |    0.010608   -0.000694    0.000787 |
                                       |    0.001568    0.000787   -0.008709 |
  Two-photon absorption cross-section [a.u.]:                         0.001307
  Two-photon absorption matrix [a.u.]:
                                       |    0.005920    0.006031    0.000105 |
                                       |    0.006031   -0.006801   -0.001345 |
                                       |    0.000105   -0.001345   -0.010312 |

  Dip. moment [a.u.]:                  [  -0.001120,   -0.000268,    0.000167]
  Total dipole [Debye]:                                               0.002957
  <r^2> [a.u.]:                        [ 176.976060,   35.653490,   11.867243]
  Total <r^2> [a.u.]:                                               224.496793

  V1^2 = 0.9715, V2^2 = 0.0285

  Important amplitudes:
      occ i     occ j     vir a      vir b          v   
    -----------------------------------------------------
     8 (A) A              9 (A) A                 0.6810
     6 (A) A             14 (A) A                -0.0638
     4 (A) A             10 (A) A                 0.0600
     7 (A) A             16 (A) A                 0.0563
     5 (A) A             13 (A) A                 0.0508
     6 (A) A             23 (A) A                -0.0486
     8 (A) A             20 (A) A                 0.0352
     6 (A) A             19 (A) A                -0.0321
     3 (A) A             12 (A) A                -0.0282
     7 (A) A             11 (A) A                 0.0216
     5 (A) A             22 (A) A                 0.0212
     4 (A) A             24 (A) A                 0.0186
     3 (A) A             26 (A) A                -0.0184
     8 (A) A   8 (A) B   17 (A) A   20 (A) B     -0.0184
     8 (A) A   8 (A) B    9 (A) A   28 (A) B      0.0168
     6 (A) A             26 (A) A                 0.0161
     7 (A) A             21 (A) A                -0.0148
     3 (A) A             14 (A) A                 0.0140
     3 (A) A   4 (A) B    9 (A) A    9 (A) B     -0.0129
     3 (A) A             19 (A) A                 0.0121
     6 (A) A             12 (A) A                -0.0118
     8 (A) A   8 (A) B   18 (A) A   19 (A) B     -0.0113
     7 (A) A             32 (A) A                -0.0096
     7 (A) A             36 (A) A                 0.0085
     3 (A) A             23 (A) A                 0.0080
     8 (A) A   8 (A) B   25 (A) A   29 (A) B     -0.0076
     6 (A) A             35 (A) A                -0.0073
     6 (A) A             40 (A) A                 0.0068
     3 (A) A   6 (A) B    9 (A) A   28 (A) B     -0.0065
     6 (A) A   8 (A) A   19 (A) A   28 (A) A      0.0062
     5 (A) A   7 (A) B    9 (A) A    9 (A) B      0.0060
     5 (A) A   8 (A) B   11 (A) A   20 (A) B      0.0059
     7 (A) A   8 (A) B   13 (A) A   20 (A) B      0.0059
     5 (A) A   8 (A) B   16 (A) A    9 (A) B      0.0059
     3 (A) A   5 (A) B    9 (A) A   25 (A) B     -0.0058
     6 (A) A   8 (A) A    9 (A) A   18 (A) A      0.0057
     5 (A) A   8 (A) B   11 (A) A    9 (A) B     -0.0057
     7 (A) A   8 (A) B   22 (A) A   20 (A) B      0.0057
     3 (A) A             40 (A) A                -0.0057
     8 (A) A   8 (A) B   19 (A) A   30 (A) B     -0.0056
    -----------------------------------------------------

  Density matrix analysis:
  ------------------------
  NOs
    Occupation of frontier NOs:
       0.9494   1.0217
    Number of electrons: 16.000000
    Number of unpaired electrons: n_u =  2.31365, n_u,nl =  2.03286
    NO participation ratio (PR_NO):  2.864900
  
  
  Mulliken Population Analysis
  Atom      Charge (e)              h+              e-           Del q
  --------------------------------------------------------------------
   1 H        0.059294        0.020068       -0.012460        0.007607
   2 C       -0.118977        0.490318       -0.505238       -0.014920
   3 H        0.057931        0.019822       -0.012603        0.007218
   4 C       -0.113178        0.490319       -0.504985       -0.014666
   5 H        0.058166        0.019868       -0.012606        0.007262
   6 H        0.056764        0.020011       -0.012513        0.007498
  --------------------------------------------------------------------
  Sum:        0.000000        1.060405       -1.060405        0.000000
  
  Multipole moment analysis of the density matrix
    Molecular charge:                      0.000000
    Number of electrons:                   16.000000
      Center of electronic charge [Ang]: [ -1.564289,  -0.065593,   0.001973]
    Total nuclear charge:                  16.000000
      Center of nuclear charge [Ang]:    [ -1.564326,  -0.065602,   0.001978]
    Dipole moment [D]:                     0.002957
      Cartesian components [D]:          [ -0.002847,  -0.000680,   0.000425]
    RMS size of the density [Ang]:         1.215643
      Cartesian components [Ang]:        [  0.806471,   0.787208,   0.455735]
  
  Exciton analysis of the difference density matrix
    <r_h> [Ang]:                  [ -1.564814,  -0.065713,   0.001839]
    <r_e> [Ang]:                  [ -1.564887,  -0.065790,   0.001810]
    |<r_e - r_h>| [Ang]:            0.000110
    Hole size [Ang]:                1.286367
      Cartesian components [Ang]: [  0.730136,   0.711843,   0.784170]
    Electron size [Ang]:            1.462874
      Cartesian components [Ang]: [  0.856427,   0.828340,   0.848756]

  Transition density matrix analysis:
  -----------------------------------
  
  CT numbers (Mulliken)
    omega =     0.9535
    <Phe> =    -0.1626
  
  Exciton analysis of the transition density matrix
    Trans. dipole moment [D]:             1.833569
      Cartesian components [D]:         [ -1.330869,   1.261194,   0.012311]
    <r_h> [Ang]:                        [ -1.565110,  -0.065673,   0.001851]
    <r_e> [Ang]:                        [ -1.564824,  -0.065779,   0.001800]
    |<r_e - r_h>| [Ang]:                  0.000309
    Hole size [Ang]:                      1.216901
      Cartesian components [Ang]:       [  0.652797,   0.637218,   0.805393]
    Electron size [Ang]:                  1.484797
      Cartesian components [Ang]:       [  0.866521,   0.836678,   0.868178]
    RMS electron-hole separation [Ang]:   1.938733
      Cartesian components [Ang]:       [  1.111983,   1.073797,   1.170102]
    Covariance(r_h, r_e) [Ang^2]:        -0.036607
    Correlation coefficient:             -0.020260
    Center-of-mass size [Ang]:            0.950297
      Cartesian components [Ang]:       [  0.528559,   0.514566,   0.599092]

  Decomposition into state-averaged NTOs
    H- 0 -> L+ 0: -0.6698 ( 89.7%)
    H- 2 -> L+ 5:  0.0851 (  1.4%)
    H- 5 -> L+ 6: -0.0711 (  1.0%)
                   omega =  95.4%
  ----------------------------------------------------------------------------


  Excited state 2 (singlet, A)                                     [converged]
  ----------------------------------------------------------------------------
  Term symbol:  3 (1) A                                     R^2 =  1.71007e-13

  Total energy:                                            -77.9867985092 a.u.
  Excitation energy:                                               9.054254 eV

  Osc. strength:                                                      0.000103
  Trans. dip. moment [a.u.]:           [   0.003644,   -0.001438,   -0.021178]
  <i|r^2|0> [a.u.]:                    [  -0.038096,   -0.091157,    0.150573]
  Two-photon absorption cross-section (SoS) [a.u.]:                   5.039170
  Two-photon absorption matrix (SoS) [a.u.]:
                                       |   -0.049246   -0.059205    0.528398 |
                                       |   -0.059205   -0.070632    0.579916 |
                                       |    0.528398    0.579916    0.119808 |
  Two-photon absorption cross-section [a.u.]:                         0.092310
  Two-photon absorption matrix [a.u.]:
                                       |    0.004007    0.006422   -0.024016 |
                                       |    0.006422    0.010708   -0.103675 |
                                       |   -0.024016   -0.103675   -0.014618 |

  Dip. moment [a.u.]:                  [  -0.015778,   -0.035892,   -0.002438]
  Total dipole [Debye]:                                               0.099846
  <r^2> [a.u.]:                        [ 175.461517,   33.876050,   13.169195]
  Total <r^2> [a.u.]:                                               222.506762

  V1^2 = 0.9540, V2^2 = 0.0460

  Important amplitudes:
      occ i     occ j     vir a      vir b          v   
    -----------------------------------------------------
     7 (A) A              9 (A) A                -0.6680
     8 (A) A             11 (A) A                -0.1478
     7 (A) A             20 (A) A                -0.0756
     8 (A) A             10 (A) A                 0.0404
     5 (A) A   8 (A) B    9 (A) A    9 (A) B     -0.0319
     8 (A) A             16 (A) A                 0.0272
     8 (A) A             21 (A) A                 0.0176
     5 (A) A             28 (A) A                 0.0150
     4 (A) A   7 (A) B    9 (A) A   19 (A) B      0.0135
     5 (A) A   7 (A) B    9 (A) A   16 (A) B      0.0133
     7 (A) A   8 (A) B   20 (A) A   17 (A) B      0.0105
     7 (A) A   8 (A) A    9 (A) A   28 (A) A      0.0097
     5 (A) A   8 (A) B    9 (A) A   20 (A) B     -0.0095
     5 (A) A   6 (A) A    9 (A) A   23 (A) A     -0.0091
     4 (A) A   6 (A) B    9 (A) A   16 (A) B     -0.0091
     6 (A) A              9 (A) A                -0.0090
     5 (A) A   6 (A) A    9 (A) A   14 (A) A     -0.0090
     5 (A) A   6 (A) B    9 (A) A   19 (A) B     -0.0088
     8 (A) A   7 (A) B    9 (A) A   28 (A) B     -0.0085
     4 (A) A   5 (A) A    9 (A) A   10 (A) A     -0.0084
     6 (A) A   7 (A) B    9 (A) A   18 (A) B     -0.0082
     5 (A) A   6 (A) B    9 (A) A   23 (A) B     -0.0080
     3 (A) A   7 (A) B    9 (A) A   18 (A) B     -0.0080
     5 (A) A   7 (A) A    9 (A) A   16 (A) A      0.0079
     4 (A) A   8 (A) B    9 (A) A   25 (A) B     -0.0077
     8 (A) A             12 (A) A                 0.0075
     7 (A) A   8 (A) B   17 (A) A   20 (A) B      0.0074
     4 (A) A   7 (A) B   19 (A) A    9 (A) B      0.0073
     5 (A) A   5 (A) B    9 (A) A   13 (A) B      0.0072
     7 (A) A   8 (A) B   19 (A) A   18 (A) B      0.0072
     5 (A) A   8 (A) A    9 (A) A   20 (A) A     -0.0069
     4 (A) A   5 (A) B    9 (A) A   18 (A) B      0.0067
     7 (A) A   8 (A) B   17 (A) A    9 (A) B      0.0066
     5 (A) A   6 (A) B    9 (A) A   14 (A) B     -0.0065
     7 (A) A   7 (A) B   20 (A) A   22 (A) B     -0.0065
     4 (A) A   7 (A) A    9 (A) A   19 (A) A      0.0061
     4 (A) A   5 (A) B   10 (A) A    9 (A) B      0.0061
     5 (A) A   7 (A) B   11 (A) A   20 (A) B     -0.0060
     4 (A) A   7 (A) B    9 (A) A   14 (A) B     -0.0059
     6 (A) A   7 (A) A   19 (A) A   28 (A) A     -0.0058
    -----------------------------------------------------

  Density matrix analysis:
  ------------------------
  NOs
    Occupation of frontier NOs:
       0.9551   1.0570
    Number of electrons: 16.000000
    Number of unpaired electrons: n_u =  2.35604, n_u,nl =  2.06514
    NO participation ratio (PR_NO):  3.046914
  
  
  Mulliken Population Analysis
  Atom      Charge (e)              h+              e-           Del q
  --------------------------------------------------------------------
   1 H        0.139314        0.118828       -0.031201        0.087627
   2 C       -0.301906        0.274373       -0.472222       -0.197849
   3 H        0.163842        0.131861       -0.018732        0.113129
   4 C       -0.296861        0.270913       -0.469262       -0.198349
   5 H        0.151201        0.133492       -0.033195        0.100297
   6 H        0.144410        0.112675       -0.017531        0.095144
  --------------------------------------------------------------------
  Sum:       -0.000000        1.042142       -1.042142       -0.000000
  
  Multipole moment analysis of the density matrix
    Molecular charge:                      -0.000000
    Number of electrons:                   16.000000
      Center of electronic charge [Ang]: [ -1.563804,  -0.064415,   0.002059]
    Total nuclear charge:                  16.000000
      Center of nuclear charge [Ang]:    [ -1.564326,  -0.065602,   0.001978]
    Dipole moment [D]:                     0.099846
      Cartesian components [D]:          [ -0.040104,  -0.091227,  -0.006196]
    RMS size of the density [Ang]:         1.201926
      Cartesian components [Ang]:        [  0.790826,   0.767295,   0.480083]
  
  Exciton analysis of the difference density matrix
    <r_h> [Ang]:                  [ -1.553009,  -0.064817,   0.002596]
    <r_e> [Ang]:                  [ -1.545640,  -0.046806,   0.003888]
    |<r_e - r_h>| [Ang]:            0.019503
    Hole size [Ang]:                1.485549
      Cartesian components [Ang]: [  0.979948,   1.018978,   0.456334]
    Electron size [Ang]:            1.480191
      Cartesian components [Ang]: [  0.883334,   0.863309,   0.815711]

  Transition density matrix analysis:
  -----------------------------------
  
  CT numbers (Mulliken)
    omega =     0.9213
    <Phe> =    -0.0123
  
  Exciton analysis of the transition density matrix
    Trans. dipole moment [D]:             0.027371
      Cartesian components [D]:         [  0.004631,  -0.001827,  -0.026915]
    <r_h> [Ang]:                        [ -1.552422,  -0.065892,   0.002582]
    <r_e> [Ang]:                        [ -1.545265,  -0.044742,   0.003998]
    |<r_e - r_h>| [Ang]:                  0.022373
    Hole size [Ang]:                      1.512725
      Cartesian components [Ang]:       [  0.999475,   1.044467,   0.445506]
    Electron size [Ang]:                  1.477569
      Cartesian components [Ang]:       [  0.875057,   0.852517,   0.831084]
    RMS electron-hole separation [Ang]:   2.095098
      Cartesian components [Ang]:       [  1.312849,   1.333452,   0.942214]
    Covariance(r_h, r_e) [Ang^2]:         0.041307
    Correlation coefficient:              0.018481
    Center-of-mass size [Ang]:            1.067024
      Cartesian components [Ang]:       [  0.671906,   0.681496,   0.471855]

  Decomposition into state-averaged NTOs
    H- 1 -> L+ 0:  0.6602 ( 87.2%)
    H- 0 -> L+ 2: -0.1488 (  4.4%)
                   omega =  92.1%
  ----------------------------------------------------------------------------


  Excited state 3 (singlet, A)                                     [converged]
  ----------------------------------------------------------------------------
  Term symbol:  4 (1) A                                     R^2 =  1.78933e-13

  Total energy:                                            -77.9836497300 a.u.
  Excitation energy:                                               9.139937 eV

  Osc. strength:                                                      0.025267
  Trans. dip. moment [a.u.]:           [   0.015861,    0.019921,   -0.334944]
  <i|r^2|0> [a.u.]:                    [   0.098243,    0.008511,   -0.005778]
  Two-photon absorption cross-section (SoS) [a.u.]:                   0.002111
  Two-photon absorption matrix (SoS) [a.u.]:
                                       |    0.009650   -0.000055    0.012092 |
                                       |   -0.000055   -0.010193   -0.003890 |
                                       |    0.012092   -0.003890    0.002493 |
  Two-photon absorption cross-section [a.u.]:                         0.009897
  Two-photon absorption matrix [a.u.]:
                                       |    0.006129   -0.002449    0.024969 |
                                       |   -0.002449   -0.009754    0.022807 |
                                       |    0.024969    0.022807    0.006229 |

  Dip. moment [a.u.]:                  [  -0.048868,   -0.004362,   -0.002833]
  Total dipole [Debye]:                                               0.124912
  <r^2> [a.u.]:                        [ 181.373123,   40.618048,   11.042264]
  Total <r^2> [a.u.]:                                               233.033435

  V1^2 = 0.9589, V2^2 = 0.0411

  Important amplitudes:
      occ i     occ j     vir a      vir b          v   
    -----------------------------------------------------
     8 (A) A             10 (A) A                 0.6879
     8 (A) A             24 (A) A                 0.0505
     7 (A) A              9 (A) A                 0.0409
     8 (A) A             18 (A) A                -0.0310
     4 (A) A              9 (A) A                 0.0237
     8 (A) A   8 (A) B    9 (A) A   12 (A) B     -0.0220
     8 (A) A             15 (A) A                 0.0174
     8 (A) A   8 (A) B   10 (A) A   17 (A) B      0.0171
     5 (A) A   8 (A) B   11 (A) A   10 (A) B     -0.0164
     7 (A) A   8 (A) B   13 (A) A   10 (A) B     -0.0140
     4 (A) A   8 (A) B   12 (A) A   10 (A) B     -0.0110
     6 (A) A   8 (A) A   10 (A) A   15 (A) A      0.0109
     7 (A) A   8 (A) B   22 (A) A   10 (A) B     -0.0107
     6 (A) A   8 (A) B   15 (A) A   10 (A) B     -0.0106
     4 (A) A   8 (A) A   10 (A) A   12 (A) A      0.0105
     7 (A) A   8 (A) A   10 (A) A   22 (A) A      0.0098
     7 (A) A   8 (A) A   10 (A) A   13 (A) A      0.0097
     5 (A) A   8 (A) B   21 (A) A   10 (A) B      0.0094
     5 (A) A   8 (A) A   10 (A) A   11 (A) A      0.0093
     6 (A) A   8 (A) A   10 (A) A   18 (A) A      0.0089
     6 (A) A   8 (A) B   10 (A) A   10 (A) B      0.0086
     7 (A) A   8 (A) A   12 (A) A   16 (A) A     -0.0081
     3 (A) A   4 (A) B   10 (A) A    9 (A) B     -0.0079
     5 (A) A   8 (A) A   10 (A) A   21 (A) A     -0.0079
     8 (A) A   8 (A) B    9 (A) A   23 (A) B     -0.0076
     4 (A) A   8 (A) B   19 (A) A   10 (A) B      0.0074
     8 (A) A   8 (A) B   10 (A) A   28 (A) B      0.0073
     3 (A) A   8 (A) B   10 (A) A   10 (A) B      0.0072
     5 (A) A   8 (A) B   10 (A) A   11 (A) B     -0.0071
     3 (A) A   8 (A) A   10 (A) A   24 (A) A     -0.0071
     7 (A) A   8 (A) B   16 (A) A   12 (A) B      0.0070
     3 (A) A   8 (A) B   10 (A) A   18 (A) B     -0.0068
     6 (A) A   8 (A) B   18 (A) A   10 (A) B     -0.0067
     8 (A) A   8 (A) B    9 (A) A   19 (A) B      0.0067
     3 (A) A   6 (A) B   10 (A) A   28 (A) B     -0.0062
     7 (A) A   8 (A) B   12 (A) A   11 (A) B     -0.0057
     6 (A) A             28 (A) A                 0.0057
     3 (A) A   5 (A) B   10 (A) A   25 (A) B     -0.0056
     3 (A) A   8 (A) A   10 (A) A   18 (A) A     -0.0055
     6 (A) A   8 (A) A   11 (A) A   16 (A) A      0.0055
    -----------------------------------------------------

  Density matrix analysis:
  ------------------------
  NOs
    Occupation of frontier NOs:
       0.9815   0.9847
    Number of electrons: 16.000000
    Number of unpaired electrons: n_u =  2.29235, n_u,nl =  2.02604
    NO participation ratio (PR_NO):  2.708645
  
  
  Mulliken Population Analysis
  Atom      Charge (e)              h+              e-           Del q
  --------------------------------------------------------------------
   1 H       -0.167582        0.053132       -0.272401       -0.219269
   2 C        0.324730        0.536468       -0.107682        0.428787
   3 H       -0.163757        0.054520       -0.268991       -0.214470
   4 C        0.326834        0.532628       -0.107282        0.425346
   5 H       -0.163974        0.053470       -0.268347       -0.214877
   6 H       -0.156251        0.054182       -0.259699       -0.205517
  --------------------------------------------------------------------
  Sum:        0.000000        1.284401       -1.284401        0.000000
  
  Multipole moment analysis of the density matrix
    Molecular charge:                      0.000000
    Number of electrons:                   16.000000
      Center of electronic charge [Ang]: [ -1.562710,  -0.065458,   0.002072]
    Total nuclear charge:                  16.000000
      Center of nuclear charge [Ang]:    [ -1.564326,  -0.065602,   0.001978]
    Dipole moment [D]:                     0.124912
      Cartesian components [D]:          [ -0.124210,  -0.011086,  -0.007201]
    RMS size of the density [Ang]:         1.277556
      Cartesian components [Ang]:        [  0.855740,   0.840597,   0.439608]
  
  Exciton analysis of the difference density matrix
    <r_h> [Ang]:                  [ -1.563443,  -0.067715,   0.001835]
    <r_e> [Ang]:                  [ -1.543831,  -0.066091,   0.003046]
    |<r_e - r_h>| [Ang]:            0.019717
    Hole size [Ang]:                1.412661
      Cartesian components [Ang]: [  0.836270,   0.821040,   0.788768]
    Electron size [Ang]:            2.078165
      Cartesian components [Ang]: [  1.372793,   1.380165,   0.727568]

  Transition density matrix analysis:
  -----------------------------------
  
  CT numbers (Mulliken)
    omega =     0.9258
    <Phe> =    -0.0110
  
  Exciton analysis of the transition density matrix
    Trans. dipole moment [D]:             0.426900
      Cartesian components [D]:         [  0.020158,   0.025317,  -0.425672]
    <r_h> [Ang]:                        [ -1.566656,  -0.068143,   0.001605]
    <r_e> [Ang]:                        [ -1.537557,  -0.066632,   0.003359]
    |<r_e - r_h>| [Ang]:                  0.029190
    Hole size [Ang]:                      1.217206
      Cartesian components [Ang]:       [  0.641649,   0.626516,   0.823016]
    Electron size [Ang]:                  2.293903
      Cartesian components [Ang]:       [  1.513325,   1.525086,   0.803713]
    RMS electron-hole separation [Ang]:   2.586922
      Cartesian components [Ang]:       [  1.636288,   1.641703,   1.148711]
    Covariance(r_h, r_e) [Ang^2]:         0.026136
    Correlation coefficient:              0.009360
    Center-of-mass size [Ang]:            1.303443
      Cartesian components [Ang]:       [  0.825703,   0.827893,   0.575996]

  Decomposition into state-averaged NTOs
    H- 0 -> L+ 1:  0.6784 ( 92.0%)
                   omega =  92.6%
  ----------------------------------------------------------------------------


  Excited state 4 (singlet, A)                                     [converged]
  ----------------------------------------------------------------------------
  Term symbol:  5 (1) A                                     R^2 =  9.56685e-14

  Total energy:                                            -77.9582736802 a.u.
  Excitation energy:                                               9.830454 eV

  Osc. strength:                                                      0.000031
  Trans. dip. moment [a.u.]:           [  -0.001674,    0.000450,    0.011287]
  <i|r^2|0> [a.u.]:                    [  -0.029052,   -0.017838,    0.037046]
  Two-photon absorption cross-section (SoS) [a.u.]:                 154.231302
  Two-photon absorption matrix (SoS) [a.u.]:
                                       |   -0.289162   -0.329456    3.060048 |
                                       |   -0.329456   -0.370412    3.078713 |
                                       |    3.060048    3.078713    0.659685 |
  Two-photon absorption cross-section [a.u.]:                        96.119682
  Two-photon absorption matrix [a.u.]:
                                       |   -0.223986   -0.259565    2.380446 |
                                       |   -0.259565   -0.297476    2.464899 |
                                       |    2.380446    2.464899    0.521549 |

  Dip. moment [a.u.]:                  [   0.051703,    0.073654,    0.006544]
  Total dipole [Debye]:                                               0.229335
  <r^2> [a.u.]:                        [ 182.369717,   40.709409,   10.777526]
  Total <r^2> [a.u.]:                                               233.856653

  V1^2 = 0.9635, V2^2 = 0.0365

  Important amplitudes:
      occ i     occ j     vir a      vir b          v   
    -----------------------------------------------------
     8 (A) A             11 (A) A                -0.6698
     7 (A) A              9 (A) A                 0.1495
     8 (A) A             21 (A) A                 0.0781
     8 (A) A             16 (A) A                 0.0637
     8 (A) A   8 (A) B    9 (A) A   13 (A) B      0.0169
     6 (A) A              9 (A) A                 0.0155
     5 (A) A   8 (A) B   11 (A) A   11 (A) B      0.0155
     8 (A) A   8 (A) B   11 (A) A   17 (A) B     -0.0140
     7 (A) A             20 (A) A                 0.0137
     7 (A) A   8 (A) B   13 (A) A   11 (A) B      0.0127
     8 (A) A             12 (A) A                 0.0113
     5 (A) A   8 (A) A   11 (A) A   21 (A) A      0.0110
     4 (A) A   8 (A) B   12 (A) A   11 (A) B      0.0110
     8 (A) A   8 (A) B    9 (A) A   22 (A) B      0.0108
     7 (A) A   8 (A) A   11 (A) A   22 (A) A     -0.0097
     6 (A) A   8 (A) B   15 (A) A   11 (A) B      0.0089
     6 (A) A   8 (A) B   10 (A) A   11 (A) B     -0.0089
     7 (A) A   8 (A) B   22 (A) A   11 (A) B      0.0089
     3 (A) A   4 (A) B   11 (A) A    9 (A) B      0.0083
     3 (A) A   8 (A) B   11 (A) A   18 (A) B      0.0081
     6 (A) A   8 (A) A   11 (A) A   15 (A) A     -0.0080
     7 (A) A   8 (A) A   13 (A) A   16 (A) A      0.0078
     7 (A) A   8 (A) A   11 (A) A   13 (A) A     -0.0077
     8 (A) A             10 (A) A                -0.0077
     5 (A) A   8 (A) B   21 (A) A   11 (A) B     -0.0071
     4 (A) A   8 (A) B   19 (A) A   11 (A) B     -0.0069
     5 (A) A   8 (A) B    9 (A) A    9 (A) B      0.0068
     6 (A) A   8 (A) A   11 (A) A   18 (A) A     -0.0063
     4 (A) A   8 (A) A   11 (A) A   12 (A) A     -0.0063
     3 (A) A   6 (A) B   11 (A) A   28 (A) B      0.0061
     6 (A) A   8 (A) B   18 (A) A   11 (A) B      0.0060
     7 (A) A   8 (A) B   16 (A) A   13 (A) B     -0.0057
     3 (A) A   8 (A) A   11 (A) A   18 (A) A      0.0056
     5 (A) A   8 (A) B   10 (A) A   10 (A) B      0.0056
     3 (A) A   8 (A) B   11 (A) A   30 (A) B      0.0055
     3 (A) A   5 (A) B   11 (A) A   25 (A) B      0.0054
     6 (A) A   8 (A) B   11 (A) A   10 (A) B     -0.0054
     7 (A) A   8 (A) B   12 (A) A   10 (A) B      0.0054
     8 (A) A   8 (A) B   20 (A) A   22 (A) B      0.0053
     3 (A) A   8 (A) A   11 (A) A   24 (A) A      0.0053
    -----------------------------------------------------

  Density matrix analysis:
  ------------------------
  NOs
    Occupation of frontier NOs:
       0.9407   1.0276
    Number of electrons: 16.000000
    Number of unpaired electrons: n_u =  2.31961, n_u,nl =  2.04919
    NO participation ratio (PR_NO):  2.914909
  
  
  Mulliken Population Analysis
  Atom      Charge (e)              h+              e-           Del q
  --------------------------------------------------------------------
   1 H       -0.129421        0.045020       -0.226128       -0.181108
   2 C        0.273408        0.497812       -0.120346        0.377466
   3 H       -0.147556        0.047734       -0.246003       -0.198269
   4 C        0.279199        0.496271       -0.118560        0.377710
   5 H       -0.121042        0.047559       -0.219504       -0.171945
   6 H       -0.154588        0.045174       -0.249028       -0.203854
  --------------------------------------------------------------------
  Sum:       -0.000000        1.179569       -1.179569        0.000000
  
  Multipole moment analysis of the density matrix
    Molecular charge:                      0.000000
    Number of electrons:                   16.000000
      Center of electronic charge [Ang]: [ -1.566036,  -0.068038,   0.001762]
    Total nuclear charge:                  16.000000
      Center of nuclear charge [Ang]:    [ -1.564326,  -0.065602,   0.001978]
    Dipole moment [D]:                     0.229335
      Cartesian components [D]:          [  0.131416,   0.187210,   0.016633]
    RMS size of the density [Ang]:         1.278986
      Cartesian components [Ang]:        [  0.859840,   0.841343,   0.434307]
  
  Exciton analysis of the difference density matrix
    <r_h> [Ang]:                  [ -1.565706,  -0.068077,   0.001698]
    <r_e> [Ang]:                  [ -1.589469,  -0.101309,  -0.001189]
    |<r_e - r_h>| [Ang]:            0.040955
    Hole size [Ang]:                1.397183
      Cartesian components [Ang]: [  0.818139,   0.810155,   0.791466]
    Electron size [Ang]:            2.128377
      Cartesian components [Ang]: [  1.433582,   1.418556,   0.680097]

  Transition density matrix analysis:
  -----------------------------------
  
  CT numbers (Mulliken)
    omega =     0.9296
    <Phe> =    -0.0132
  
  Exciton analysis of the transition density matrix
    Trans. dipole moment [D]:             0.014513
      Cartesian components [D]:         [ -0.002128,   0.000572,   0.014344]
    <r_h> [Ang]:                        [ -1.564693,  -0.065774,   0.001847]
    <r_e> [Ang]:                        [ -1.593856,  -0.108323,  -0.001785]
    |<r_e - r_h>| [Ang]:                  0.051712
    Hole size [Ang]:                      1.230544
      Cartesian components [Ang]:       [  0.657691,   0.653986,   0.808693]
    Electron size [Ang]:                  2.266718
      Cartesian components [Ang]:       [  1.526641,   1.511648,   0.722704]
    RMS electron-hole separation [Ang]:   2.568999
      Cartesian components [Ang]:       [  1.654039,   1.639708,   1.084099]
    Covariance(r_h, r_e) [Ang^2]:         0.027584
    Correlation coefficient:              0.009889
    Center-of-mass size [Ang]:            1.294934
      Cartesian components [Ang]:       [  0.835372,   0.827454,   0.542520]

  Decomposition into state-averaged NTOs
    H- 0 -> L+ 2: -0.6641 ( 88.2%)
    H- 1 -> L+ 0: -0.1474 (  4.3%)
                   omega =  93.0%
  ----------------------------------------------------------------------------


  Excited state 5 (singlet, A)                                     [converged]
  ----------------------------------------------------------------------------
  Term symbol:  6 (1) A                                     R^2 =  9.03613e-14

  Total energy:                                            -77.9460655213 a.u.
  Excitation energy:                                              10.162655 eV

  Osc. strength:                                                      0.000002
  Trans. dip. moment [a.u.]:           [  -0.000241,   -0.000317,    0.002618]
  <i|r^2|0> [a.u.]:                    [  -0.092741,    0.103112,   -0.011797]
  Two-photon absorption cross-section (SoS) [a.u.]:                 150.266852
  Two-photon absorption matrix (SoS) [a.u.]:
                                       |   -0.291656   -0.042542    3.099346 |
[...]
    16   -1.505648740773e-03
    17   -1.771814191711e-03
    18   -1.052386264991e-04
    19   -3.396653736965e-03
    20    9.895380842871e-03
    21    9.253846945166e-01
    22   -2.610481601952e-04
    23    1.384872761286e-02
    24    8.042907940562e-04
    25    6.976849665814e-02
    26   -5.188021130108e-02
    27   -1.397272790701e+00
    28    9.389818069903e-02
    29   -9.517631111837e-02
    30   -1.206979237219e-03
    31    3.717830183485e-01
    32   -3.626304432199e-01
    33   -3.922642523426e-03
    34    1.570348928351e-02
    35   -1.527055637227e-03
    36   -1.752415711838e-03
    37   -6.354484460806e-04
    38   -3.261747698358e-03
    39    1.085313937319e-02
    40    9.340144708592e-01
    41    1.501423289344e-04
    42   -1.389574233176e-02
    43   -8.231264862115e-04
    44    9.343158727082e-03
    45    9.274797032784e-01
    46    1.425150451936e-02
    47    1.161495792729e-04
    48    6.844298196487e-04
Sym=X
Ene= 0.233544
Spin=Alpha
Occup=0
     1   -2.476080924451e-02
     2   -1.209760980941e+00
     3    1.390136651056e-02
     4    3.855665092182e-03
     5    8.827249320278e-04
     6   -1.354793415608e-03
     7    2.791093079428e-03
     8    3.372500093633e-03
     9    1.523233294147e-01
    10    1.612943401144e-01
    11    1.670390659341e-02
    12    5.528482359991e-01
    13    5.635495820646e-01
    14    5.926617638707e-02
    15    2.365475969479e-04
    16    3.925700760780e-05
    17   -7.448723837936e-05
    18    1.101158482945e-03
    19    6.802330564254e-05
    20    2.403007412679e-02
    21    1.185299677957e+00
    22    2.552390684462e-03
    23    1.424825635210e-02
    24    9.616409493319e-04
    25    2.866606355369e-03
    26   -3.759248210981e-03
    27   -4.920916633079e-02
    28    1.525708808895e-01
    29    1.583789218684e-01
    30    1.674286148155e-02
    31    5.625315425067e-01
    32    5.529136428321e-01
    33    5.993407742638e-02
    34    5.224533145957e-04
    35   -1.139724377407e-04
    36   -2.801823769211e-05
    37   -7.709356864587e-04
    38   -4.595652616709e-04
    39   -2.520547061105e-02
    40   -1.160174015378e+00
    41    2.404069530603e-03
    42    1.369080032237e-02
    43    9.333533201744e-04
    44    2.401160366699e-02
    45    1.241412650012e+00
    46    1.455307239242e-02
    47    4.025370330697e-03
    48    9.344489166187e-04
Sym=X
Ene= 0.239594
Spin=Alpha
Occup=0
     1   -1.591349638589e-02
     2   -1.055798960606e+00
     3    1.651299626542e-02
     4    9.187057829922e-03
     5    1.333060126826e-03
     6   -8.629687558358e-02
     7    7.912071496880e-02
     8    1.593353676056e+00
     9    5.406005265097e-02
    10   -5.816697475136e-02
    11   -8.030476836993e-04
    12    2.079871374241e-01
    13   -2.251764018907e-01
    14   -3.158542735968e-03
    15   -2.240929198838e-02
    16    2.596059068737e-03
    17    2.947107693092e-03
    18   -4.168373963161e-04
    19    1.281766528539e-02
    20   -1.732346741972e-02
    21   -1.107872402493e+00
    22   -8.527357589942e-03
    23   -1.755977138874e-02
    24   -1.439218520374e-03
    25    8.709361988265e-02
    26   -7.985734723141e-02
    27   -1.617565673665e+00
    28    5.313753073329e-02
    29   -5.996240086060e-02
    30   -1.112808965232e-03
    31    2.114173727527e-01
    32   -2.297119029100e-01
    33   -3.934659015728e-03
    34    2.287927067273e-02
    35   -2.642322988825e-03
    36   -3.023499807508e-03
    37    3.479491672627e-04
    38   -1.299318913703e-02
    39    1.618615317899e-02
    40    1.118113907701e+00
    41   -8.647454239032e-03
    42   -1.772788541852e-02
    43   -1.469568506755e-03
    44    1.573315622737e-02
    45    1.075866054672e+00
    46    1.708041467762e-02
    47    9.171859218951e-03
    48    1.352216542889e-03
Sym=X
Ene= 0.302825
Spin=Alpha
Occup=0
     1   -1.995829070331e-02
     2    1.692583348543e+00
     3   -2.286403067986e-02
     4    4.801999691562e-05
     5   -1.077277747805e-03
     6   -7.904948560274e-05
     7    2.783751519651e-04
     8   -8.554764687649e-03
     9   -1.344999509600e-01
    10   -1.394293735762e-01
    11   -1.459897795861e-02
    12   -1.134998767178e+00
    13   -1.189784702652e+00
    14   -1.242881875052e-01
    15   -3.603338438341e-05
    16   -1.641920554549e-03
    17    1.812097076986e-03
    18   -3.217676580629e-02
    19   -1.859639312504e-03
    20    1.815505218922e-02
    21   -1.683306859592e+00
    22    1.459223150378e-03
    23   -2.272740577372e-02
    24   -1.275906387978e-03
    25   -3.668579788596e-05
    26    5.164782064442e-04
    27   -2.801324589956e-02
    28    1.345508122187e-01
    29    1.397968830700e-01
    30    1.474488432634e-02
    31    1.142298059011e+00
    32    1.192651082478e+00
    33    1.252180758929e-01
    34    3.338869965565e-04
    35   -1.691159618655e-03
    36    1.816763690485e-03
    37   -3.259067552878e-02
    38   -2.191907212668e-03
    39    1.812959055897e-02
    40   -1.685400371071e+00
    41   -1.603389847949e-03
    42    2.271832284966e-02
    43    1.285519907324e-03
    44   -2.187504642443e-02
    45    1.716816817735e+00
    46    2.299819782772e-02
    47   -1.518874649178e-05
    48    1.086609067759e-03
Sym=X
Ene= 0.460328
Spin=Alpha
Occup=0
     1   -1.084869870359e-01
     2   -7.171700330044e-01
     3   -1.472798780689e-02
     4   -1.073705249044e-02
     5   -1.326131848665e-03
     6    6.105280412533e-02
     7    1.531559222568e-02
     8   -3.499739672818e+00
     9    1.067555440745e-01
    10   -1.023980026027e-01
    11   -9.560754369007e-04
    12    2.399007486017e+00
    13   -2.260131483427e+00
    14   -2.107702704513e-02
    15    5.201984948673e-02
    16   -3.208210154954e-03
    17   -4.500975188323e-03
    18   -3.830766313429e-04
    19    1.793743064692e-02
    20   -1.212547351056e-01
    21   -6.957743867437e-01
    22    8.185820618116e-03
    23    1.596132838926e-02
    24    1.333293552336e-03
    25   -6.080898301584e-02
    26   -1.583506496120e-02
    27    3.490167820258e+00
    28    1.054086699967e-01
    29   -1.015918367350e-01
    30   -1.067656955714e-03
    31    2.411478961669e+00
    32   -2.254305680848e+00
    33   -2.056919221590e-02
    34   -5.209145564018e-02
    35    3.274373762271e-03
    36    4.587420603110e-03
    37    1.429749490348e-06
    38   -1.741234458452e-02
    39    1.233016081470e-01
    40    6.824927651658e-01
    41    8.150123964931e-03
    42    1.613099786902e-02
    43    1.351272873126e-03
    44    1.078467443052e-01
    45    7.374813729605e-01
    46   -1.484663199541e-02
    47   -1.080946572930e-02
    48   -1.353288722696e-03
Sym=X
Ene= 0.578443
Spin=Alpha
Occup=0
     1    2.479969525634e-01
     2    5.634398905290e-02
     3   -1.854530516825e-02
     4    2.613686448495e-02
     5    6.708009925139e-04
     6   -4.562854313105e-03
     7   -1.512003924243e-01
     8   -4.321354660335e-01
     9    2.946705237952e-01
    10   -2.864039665923e-01
    11   -3.143899439256e-03
    12   -7.389088547774e-01
    13    7.214518942139e-01
    14    7.899045534514e-03
    15   -6.903467168388e-03
    16    3.942603133489e-03
    17    4.081782370590e-03
    18   -6.992918446175e-03
    19    6.198479527652e-02
    20    2.654959749370e-01
    21    3.038976673460e-02
    22   -2.712589694361e-02
    23    1.544618401905e-02
    24   -3.681447615395e-04
    25   -3.975766518296e-03
    26   -1.503880768286e-01
    27   -4.603968140990e-01
    28   -2.960348449770e-01
    29    2.867504818655e-01
    30    3.091657024084e-03
    31    7.324797926601e-01
    32   -7.012798328241e-01
    33   -7.104634751171e-03
    34   -6.665242585032e-03
    35    3.981533470397e-03
    36    3.999646471475e-03
    37   -5.884945991594e-03
    38    6.204245237402e-02
    39    2.609551340684e-01
    40    2.259645339137e-02
    41    2.736886245693e-02
    42   -1.596648428195e-02
    43    3.425776340100e-04
    44    2.539246177873e-01
    45    5.830402882367e-02
    46    1.696535335381e-02
    47   -2.479825971575e-02
    48   -6.774944736044e-04
Sym=X
Ene= 0.615434
Spin=Alpha
Occup=0
     1    5.326964096219e-01
     2   -1.923746535589e-01
     3    6.209484906369e-02
     4   -3.680091348648e-02
     5    7.673793793425e-04
     6    1.190383766146e-03
     7   -9.293962882472e-04
     8    5.303183727567e-02
     9    4.365119409876e-02
    10    3.780215589681e-02
    11    4.338286312258e-03
    12   -3.405853122061e-01
    13   -2.552360884228e-01
    14   -3.104034840448e-02
    15   -4.383111383047e-03
    16    7.821283012380e-03
    17   -8.051620643772e-03
    18    1.488225263334e-01
    19    6.523416801882e-03
    20   -5.012784642426e-01
    21    2.087320220370e-01
    22   -4.246634248422e-02
    23    5.752469213975e-02
    24    1.407447623711e-03
    25   -1.038739391306e-03
    26   -2.317982754062e-03
    27   -4.268159729096e-02
    28    4.506343729392e-02
    29    4.056140017680e-02
    30    4.511586794667e-03
    31   -3.502634415432e-01
    32   -2.693586298070e-01
    33   -3.284420501099e-02
    34    2.034371198206e-03
    35   -7.378494030613e-03
    36    8.395284541309e-03
    37   -1.474339257491e-01
    38   -4.449986728200e-03
    39    5.086495162401e-01
    40   -2.038807782370e-01
    41   -4.184914941987e-02
    42    5.769440259312e-02
    43    1.457202068168e-03
    44   -5.192787384032e-01
    45    1.640518834767e-01
    46    6.129787415075e-02
    47   -3.722757181156e-02
    48    6.670641815487e-04
Sym=X
Ene= 0.690701
Spin=Alpha
Occup=0
     1    2.513729835669e-05
     2   -9.276573533040e-05
     3    1.045134440811e-03
     4    1.254230478915e-03
     5   -2.131653250689e-02
     6    4.099747480924e-06
     7    1.908442636343e-04
     8   -1.834261336408e-04
     9    3.165178992095e-02
    10    3.992236722096e-02
    11   -6.722025296977e-01
    12   -2.864740740667e-02
    13   -3.656472883867e-02
    14    6.135089750443e-01
    15   -1.295311121977e-03
    16    8.293613870675e-02
    17   -7.773472810297e-02
    18   -8.587640099507e-03
    19   -1.262018624571e-03
    20    7.801774170170e-05
    21   -2.933147457645e-04
    22    9.835840558878e-04
    23    1.202765247812e-03
    24   -2.120448925653e-02
    25    1.112017171707e-05
    26    1.246460878857e-04
    27   -7.861549044791e-06
    28    3.191298033148e-02
    29    4.006852493817e-02
    30   -6.718287500330e-01
    31   -2.901658137924e-02
    32   -3.684219211838e-02
    33    6.139651421458e-01
    34    1.176471603820e-03
    35   -8.318480800507e-02
    36    7.779684802819e-02
    37    8.527544758363e-03
    38    1.308421920652e-03
    39    1.846657489789e-04
    40   -9.501168208641e-05
    41    1.020363237986e-03
    42    1.282984429969e-03
    43   -2.082525151984e-02
    44    1.457591136135e-04
    45    1.169736991474e-04
    46    1.066430585768e-03
    47    1.370879109692e-03
    48   -2.301427393785e-02
Sym=X
Ene= 0.709559
Spin=Alpha
Occup=0
     1   -4.716612613511e-01
     2    1.654522058472e-01
     3   -8.258637954777e-02
     4   -4.450226036869e-02
     5   -6.537986187122e-03
     6   -4.821638646724e-02
     7   -3.193877677403e-01
     8    4.797230610490e-01
     9    2.100924975092e-01
    10   -1.938738463835e-01
    11   -1.794748164767e-03
    12   -1.042663606521e-01
    13    7.041995081797e-02
    14   -3.694415126166e-04
    15    1.965722418114e-01
    16   -2.052429088503e-02
    17   -2.412161584486e-02
    18    3.051680663806e-03
    19   -7.557202380538e-02
    20   -4.828594136339e-01
    21    1.474760488517e-01
    22    4.033495942234e-02
    23    8.292404600723e-02
    24    6.827368356979e-03
    25   -4.668299780849e-02
    26   -3.264976658494e-01
    27    4.817515118464e-01
    28   -2.069707734627e-01
    29    2.003123835663e-01
    30    1.960297489044e-03
    31    7.944146720272e-02
    32   -8.028268621152e-02
    33   -9.546170308094e-04
    34    1.923672261002e-01
    35   -2.030951137329e-02
    36   -2.370201240666e-02
    37    1.800876533795e-03
    38   -7.550907939988e-02
    39   -4.649266768171e-01
    40    1.454278454761e-01
    41   -4.123228917586e-02
    42   -8.032885197969e-02
    43   -6.761970986834e-03
    44   -4.636233915725e-01
    45    1.315133489773e-01
    46    8.116677275425e-02
    47    4.327948729994e-02
    48    6.413738315146e-03
Sym=X
Ene= 0.782932
Spin=Alpha
Occup=0
     1    5.195249305975e-01
     2   -4.521097245137e-01
     3    1.070276813866e-01
     4    2.480394865661e-02
     5    6.518946953649e-03
     6    9.048773557505e-02
     7   -2.216797310612e-01
     8   -6.007931493474e-01
     9    1.230207997165e-01
    10   -1.143637965768e-01
    11   -7.318151551801e-04
    12    2.869295276273e-01
    13   -2.562168968240e-01
    14   -2.290688244742e-03
    15   -2.042396100385e-01
    16    1.696079602241e-02
    17    2.152803505835e-02
    18   -3.677967072129e-03
    19    5.528090746700e-03
    20    5.359688289525e-01
    21   -4.574149305157e-01
    22   -1.921581876615e-02
    23   -1.114766228780e-01
    24   -7.512555961329e-03
    25   -9.192651697344e-02
    26    2.049103639035e-01
    27    6.281961723799e-01
    28    1.275241604265e-01
    29   -1.014017588006e-01
    30   -3.406604411270e-04
    31    2.632459540530e-01
    32   -2.815798355230e-01
    33   -3.732826045618e-03
    34    2.099058269493e-01
    35   -1.752457842030e-02
    36   -2.255172505216e-02
    37    5.386328125822e-03
    38   -7.377628360484e-03
    39   -5.506517199053e-01
    40    4.798102123233e-01
    41   -2.003310092543e-02
    42   -1.155364399261e-01
    43   -7.859604733311e-03
    44   -5.210339699456e-01
    45    4.213730689050e-01
    46    1.075447834531e-01
    47    2.562679523211e-02
    48    6.625232813528e-03
Sym=X
Ene= 0.807205
Spin=Alpha
Occup=0
     1   -1.876696571617e-04
     2    4.966731239581e-04
     3   -1.677346921204e-03
     4   -1.983063107676e-03
     5    3.322748866219e-02
     6   -3.290998965369e-05
     7    2.393241461335e-05
     8    4.554652712724e-05
     9   -3.601721579343e-02
    10   -4.512330219608e-02
    11    7.630468595345e-01
    12    5.276753397590e-02
    13    6.660530147235e-02
    14   -1.123244938068e+00
    15   -8.370043589976e-04
    16    6.358113390425e-02
    17   -5.958847046038e-02
    18   -6.625001743017e-03
    19   -9.515372229927e-04
    20   -1.787033226298e-04
    21   -2.655817107643e-05
    22   -1.672981157756e-03
    23   -2.002769053504e-03
    24    3.460924732705e-02
    25    3.885492182369e-05
    26   -1.276190962741e-04
    27    1.078820364323e-06
    28    3.610530957360e-02
    29    4.572714502288e-02
    30   -7.628081816717e-01
    31   -5.340961303876e-02
    32   -6.719974955770e-02
    33    1.123570126750e+00
    34   -1.072218635560e-03
    35    6.354450123700e-02
    36   -5.965914810769e-02
    37   -6.485667764401e-03
    38   -9.914843052790e-04
    39    1.891524898233e-04
    40    5.434635447362e-05
    41    1.596989568498e-03
    42    2.076225379052e-03
    43   -3.435637936326e-02
    44    1.873050273202e-04
    45   -4.569595943277e-04
    46    1.579334473441e-03
    47    2.074810482010e-03
    48   -3.506671280348e-02
Sym=X
Ene= 0.863846
Spin=Alpha
Occup=0
     1    2.132100941941e-02
     2   -1.103353192443e+00
     3    1.517986312011e-01
     4    5.598287847050e-02
     5    1.051333195747e-02
     6    1.321462032908e-03
     7   -1.143988330708e-02
     8    1.860672903256e-02
     9   -4.047561829905e-01
    10   -4.413637296055e-01
    11   -4.510978682890e-02
    12    9.444226157905e-01
    13    1.022131002124e+00
    14    1.048153407241e-01
    15   -3.098018297142e-03
    16    1.193983037156e-02
    17   -1.356112011382e-02
    18    2.386423813535e-01
    19    6.642212329839e-03
    20   -1.458785246558e-02
    21    1.114560155425e+00
    22    5.060661846728e-02
    23    1.530923291314e-01
    24    1.145409457308e-02
    25   -2.112792167121e-03
    26   -5.249183376221e-03
    27   -3.986210305960e-03
    28   -3.927572325862e-01
    29   -4.317155250047e-01
    30   -4.457181652894e-02
    31    9.234414960043e-01
    32    1.005091704587e+00
    33    1.041796685312e-01
    34    6.768668187970e-03
    35   -1.216355308309e-02
    36    1.307318741793e-02
    37   -2.367756947497e-01
    38   -6.930994931678e-03
    39    6.714337909040e-03
    40   -1.101723219342e+00
    41    5.132318946140e-02
    42    1.496555115831e-01
    43    1.135709219368e-02
    44   -1.723758472470e-02
    45    1.086446324687e+00
    46    1.487346341374e-01
    47    5.589560948393e-02
    48    1.038552337450e-02
Sym=X
Ene= 0.935657
Spin=Alpha
Occup=0
     1    1.092481020086e-01
     2   -1.283645995818e+00
     3    1.782606977961e-01
     4   -4.081898202340e-03
     5    8.167391868518e-03
     6   -1.187134823382e-03
     7    1.965098401407e-02
     8   -5.347813793777e-02
     9   -4.809408865195e-01
    10   -4.825146202311e-01
    11   -5.136523769179e-02
    12    1.494648083311e+00
    13    1.492861476797e+00
    14    1.592584009790e-01
    15    4.354538581905e-03
    16    5.665929172279e-03
    17   -6.954311160408e-03
    18    1.171909538831e-01
    19    8.373406369968e-03
    20   -1.176045945096e-01
    21    1.264536521020e+00
    22   -1.327655576975e-02
    23    1.816442973252e-01
    24    1.014070045035e-02
    25    2.132282007361e-03
    26    3.058613799481e-02
    27   -1.221890738234e-02
    28    4.555277766295e-01
    29    5.192535554238e-01
    30    5.256253614066e-02
    31   -1.429631910823e+00
    32   -1.594394927816e+00
    33   -1.628280883702e-01
    34   -4.725565571389e-03
    35    5.768648099666e-03
    36   -7.473090549904e-03
    37    1.250044627120e-01
    38   -8.676700809091e-03
    39   -1.152426726482e-01
    40    1.333563590106e+00
    41    7.213869261789e-03
    42   -1.877599722873e-01
    43   -1.090109137612e-02
    44    1.128162504345e-01
    45   -1.268294729048e+00
    46   -1.792856943581e-01
    47    8.917595410724e-03
    48   -7.946296325951e-03
Sym=X
Ene= 0.968911
Spin=Alpha
Occup=0
     1   -7.781324498927e-02
     2    9.044776414818e-01
     3   -8.909450040234e-02
     4   -9.821936873108e-02
     5   -1.009268381262e-02
     6    2.287969376875e-02
     7    2.480186731261e-01
     8    5.531761381160e-01
     9    4.718883630864e-01
    10   -4.665237390971e-01
    11   -5.324995111869e-03
    12   -1.474348078093e+00
    13    1.471927637138e+00
    14    1.757610482933e-02
    15   -4.951805680876e-02
    16   -1.330055621196e-02
    17   -1.011062322501e-02
    18    1.521883219573e-02
    19   -3.019616493829e-01
    20   -7.122662764815e-02
    21    9.508600177090e-01
    22    9.505046606943e-02
    23    9.869884916156e-02
    24    1.031916841396e-02
    25   -2.244511999011e-02
    26   -2.187994914514e-01
    27   -6.009356093045e-01
    28    4.952187590631e-01
    29   -4.325591069113e-01
    30   -2.436683227060e-03
    31   -1.568836836639e+00
    32    1.350646272249e+00
    33    6.530820407172e-03
    34    4.819216990425e-02
    35    1.366726810101e-02
    36    9.649876110559e-03
    37   -6.699266278214e-03
    38    2.997949440240e-01
    39    6.869193474115e-02
    40   -8.421270511537e-01
    41    9.434719202885e-02
    42    8.394905160107e-02
    43    9.469608137829e-03
    44    7.699121701002e-02
    45   -9.793956392594e-01
    46   -9.781019513797e-02
    47   -9.731991783077e-02
    48   -1.042217963798e-02
[5D]

======= END OF MOLDEN-FORMATTED INPUT FILE =======


        *************************************************************
        *                                                           *
        *  Thank you very much for using Q-Chem.  Have a nice day.  *
        *                                                           *
        *************************************************************


