                  Welcome to Q-Chem
     A Quantum Leap Into The Future Of Chemistry


 Q-Chem 5.4 (devel), Q-Chem, Inc., Pleasanton, CA (2021)

 E. Epifanovsky,  A. T. B. Gilbert,  Xintian Feng,  Joonho Lee,  Yuezhi Mao,  
 N. Mardirossian,  P. Pokhilko,  A. White,  M. Wormit,  M. P. Coons,  
 A. L. Dempwolff,  Zhengting Gan,  D. Hait,  P. R. Horn,  L. D. Jacobson,  
 I. Kaliman,  J. Kussmann,  A. W. Lange,  Ka Un Lao,  D. S. Levine,  Jie Liu,  
 S. C. McKenzie,  A. F. Morrison,  K. Nanda,  F. Plasser,  D. R. Rehn,  
 M. L. Vidal,  Zhi-Qiang You,  Ying Zhu,  B. Alam,  B. Albrecht,  
 A. Aldossary,  E. Alguire,  J. H. Andersen,  D. Barton,  K. Begam,  A. Behn,  
 Y. A. Bernard,  E. J. Berquist,  H. Burton,  A. Carreras,  K. Carter-Fenk,  
 R. Chakraborty,  A. D. Chien,  K. D. Closser,  V. Cofer-Shabica,  
 S. Dasgupta,  Jia Deng,  M. de Wergifosse,  M. Diedenhofen,  Hainam Do,  
 S. Ehlert,  Po-Tung Fang,  S. Fatehi,  Qingguo Feng,  T. Friedhoff,  
 J. Gayvert,  Qinghui Ge,  G. Gidofalvi,  M. Goldey,  J. Gomes,  
 C. Gonzalez-Espinoza,  S. Gulania,  A. Gunina,  M. W. D. Hanson-Heine,  
 P. H. P. Harbach,  A. W. Hauser,  M. F. Herbst,  M. Hernandez Vera,  
 M. Hodecker,  Z. C. Holden,  S. Houck,  Xunkun Huang,  Kerwin Hui,  
 B. C. Huynh,  M. Ivanov,  Hyunjun Ji,  Hanjie Jiang,  B. Kaduk,  S. Kaehler,  
 K. Khistyaev,  Jaehoon Kim,  P. Klunzinger,  Z. Koczor-Benda,  
 Joong Hoon Koh,  D. Kosenkov,  L. Koulias,  T. Kowalczyk,  C. M. Krauter,  
 K. Kue,  A. Kunitsa,  T. Kus,  A. Landau,  K. V. Lawler,  D. Lefrancois,  
 S. Lehtola,  Rain Li,  Yi-Pei Li,  Jiashu Liang,  M. Liebenthal,  
 Hung-Hsuan Lin,  You-Sheng Lin,  Fenglai Liu,  Kuan-Yu Liu,  
 M. Loipersberger,  A. Luenser,  A. Manjanath,  P. Manohar,  E. Mansoor,  
 S. F. Manzer,  Shan-Ping Mao,  A. V. Marenich,  T. Markovich,  S. Mason,  
 S. A. Maurer,  P. F. McLaughlin,  M. F. S. J. Menger,  J.-M. Mewes,  
 S. A. Mewes,  P. Morgante,  J. W. Mullinax,  K. J. Oosterbaan,  G. Paran,  
 Alexander C. Paul,  Suranjan K. Paul,  F. Pavosevic,  Zheng Pei,  S. Prager,  
 E. I. Proynov,  E. Ramos,  B. Rana,  A. E. Rask,  A. Rettig,  R. M. Richard,  
 F. Rob,  E. Rossomme,  T. Scheele,  M. Scheurer,  M. Schneider,  
 N. Sergueev,  S. M. Sharada,  W. Skomorowski,  D. W. Small,  C. J. Stein,  
 Yu-Chuan Su,  E. J. Sundstrom,  Zhen Tao,  J. Thirman,  T. Tsuchimochi,  
 N. M. Tubman,  S. P. Veccham,  O. Vydrov,  J. Wenzel,  J. Witte,  A. Yamada,  
 Kun Yao,  S. Yeganeh,  S. R. Yost,  A. Zech,  Igor Ying Zhang,  Xing Zhang,  
 Yu Zhang,  D. Zuev,  A. Aspuru-Guzik,  A. T. Bell,  N. A. Besley,  
 K. B. Bravaya,  B. R. Brooks,  D. Casanova,  Jeng-Da Chai,  S. Coriani,  
 C. J. Cramer,  A. E. DePrince, III,  R. A. DiStasio Jr.,  A. Dreuw,  
 B. D. Dunietz,  T. R. Furlani,  W. A. Goddard III,  S. Grimme,  
 S. Hammes-Schiffer,  T. Head-Gordon,  W. J. Hehre,  Chao-Ping Hsu,  
 T.-C. Jagau,  Yousung Jung,  A. Klamt,  Jing Kong,  D. S. Lambrecht,  
 WanZhen Liang,  N. J. Mayhall,  C. W. McCurdy,  J. B. Neaton,  
 C. Ochsenfeld,  J. A. Parkhill,  R. Peverati,  V. A. Rassolov,  Yihan Shao,  
 L. V. Slipchenko,  T. Stauch,  R. P. Steele,  J. E. Subotnik,  
 A. J. W. Thom,  A. Tkatchenko,  D. G. Truhlar,  T. Van Voorhis,  
 T. A. Wesolowski,  K. B. Whaley,  H. L. Woodcock III,  P. M. Zimmerman,  
 S. Faraji,  P. M. W. Gill,  M. Head-Gordon,  J. M. Herbert,  A. I. Krylov

 Additional authors for Version 5.4.1: 
 S. Kotaru,  Shaozhi Li,  Xiangyuan Li,  F. Matz,  A. Molle,  Haisheng Ren,  
 Yingli Su,  Hung-Yi Tsai,  C. Utku,  Fang Wang

 Contributors to earlier versions of Q-Chem not listed above: 
 R. D. Adamson,  B. Austin,  R. Baer,  J. Baker,  G. J. O. Beran,  
 K. Brandhorst,  S. T. Brown,  E. F. C. Byrd,  A. K. Chakraborty,  
 G. K. L. Chan,  Chun-Min Chang,  Yunqing Chen,  C.-L. Cheng,  
 Siu Hung Chien,  D. M. Chipman,  D. L. Crittenden,  H. Dachsel,  
 R. J. Doerksen,  A. D. Dutoi,  R. G. Edgar,  J. Fosso-Tande,  
 L. Fusti-Molnar,  D. Ghosh,  A. Ghysels,  A. Golubeva-Zadorozhnaya,  
 J. Gonthier,  M. S. Gordon,  S. R. Gwaltney,  G. Hawkins,  J. E. Herr,  
 A. Heyden,  S. Hirata,  E. G. Hohenstein,  G. Kedziora,  F. J. Keil,  
 C. Kelley,  Jihan Kim,  R. A. King,  R. Z. Khaliullin,  P. P. Korambath,  
 W. Kurlancheek,  A. Laurent,  A. M. Lee,  M. S. Lee,  S. V. Levchenko,  
 Ching Yeh Lin,  D. Liotard,  E. Livshits,  R. C. Lochan,  I. Lotan,  
 L. A. Martinez-Martinez,  P. E. Maslen,  N. Nair,  D. P. O'Neill,  
 D. Neuhauser,  E. Neuscamman,  C. M. Oana,  R. Olivares-Amaya,  R. Olson,  
 T. M. Perrine,  B. Peters,  P. A. Pieniazek,  A. Prociuk,  Y. M. Rhee,  
 J. Ritchie,  M. A. Rohrdanz,  E. Rosta,  N. J. Russ,  H. F. Schaefer III,  
 M. W. Schmidt,  N. E. Schultz,  S. Sharma,  N. Shenvi,  C. D. Sherrill,  
 A. C. Simmonett,  A. Sodt,  T. Stein,  D. Stuck,  K. S. Thanthiriwatte,  
 V. Vanovschi,  L. Vogt,  Tao Wang,  A. Warshel,  M. A. Watson,  
 C. F. Williams,  Q. Wu,  X. Xu,  Jun Yang,  W. Zhang,  Yan Zhao

 Please cite Q-Chem as follows:
 Y. Shao et al., Mol. Phys. 113, 184-215 (2015)
 DOI: 10.1080/00268976.2014.952696

 Q-Chem 5.4.1 for Intel X86 EM64T Linux

 Parts of Q-Chem use Armadillo 9.800.1 (Horizon Scraper).
 http://arma.sourceforge.net/

 Q-Chem begins on Tue Mar 21 11:46:08 2023  

 Host: cpu186.baobab
0

     Scratch files written to /scratch/fum/qchem64262//
 Processing $rem in /home/share/wesolowski/qc5.aug2021.FDE/config/preferences:
 Processing $rem in /home/fum/.qchemrc:

 Checking the input file for inconsistencies... 	...done.

--------------------------------------------------------------
User input:
--------------------------------------------------------------
$comment
generated from CCJob.Templates
$end

$rem
sym_ignore = true
method = adc(2)
ee_states = 10
basis = cc-pVDZ
mem_static = 1024
mem_total = 40000
adc_davidson_maxiter = 900
adc_davidson_conv = 6
adc_print = 3
adc_prop_es = true
adc_prop_es2es = true
adc_prop_tpa = true
molden_format = True
state_analysis = true
print_orbitals = 15
gen_scfman = false
fde_export_density = true
fde_details = 3
$end

$molecule
0 1
H -0.0233997402023617 -0.24749753006933714 0.06500615326074254
C -1.0773753586257588 -0.524929891466155 -0.0023678324015644204
H -1.300774984561076 -1.5911610715885365 -0.07756202645646412
C -2.045295424974162 0.39435369456607045 0.006614791901570923
H -1.821934900038812 1.4605982886889421 0.08178889195650313
H -3.0992828944980233 0.11693243156922399 -0.060680867960804956                     
$end
--------------------------------------------------------------
 ----------------------------------------------------------------
             Standard Nuclear Orientation (Angstroms)
    I     Atom           X                Y                Z
 ----------------------------------------------------------------
    1      H      -0.0233997402    -0.2474975301     0.0650061533
    2      C      -1.0773753586    -0.5249298915    -0.0023678324
    3      H      -1.3007749846    -1.5911610716    -0.0775620265
    4      C      -2.0452954250     0.3943536946     0.0066147919
    5      H      -1.8219349000     1.4605982887     0.0817888920
    6      H      -3.0992828945     0.1169324316    -0.0606808680
 ----------------------------------------------------------------
 Nuclear Repulsion Energy =          33.22316286 hartrees
 There are        8 alpha and        8 beta electrons
 Requested basis set is cc-pVDZ
 There are 24 shells and 48 basis functions
 Total memory of 40000 MB is distributed as follows: 
   MEM_STATIC is set to 1024 MB
   QALLOC/CCMAN JOB total memory use is  38976 MB
 Warning: actual memory use might exceed 40000 MB

 Total QAlloc Memory Limit  40000 MB
 Mega-Array Size      1001 MB
 MEM_STATIC part      1024 MB

                       Distance Matrix (Angstroms)
             H (  1)   C (  2)   H (  3)   C (  4)   H (  5)
   C (  2)  1.091958
   H (  3)  1.859421  1.091975
   C (  4)  2.122132  1.334928  2.122184
   H (  5)  2.480444  2.122210  3.100038  1.091979
   H (  6)  3.099946  2.122145  2.480423  1.091962  1.859396

 A cutoff of  1.0D-11 yielded    300 shell pairs
 There are      1220 function pairs (      1329 Cartesian)
 Smallest overlap matrix eigenvalue = 4.84E-03

 Scale SEOQF with 1.000000e-01/1.000000e-01/1.000000e+00

 Standard Electronic Orientation quadrupole field applied
 Nucleus-field energy     =     0.0000000022 hartrees
 Guess from superposition of atomic densities
 Warning:  Energy on first SCF cycle will be non-variational
 SAD guess density has 16.000000 electrons
 A restricted Hartree-Fock SCF calculation will be
 performed using Pulay DIIS extrapolation
 SCF converges when DIIS error is below 1.0E-08
 using 10 threads for integral computing
 -------------------------------------------------------
 OpenMP Integral computing Module                
 Release: version 1.0, May 2013, Q-Chem Inc. Pittsburgh 
 -------------------------------------------------------
 ---------------------------------------
  Cycle       Energy         DIIS Error
 ---------------------------------------
    1     -78.4013883938      9.94E-02
    2     -78.0176531744      7.14E-03
    3     -78.0381283913      1.83E-03
    4     -78.0396033838      5.62E-04
    5     -78.0397203153      5.81E-05
    6     -78.0397221802      9.29E-06
    7     -78.0397222415      1.95E-06
    8     -78.0397222442      1.67E-07
    9     -78.0397222443      1.71E-08
   10     -78.0397222443      3.03E-09 Convergence criterion met
 ---------------------------------------
 SCF time:  CPU 1.94 s  wall 2.49 s
 SCF   energy in the final basis set = -78.03972224
 Total energy in the final basis set = -78.03972224
Exporting Density Matrix to file 'Densmat_SCF.txt'.
Export successful
================================================================================
|                                                                              |
|                                 A D C  M A N                                 |
|                                                                              |
 ------------------------------------------------------------------------------ 
|                                                                              |
| Components:                                                                  |
|                                                                              |
| - libvmm - 1.3-trunk                                                         |
|   Authors:                                                                   |
|   Evgeny Epifanovsky, Ilya Kaliman                                           |
|                                                                              |
| - libtensor - 2.5-trunk                                                      |
|   Authors:                                                                   |
|   Evgeny Epifanovsky, Michael Wormit, Dmitry Zuev, Sam Manzer,               |
|   Ilya Kaliman                                                               |
|                                                                              |
| - libwfa - 1.1-trunk                                                         |
|   Authors:                                                                   |
|   Felix Plasser, Stefanie Mewes (Baeppler), Benjamin Thomitzni,              |
|   Michael Wormit, Feng Chen, Anna I. Krylov, Pavel Pokhilko                  |
|                                                                              |
| - libadc - 1.1-trunk                                                         |
|   Authors:                                                                   |
|   Michael Wormit, Adrian L. Dempwolff, Philipp H. P. Harbach,                |
|   Caroline Krauter, Dirk Rehn, Matthias Schneider, Jan Wenzel                |
|                                                                              |
| - adcman - 2.6-trunk                                                         |
|   Authors:                                                                   |
|   Michael Wormit, Adrian L. Dempwolff, Philipp H. P. Harbach,                |
|   Caroline Krauter, Daniel Lefrancois, Jan-Michael Mewes, Dirk Rehn,         |
|   Matthias Schneider, Jan Wenzel, Andreas Dreuw                              |
|                                                                              |
| Authors of earlier versions of ADCMAN:                                       |
| Andreas Dreuw, Jan Hendrik Starcke, Dirk Rehn, Michael Wormit                |
|                                                                              |
================================================================================

 Created directory /scratch/fum/qchem64262/plots
  Import QC data ...  CPU 0.00 s  wall 0.00 s

 Alpha MOs, Restricted
 -- Occupied --                  
-11.238 -11.237  -1.030  -0.787  -0.636  -0.582  -0.501  -0.374
  1 A     2 A     3 A     4 A     5 A     6 A     7 A     8 A                  
 -- Virtual --                   
  0.168   0.203   0.232   0.237   0.303   0.463   0.580   0.609
  9 A    10 A    11 A    12 A    13 A    14 A    15 A    16 A                  
  0.689   0.706   0.777   0.807   0.859   0.929   0.970   1.006
 17 A    18 A    19 A    20 A    21 A    22 A    23 A    24 A                  
  1.130   1.236   1.241   1.262   1.291   1.595   1.730   1.746
 25 A    26 A    27 A    28 A    29 A    30 A    31 A    32 A                  
  1.811   1.851   1.855   1.903   1.965   1.974   2.224   2.248
 33 A    34 A    35 A    36 A    37 A    38 A    39 A    40 A                  
  2.358   2.427   2.496   2.625   2.685   2.799   3.104   3.373
 41 A    42 A    43 A    44 A    45 A    46 A    47 A    48 A                  

 Beta MOs, Restricted
 -- Occupied --                  
-11.238 -11.237  -1.030  -0.787  -0.636  -0.582  -0.501  -0.374
  1 A     2 A     3 A     4 A     5 A     6 A     7 A     8 A                  
 -- Virtual --                   
  0.168   0.203   0.232   0.237   0.303   0.463   0.580   0.609
  9 A    10 A    11 A    12 A    13 A    14 A    15 A    16 A                  
  0.689   0.706   0.777   0.807   0.859   0.929   0.970   1.006
 17 A    18 A    19 A    20 A    21 A    22 A    23 A    24 A                  
  1.130   1.236   1.241   1.262   1.291   1.595   1.730   1.746
 25 A    26 A    27 A    28 A    29 A    30 A    31 A    32 A                  
  1.811   1.851   1.855   1.903   1.965   1.974   2.224   2.248
 33 A    34 A    35 A    36 A    37 A    38 A    39 A    40 A                  
  2.358   2.427   2.496   2.625   2.685   2.799   3.104   3.373
 41 A    42 A    43 A    44 A    45 A    46 A    47 A    48 A                  
  Import AO data ...  CPU 0.00 s  wall 0.00 s
  Using point group: C1
  Irreducible representations in point group: A
  Molecular orbitals: 
  Occupied MOs:
  Block   0:   1 (  A) A   2 (  A) A   3 (  A) A   4 (  A) A   5 (  A) A
                  -11.24      -11.24       -1.03     -0.7869     -0.6357
               6 (  A) A   7 (  A) A   8 (  A) A
                 -0.5823     -0.5005      -0.374
  Block   1:   1 (  A) B   2 (  A) B   3 (  A) B   4 (  A) B   5 (  A) B
                  -11.24      -11.24       -1.03     -0.7869     -0.6357
               6 (  A) B   7 (  A) B   8 (  A) B
                 -0.5823     -0.5005      -0.374
  Virtual MOs:
  Block   0:   9 (  A) A  10 (  A) A  11 (  A) A  12 (  A) A  13 (  A) A
                  0.1676      0.2028      0.2315      0.2368      0.3029
              14 (  A) A  15 (  A) A  16 (  A) A  17 (  A) A  18 (  A) A
                  0.4626        0.58      0.6092      0.6891      0.7057
              19 (  A) A  20 (  A) A  21 (  A) A  22 (  A) A
                  0.7765      0.8073      0.8592       0.929
  Block   1:  23 (  A) A  24 (  A) A  25 (  A) A  26 (  A) A  27 (  A) A
                  0.9702       1.006        1.13       1.236       1.241
              28 (  A) A  29 (  A) A  30 (  A) A  31 (  A) A  32 (  A) A
                   1.262       1.291       1.595        1.73       1.746
              33 (  A) A  34 (  A) A  35 (  A) A  36 (  A) A
                   1.811       1.851       1.855       1.903
  Block   2:  37 (  A) A  38 (  A) A  39 (  A) A  40 (  A) A  41 (  A) A
                   1.965       1.974       2.224       2.248       2.358
              42 (  A) A  43 (  A) A  44 (  A) A  45 (  A) A  46 (  A) A
                   2.427       2.496       2.625       2.685       2.799
              47 (  A) A  48 (  A) A
                   3.104       3.373
  Block   3:   9 (  A) B  10 (  A) B  11 (  A) B  12 (  A) B  13 (  A) B
                  0.1676      0.2028      0.2315      0.2368      0.3029
              14 (  A) B  15 (  A) B  16 (  A) B  17 (  A) B  18 (  A) B
                  0.4626        0.58      0.6092      0.6891      0.7057
              19 (  A) B  20 (  A) B  21 (  A) B  22 (  A) B
                  0.7765      0.8073      0.8592       0.929
  Block   4:  23 (  A) B  24 (  A) B  25 (  A) B  26 (  A) B  27 (  A) B
                  0.9702       1.006        1.13       1.236       1.241
              28 (  A) B  29 (  A) B  30 (  A) B  31 (  A) B  32 (  A) B
                   1.262       1.291       1.595        1.73       1.746
              33 (  A) B  34 (  A) B  35 (  A) B  36 (  A) B
                   1.811       1.851       1.855       1.903
  Block   5:  37 (  A) B  38 (  A) B  39 (  A) B  40 (  A) B  41 (  A) B
                   1.965       1.974       2.224       2.248       2.358
              42 (  A) B  43 (  A) B  44 (  A) B  45 (  A) B  46 (  A) B
                   2.427       2.496       2.625       2.685       2.799
              47 (  A) B  48 (  A) B
                   3.104       3.373
  Import MO data ...  CPU 0.03 s  wall 0.01 s
  Import HF data ...  CPU 0.49 s  wall 0.15 s
  Import 2e integrals ...  CPU 1.33 s  wall 0.23 s

--------------------------------------------------------------------------------
                                   HF Summary                                   
--------------------------------------------------------------------------------
  Energy:                                                  -78.0397222443 a.u.
  Dip. moment [a.u.]:                  [  -0.000004,    0.000002,    0.000016]
  Total dipole [Debye]:                                               0.000043
  <r^2> [a.u.]:                        [ 175.803236,   35.274764,   11.675867]
  Total <r^2> [a.u.]:                                               222.753867
--------------------------------------------------------------------------------
  HF properties ...  CPU 0.03 s  wall 0.02 s
  MP(1) calculation ...  CPU 0.01 s  wall 0.01 s
  N^6 prerequesite intermediates ...  CPU 0.71 s  wall 0.11 s
  Difference density matrix of state mp2_gs printed to ASCII file 'State_mp2_gs_Difference.txt'
Exporting MP density matrix to file 'Densmat_MP.txt'.
Export successful
  Total density matrix of state mp2_gs printed to ASCII file 'State_mp2_gs_Total.txt'
Exporting MP density matrix to file 'Densmat_MP.txt'.
Export successful

--------------------------------------------------------------------------------
                                 MP(2) Summary                                  
--------------------------------------------------------------------------------
  MP energy contribution:                                   -0.2804428516 a.u.
  Total energy:                                            -78.3201650958 a.u.
  Dip. moment [a.u.]:                  [  -0.000004,    0.000001,    0.000016]
  Total dipole [Debye]:                                               0.000042
  <r^2> [a.u.]:                        [ 175.844088,   35.311179,   11.503102]
  Total <r^2> [a.u.]:                                               222.658370

  Density matrix analysis:
  ------------------------
  NOs
    Occupation of frontier NOs:
       0.0456   1.9379
    Number of electrons: 16.000000
    Number of unpaired electrons: n_u =  0.40701, n_u,nl =  0.04581
    NO participation ratio (PR_NO): 13.876567
  
  
  Mulliken Population Analysis
  Atom      Charge (e)              h+              e-           Del q
  --------------------------------------------------------------------
   1 H        0.054399        0.013940       -0.011291        0.002648
   2 C       -0.108799        0.094490       -0.099785       -0.005296
   3 H        0.054407        0.013939       -0.011291        0.002648
   4 C       -0.108811        0.094489       -0.099786       -0.005297
   5 H        0.054406        0.013939       -0.011291        0.002648
   6 H        0.054398        0.013940       -0.011291        0.002649
  --------------------------------------------------------------------
  Sum:       -0.000000        0.244736       -0.244736        0.000000
  
  Multipole moment analysis of the density matrix
    Molecular charge:                      0.000000
    Number of electrons:                   16.000000
      Center of electronic charge [Ang]: [ -1.561338,  -0.065287,   0.002127]
    Total nuclear charge:                  16.000000
      Center of nuclear charge [Ang]:    [ -1.561339,  -0.065287,   0.002127]
    Dipole moment [D]:                     0.000042
      Cartesian components [D]:          [ -0.000011,   0.000004,   0.000040]
    RMS size of the density [Ang]:         1.206181
      Cartesian components [Ang]:        [  0.799880,   0.783420,   0.448687]
  
  Exciton analysis of the difference density matrix
    <r_h> [Ang]:                  [ -1.561339,  -0.065287,   0.002124]
    <r_e> [Ang]:                  [ -1.561339,  -0.065286,   0.002125]
    |<r_e - r_h>| [Ang]:            0.000001
    Hole size [Ang]:                1.401119
      Cartesian components [Ang]: [  0.852342,   0.839558,   0.729241]
    Electron size [Ang]:            1.361568
      Cartesian components [Ang]: [  0.879334,   0.864016,   0.578026]
--------------------------------------------------------------------------------
  MP(2) calculation ...  CPU 0.41 s  wall 0.26 s
  Start ADC(2)-s ...  CPU 0.02 s  wall 0.01 s
  ADC(2) intermediates ...  CPU 0.11 s  wall 0.02 s
  Starting Davidson for singlet states of irrep A ... 
--------------------------------------------------------------------------------
   It NVec Conv  Avg. Norm  Max. Norm  Conv. states           Remark
--------------------------------------------------------------------------------
        10    0  1.329e-01  4.687e-01  0.4115 n n n n n n n n Guess.
    1   20    0  2.313e-02  1.126e-01  0.3256 n n n n n n n n 
    2   30    0  5.848e-03  2.462e-02  0.3208 n n n n n n n n 
    3   40    0  1.748e-03  1.047e-02  0.3204 n n n n n n n n 
    4   50    0  4.957e-04  3.457e-03  0.3204 n n n n n n n n 
    5   20    0  2.515e-04  1.630e-03  0.3204 n n n n n n n n Subspace collapsed.
    6   30    0  1.076e-04  7.747e-04  0.3204 n n n n n n n n 
    7   40    0  5.056e-05  3.782e-04  0.3204 n n n n n n n n 
    8   50    0  3.847e-05  3.350e-04  0.3204 n n n n n n n n 
    9   20    2  3.361e-05  3.206e-04  0.3204 n y n y n n n n Subspace collapsed.
   10   30    5  1.927e-05  1.797e-04  0.3204 n y y y y y n n 
   11   40    5  8.336e-06  7.640e-05  0.3204 n y y y y y n n 
   12   50    7  3.224e-06  2.780e-05  0.3204 y y y y y y n y 
   13   20    8  2.013e-06  1.645e-05  0.3204 y y y y y y n y Subspace collapsed.
   14   30    8  1.656e-06  1.396e-05  0.3204 y y y y y y n y 
   15   40    8  1.222e-06  1.097e-05  0.3204 y y y y y y n y 
   16   50    8  4.471e-07  3.546e-06  0.3204 y y y y y y n y 
   17   20    8  2.284e-07  1.707e-06  0.3204 y y y y y y n y Subspace collapsed.
   18   30    8  1.526e-07  1.078e-06  0.3204 y y y y y y n y 
   19   40   10  1.169e-07  8.433e-07  0.3204 y y y y y y y y Converged.
--------------------------------------------------------------------------------
  Davidson Summary: 
 ------------------------------------------------------------
  State  0: excitation energy =   0.3204 a.u.   (converged)
  State  1: excitation energy =   0.3294 a.u.   (converged)
  State  2: excitation energy =   0.3360 a.u.   (converged)
  State  3: excitation energy =   0.3583 a.u.   (converged)
  State  4: excitation energy =   0.3734 a.u.   (converged)
  State  5: excitation energy =   0.3863 a.u.   (converged)
  State  6: excitation energy =   0.4211 a.u.   (converged)
  State  7: excitation energy =   0.4435 a.u.   (converged)
  State  8: excitation energy =   0.4537 a.u.   (converged)
  State  9: excitation energy =   0.4598 a.u.   (converged)
 ------------------------------------------------------------

  Singlet states of irrep A ...  CPU 135.13 s  wall 43.45 s
  TDMs ...  CPU 2.20 s  wall 0.83 s
  SDMs ...  CPU 5.09 s  wall 1.50 s
  Starting TPA DIIS iterations ... 
------------------------------------ 
   It     Res. Norm  Remark
------------------------------------
                       Guess.
    1     4.418e+00  
    2     5.868e+00  
    3     1.088e+00  
    4     2.635e-01  
    5     6.619e-02  
    6     2.777e-02  
    7     8.486e-03  
    8     1.534e-03  
    9     5.746e-04  
   10     9.669e-05  
   11     3.098e-05  
   12     4.813e-06  
   13     1.602e-06  
   14     4.713e-07  Converged.
   ... Converged in 14 steps (norm: 4.71329e-07)
------------------------------------
  Starting TPA DIIS iterations ... 
------------------------------------ 
   It     Res. Norm  Remark
------------------------------------
                       Guess.
    1     4.207e+00  
    2     5.578e+00  
    3     1.038e+00  
    4     2.616e-01  
    5     6.592e-02  
    6     2.778e-02  
    7     8.343e-03  
    8     1.553e-03  
    9     5.835e-04  
   10     9.626e-05  
   11     3.129e-05  
   12     4.780e-06  
   13     1.628e-06  
   14     4.668e-07  Converged.
   ... Converged in 14 steps (norm: 4.66773e-07)
------------------------------------
  Starting TPA DIIS iterations ... 
------------------------------------ 
   It     Res. Norm  Remark
------------------------------------
                       Guess.
    1     6.853e-01  
    2     4.799e-01  
    3     1.691e-01  
    4     6.390e-02  
    5     1.864e-02  
    6     6.655e-03  
    7     1.064e-03  
    8     4.548e-04  
    9     1.252e-04  
   10     3.082e-05  
   11     4.996e-06  
   12     1.740e-06  
   13     8.497e-07  Converged.
   ... Converged in 13 steps (norm: 8.4968e-07)
------------------------------------
  Starting TPA DIIS iterations ... 
------------------------------------ 
   It     Res. Norm  Remark
------------------------------------
                       Guess.
    1     4.638e+00  
    2     6.263e+00  
    3     1.150e+00  
    4     2.858e-01  
    5     7.256e-02  
    6     3.067e-02  
    7     9.357e-03  
    8     1.690e-03  
    9     6.365e-04  
   10     1.076e-04  
   11     3.473e-05  
   12     5.431e-06  
   13     1.818e-06  
   14     5.334e-07  Converged.
   ... Converged in 14 steps (norm: 5.33382e-07)
------------------------------------
  Starting TPA DIIS iterations ... 
------------------------------------ 
   It     Res. Norm  Remark
------------------------------------
                       Guess.
    1     4.416e+00  
    2     5.952e+00  
    3     1.097e+00  
    4     2.835e-01  
    5     7.228e-02  
    6     3.069e-02  
    7     9.200e-03  
    8     1.712e-03  
    9     6.467e-04  
   10     1.071e-04  
   11     3.507e-05  
   12     5.391e-06  
   13     1.849e-06  
   14     5.280e-07  Converged.
   ... Converged in 14 steps (norm: 5.27975e-07)
------------------------------------
  Starting TPA DIIS iterations ... 
------------------------------------ 
   It     Res. Norm  Remark
------------------------------------
                       Guess.
    1     6.946e-01  
    2     4.931e-01  
    3     1.765e-01  
    4     7.031e-02  
    5     1.972e-02  
    6     7.122e-03  
    7     1.166e-03  
    8     5.162e-04  
    9     1.449e-04  
   10     3.454e-05  
   11     5.489e-06  
   12     1.972e-06  
   13     1.004e-06  
   14     3.596e-07  Converged.
   ... Converged in 14 steps (norm: 3.59621e-07)
------------------------------------
  Starting TPA DIIS iterations ... 
------------------------------------ 
   It     Res. Norm  Remark
------------------------------------
                       Guess.
    1     4.811e+00  
    2     6.578e+00  
    3     1.199e+00  
    4     3.039e-01  
    5     7.775e-02  
    6     3.304e-02  
    7     1.007e-02  
    8     1.816e-03  
    9     6.871e-04  
   10     1.165e-04  
   11     3.784e-05  
   12     5.943e-06  
   13     1.999e-06  
   14     5.848e-07  Converged.
   ... Converged in 14 steps (norm: 5.84774e-07)
------------------------------------
  Starting TPA DIIS iterations ... 
------------------------------------ 
   It     Res. Norm  Remark
------------------------------------
                       Guess.
    1     4.580e+00  
    2     6.252e+00  
    3     1.144e+00  
    4     3.014e-01  
    5     7.745e-02  
    6     3.307e-02  
    7     9.898e-03  
    8     1.841e-03  
    9     6.983e-04  
   10     1.160e-04  
   11     3.819e-05  
   12     5.897e-06  
   13     2.033e-06  
   14     5.787e-07  Converged.
   ... Converged in 14 steps (norm: 5.78664e-07)
------------------------------------
  Starting TPA DIIS iterations ... 
------------------------------------ 
   It     Res. Norm  Remark
------------------------------------
                       Guess.
    1     7.015e-01  
    2     5.032e-01  
    3     1.823e-01  
    4     7.560e-02  
    5     2.056e-02  
    6     7.501e-03  
    7     1.251e-03  
    8     5.679e-04  
    9     1.615e-04  
   10     3.714e-05  
   11     5.882e-06  
   12     2.167e-06  
   13     1.140e-06  
   14     3.995e-07  Converged.
   ... Converged in 14 steps (norm: 3.99519e-07)
------------------------------------
  Starting TPA DIIS iterations ... 
------------------------------------ 
   It     Res. Norm  Remark
------------------------------------
                       Guess.
    1     5.485e+00  
    2     7.834e+00  
    3     1.389e+00  
    4     3.784e-01  
    5     9.905e-02  
    6     4.287e-02  
    7     1.298e-02  
    8     2.335e-03  
    9     8.971e-04  
   10     1.536e-04  
   11     5.096e-05  
   12     8.113e-06  
   13     2.778e-06  
   14     8.041e-07  Converged.
   ... Converged in 14 steps (norm: 8.04067e-07)
------------------------------------
  Starting TPA DIIS iterations ... 
------------------------------------ 
   It     Res. Norm  Remark
------------------------------------
                       Guess.
    1     5.219e+00  
    2     7.444e+00  
    3     1.324e+00  
    4     3.746e-01  
    5     9.869e-02  
    6     4.296e-02  
    7     1.277e-02  
    8     2.372e-03  
    9     9.125e-04  
   10     1.530e-04  
   11     5.137e-05  
   12     8.039e-06  
   13     2.828e-06  
   14     7.951e-07  Converged.
   ... Converged in 14 steps (norm: 7.95094e-07)
------------------------------------
  Starting TPA DIIS iterations ... 
------------------------------------ 
   It     Res. Norm  Remark
------------------------------------
                       Guess.
    1     7.261e-01  
    2     5.405e-01  
    3     2.042e-01  
    4     9.791e-02  
    5     2.380e-02  
    6     9.059e-03  
    7     1.612e-03  
    8     7.901e-04  
    9     2.315e-04  
   10     4.392e-05  
   11     7.456e-06  
   12     3.014e-06  
   13     1.776e-06  
   14     5.698e-07  Converged.
   ... Converged in 14 steps (norm: 5.69791e-07)
------------------------------------
  Starting TPA DIIS iterations ... 
------------------------------------ 
   It     Res. Norm  Remark
------------------------------------
                       Guess.
    1     6.028e+00  
    2     8.881e+00  
    3     1.541e+00  
    4     4.430e-01  
    5     1.175e-01  
    6     5.150e-02  
    7     1.551e-02  
    8     2.784e-03  
    9     1.081e-03  
   10     1.862e-04  
   11     6.271e-05  
   12     1.006e-05  
   13     3.492e-06  
   14     1.004e-06  
   15     3.264e-07  Converged.
   ... Converged in 15 steps (norm: 3.26404e-07)
------------------------------------
  Starting TPA DIIS iterations ... 
------------------------------------ 
   It     Res. Norm  Remark
------------------------------------
                       Guess.
    1     5.735e+00  
    2     8.439e+00  
    3     1.469e+00  
    4     4.379e-01  
    5     1.171e-01  
    6     5.165e-02  
    7     1.526e-02  
    8     2.832e-03  
    9     1.100e-03  
   10     1.855e-04  
   11     6.314e-05  
   12     9.953e-06  
   13     3.556e-06  
   14     9.930e-07  Converged.
   ... Converged in 14 steps (norm: 9.92964e-07)
------------------------------------
  Starting TPA DIIS iterations ... 
------------------------------------ 
   It     Res. Norm  Remark
------------------------------------
                       Guess.
    1     7.436e-01  
    2     5.686e-01  
    3     2.212e-01  
    4     1.178e-01  
    5     2.646e-02  
    6     1.042e-02  
    7     1.942e-03  
    8     9.827e-04  
    9     2.906e-04  
   10     4.632e-05  
   11     8.805e-06  
   12     3.788e-06  
   13     2.412e-06  
   14     7.214e-07  Converged.
   ... Converged in 14 steps (norm: 7.21356e-07)
------------------------------------
  Starting TPA DIIS iterations ... 
------------------------------------ 
   It     Res. Norm  Remark
------------------------------------
                       Guess.
    1     6.571e+00  
    2     9.956e+00  
    3     1.692e+00  
    4     5.112e-01  
    5     1.370e-01  
    6     6.071e-02  
    7     1.818e-02  
    8     3.257e-03  
    9     1.277e-03  
   10     2.210e-04  
   11     7.533e-05  
   12     1.214e-05  
   13     4.270e-06  
   14     1.226e-06  
   15     4.016e-07  Converged.
   ... Converged in 15 steps (norm: 4.01563e-07)
------------------------------------
  Starting TPA DIIS iterations ... 
------------------------------------ 
   It     Res. Norm  Remark
------------------------------------
                       Guess.
    1     6.250e+00  
    2     9.460e+00  
    3     1.612e+00  
    4     5.047e-01  
    5     1.365e-01  
    6     6.093e-02  
    7     1.790e-02  
    8     3.317e-03  
    9     1.300e-03  
   10     2.201e-04  
   11     7.576e-05  
   12     1.201e-05  
   13     4.348e-06  
   14     1.212e-06  
   15     3.990e-07  Converged.
   ... Converged in 15 steps (norm: 3.98955e-07)
------------------------------------
  Starting TPA DIIS iterations ... 
------------------------------------ 
   It     Res. Norm  Remark
------------------------------------
                       Guess.
    1     7.594e-01  
    2     5.951e-01  
    3     2.378e-01  
    4     1.391e-01  
    5     2.919e-02  
    6     1.185e-02  
    7     2.305e-03  
    8     1.174e-03  
    9     3.491e-04  
   10     4.746e-05  
   11     1.025e-05  
   12     4.626e-06  
   13     3.144e-06  
   14     8.821e-07  Converged.
   ... Converged in 14 steps (norm: 8.82063e-07)
------------------------------------
  Starting TPA DIIS iterations ... 
------------------------------------ 
   It     Res. Norm  Remark
------------------------------------
                       Guess.
    1     8.499e+00  
    2     1.399e+01  
    3     2.219e+00  
    4     7.786e-01  
    5     2.134e-01  
    6     9.756e-02  
    7     2.868e-02  
    8     5.103e-03  
    9     2.058e-03  
   10     3.592e-04  
   11     1.252e-04  
   12     2.050e-05  
   13     7.363e-06  
   14     2.202e-06  
   15     7.075e-07  Converged.
   ... Converged in 15 steps (norm: 7.07517e-07)
------------------------------------
  Starting TPA DIIS iterations ... 
------------------------------------ 
   It     Res. Norm  Remark
------------------------------------
                       Guess.
    1     8.080e+00  
    2     1.329e+01  
    3     2.113e+00  
    4     7.656e-01  
    5     2.128e-01  
    6     9.812e-02  
    7     2.824e-02  
    8     5.213e-03  
    9     2.098e-03  
   10     3.577e-04  
   11     1.256e-04  
   12     2.022e-05  
   13     7.486e-06  
   14     2.177e-06  
   15     7.002e-07  Converged.
   ... Converged in 15 steps (norm: 7.00155e-07)
------------------------------------
  Starting TPA DIIS iterations ... 
------------------------------------ 
   It     Res. Norm  Remark
------------------------------------
                       Guess.
    1     8.057e-01  
    2     6.804e-01  
    3     2.934e-01  
    4     2.220e-01  
    5     3.957e-02  
    6     1.746e-02  
    7     3.837e-03  
    8     1.722e-03  
    9     5.407e-04  
   10     5.482e-05  
   11     1.621e-05  
   12     7.929e-06  
   13     6.378e-06  
   14     1.492e-06  
   15     5.750e-07  Converged.
   ... Converged in 15 steps (norm: 5.7501e-07)
------------------------------------
  Starting TPA DIIS iterations ... 
------------------------------------ 
   It     Res. Norm  Remark
------------------------------------
                       Guess.
    1     1.027e+01  
    2     1.794e+01  
    3     2.691e+00  
    4     1.051e+00  
    5     2.920e-01  
    6     1.363e-01  
    7     3.947e-02  
    8     6.990e-03  
    9     2.875e-03  
   10     5.027e-04  
   11     1.748e-04  
   12     2.932e-05  
   13     1.043e-05  
   14     3.355e-06  
   15     1.073e-06  
   16     2.313e-07  Converged.
   ... Converged in 16 steps (norm: 2.31274e-07)
------------------------------------
  Starting TPA DIIS iterations ... 
------------------------------------ 
   It     Res. Norm  Remark
------------------------------------
                       Guess.
    1     9.760e+00  
    2     1.704e+01  
    3     2.562e+00  
    4     1.030e+00  
    5     2.912e-01  
    6     1.373e-01  
    7     3.887e-02  
    8     7.155e-03  
    9     2.931e-03  
   10     5.006e-04  
   11     1.751e-04  
   12     2.890e-05  
   13     1.060e-05  
   14     3.306e-06  
   15     1.064e-06  
   16     2.343e-07  Converged.
   ... Converged in 16 steps (norm: 2.34309e-07)
------------------------------------
  Starting TPA DIIS iterations ... 
------------------------------------ 
   It     Res. Norm  Remark
------------------------------------
                       Guess.
    1     8.391e-01  
    2     7.495e-01  
    3     3.408e-01  
    4     3.006e-01  
    5     4.986e-02  
    6     2.298e-02  
    7     5.492e-03  
    8     1.994e-03  
    9     6.969e-04  
   10     7.091e-05  
   11     2.266e-05  
   12     1.118e-05  
   13     1.001e-05  
   14     2.051e-06  
   15     7.346e-07  Converged.
   ... Converged in 15 steps (norm: 7.34554e-07)
------------------------------------
  Starting TPA DIIS iterations ... 
------------------------------------ 
   It     Res. Norm  Remark
------------------------------------
                       Guess.
    1     1.127e+01  
    2     2.028e+01  
    3     2.953e+00  
    4     1.213e+00  
    5     3.393e-01  
    6     1.600e-01  
    7     4.598e-02  
    8     8.125e-03  
    9     3.373e-03  
   10     5.896e-04  
   11     2.037e-04  
   12     3.483e-05  
   13     1.228e-05  
   14     4.104e-06  
   15     1.358e-06  
   16     2.898e-07  Converged.
   ... Converged in 16 steps (norm: 2.89778e-07)
------------------------------------
  Starting TPA DIIS iterations ... 
------------------------------------ 
   It     Res. Norm  Remark
------------------------------------
                       Guess.
    1     1.071e+01  
    2     1.926e+01  
    3     2.810e+00  
    4     1.188e+00  
    5     3.385e-01  
    6     1.613e-01  
    7     4.529e-02  
    8     8.325e-03  
    9     3.439e-03  
   10     5.869e-04  
   11     2.041e-04  
   12     3.431e-05  
   13     1.248e-05  
   14     4.032e-06  
   15     1.350e-06  
   16     2.918e-07  Converged.
   ... Converged in 16 steps (norm: 2.91783e-07)
------------------------------------
  Starting TPA DIIS iterations ... 
------------------------------------ 
   It     Res. Norm  Remark
------------------------------------
                       Guess.
    1     8.553e-01  
    2     7.858e-01  
    3     3.663e-01  
    4     3.429e-01  
    5     5.589e-02  
    6     2.610e-02  
    7     6.495e-03  
    8     2.076e-03  
    9     7.799e-04  
   10     8.223e-05  
   11     2.664e-05  
   12     1.311e-05  
   13     1.233e-05  
   14     2.349e-06  
   15     7.980e-07  Converged.
   ... Converged in 15 steps (norm: 7.98016e-07)
------------------------------------
  Starting TPA DIIS iterations ... 
------------------------------------ 
   It     Res. Norm  Remark
------------------------------------
                       Guess.
    1     1.195e+01  
    2     2.190e+01  
    3     3.129e+00  
    4     1.326e+00  
    5     3.726e-01  
    6     1.768e-01  
    7     5.055e-02  
    8     8.922e-03  
    9     3.725e-03  
   10     6.506e-04  
   11     2.236e-04  
   12     3.880e-05  
   13     1.363e-05  
   14     4.649e-06  
   15     1.595e-06  
   16     3.341e-07  Converged.
   ... Converged in 16 steps (norm: 3.34075e-07)
------------------------------------
  Starting TPA DIIS iterations ... 
------------------------------------ 
   It     Res. Norm  Remark
------------------------------------
                       Guess.
    1     1.135e+01  
    2     2.080e+01  
    3     2.977e+00  
    4     1.297e+00  
    5     3.717e-01  
    6     1.782e-01  
    7     4.979e-02  
    8     9.145e-03  
    9     3.797e-03  
   10     6.476e-04  
   11     2.242e-04  
   12     3.822e-05  
   13     1.384e-05  
   14     4.561e-06  
   15     1.587e-06  
   16     3.334e-07  Converged.
   ... Converged in 16 steps (norm: 3.334e-07)
------------------------------------
  Starting TPA DIIS iterations ... 
------------------------------------ 
   It     Res. Norm  Remark
------------------------------------
                       Guess.
    1     8.655e-01  
    2     8.096e-01  
    3     3.832e-01  
    4     3.702e-01  
    5     6.006e-02  
    6     2.818e-02  
    7     7.195e-03  
    8     2.115e-03  
    9     8.347e-04  
   10     9.035e-05  
   11     2.947e-05  
   12     1.447e-05  
   13     1.404e-05  
   14     2.542e-06  
   15     8.357e-07  Converged.
   ... Converged in 15 steps (norm: 8.35716e-07)
------------------------------------
  Two-photon absorbption ...  CPU 151.85 s  wall 41.24 s
  Transition density matrix of state singlet_A_1 printed to ASCII file 'State_singlet_A_1_Transition.txt'
  Transition density matrix of state singlet_A_2 printed to ASCII file 'State_singlet_A_2_Transition.txt'
  Transition density matrix of state singlet_A_3 printed to ASCII file 'State_singlet_A_3_Transition.txt'
  Transition density matrix of state singlet_A_4 printed to ASCII file 'State_singlet_A_4_Transition.txt'
  Transition density matrix of state singlet_A_5 printed to ASCII file 'State_singlet_A_5_Transition.txt'
  Transition density matrix of state singlet_A_6 printed to ASCII file 'State_singlet_A_6_Transition.txt'
  Transition density matrix of state singlet_A_7 printed to ASCII file 'State_singlet_A_7_Transition.txt'
  Transition density matrix of state singlet_A_8 printed to ASCII file 'State_singlet_A_8_Transition.txt'
  Transition density matrix of state singlet_A_9 printed to ASCII file 'State_singlet_A_9_Transition.txt'
  Transition density matrix of state singlet_A_10 printed to ASCII file 'State_singlet_A_10_Transition.txt'
  Transition properties ...  CPU 0.34 s  wall 0.65 s
  Difference density matrix of state singlet_A_1 printed to ASCII file 'State_singlet_A_1_Difference.txt'
  Total density matrix of state singlet_A_1 printed to ASCII file 'State_singlet_A_1_Total.txt'
  Difference density matrix of state singlet_A_2 printed to ASCII file 'State_singlet_A_2_Difference.txt'
  Total density matrix of state singlet_A_2 printed to ASCII file 'State_singlet_A_2_Total.txt'
  Difference density matrix of state singlet_A_3 printed to ASCII file 'State_singlet_A_3_Difference.txt'
  Total density matrix of state singlet_A_3 printed to ASCII file 'State_singlet_A_3_Total.txt'
  Difference density matrix of state singlet_A_4 printed to ASCII file 'State_singlet_A_4_Difference.txt'
  Total density matrix of state singlet_A_4 printed to ASCII file 'State_singlet_A_4_Total.txt'
  Difference density matrix of state singlet_A_5 printed to ASCII file 'State_singlet_A_5_Difference.txt'
  Total density matrix of state singlet_A_5 printed to ASCII file 'State_singlet_A_5_Total.txt'
  Difference density matrix of state singlet_A_6 printed to ASCII file 'State_singlet_A_6_Difference.txt'
  Total density matrix of state singlet_A_6 printed to ASCII file 'State_singlet_A_6_Total.txt'
  Difference density matrix of state singlet_A_7 printed to ASCII file 'State_singlet_A_7_Difference.txt'
  Total density matrix of state singlet_A_7 printed to ASCII file 'State_singlet_A_7_Total.txt'
  Difference density matrix of state singlet_A_8 printed to ASCII file 'State_singlet_A_8_Difference.txt'
  Total density matrix of state singlet_A_8 printed to ASCII file 'State_singlet_A_8_Total.txt'
  Difference density matrix of state singlet_A_9 printed to ASCII file 'State_singlet_A_9_Difference.txt'
  Total density matrix of state singlet_A_9 printed to ASCII file 'State_singlet_A_9_Total.txt'
  Difference density matrix of state singlet_A_10 printed to ASCII file 'State_singlet_A_10_Difference.txt'
  Total density matrix of state singlet_A_10 printed to ASCII file 'State_singlet_A_10_Total.txt'
  Properties ...  CPU 0.65 s  wall 1.05 s
  ISR TDMS ...  CPU 27.39 s  wall 9.11 s
  ISR transition properties ...  CPU 0.54 s  wall 0.27 s
  Sum-over-states TPA ...  CPU 0.00 s  wall 0.00 s

--------------------------------------------------------------------------------
                   State-averaged natural transition orbitals
--------------------------------------------------------------------------------
--------------------------------------------------------------------------------
  SA-NTO decomposition ...  CPU 0.01 s  wall 0.03 s

--------------------------------------------------------------------------------
                             Excited State Summary
--------------------------------------------------------------------------------
--------------------------------------------------------------------------------

  Excited state 1 (singlet, A)                                     [converged]
  ----------------------------------------------------------------------------
  Term symbol:  2 (1) A                                     R^2 =  1.17493e-09

  Total energy:                                            -77.9997689471 a.u.
  Excitation energy:                                               8.718423 eV

  Osc. strength:                                                      0.445413
  Trans. dip. moment [a.u.]:           [  -1.047052,    0.994426,    0.009705]
  <i|r^2|0> [a.u.]:                    [  -6.178620,    0.245414,   -0.000149]
  Two-photon absorption cross-section (SoS) [a.u.]:                   0.000000
  Two-photon absorption matrix (SoS) [a.u.]:
                                       |   -0.000036   -0.000001   -0.000016 |
                                       |   -0.000001   -0.000015   -0.000045 |
                                       |   -0.000016   -0.000045   -0.000020 |
  Two-photon absorption cross-section [a.u.]:                         0.000001
  Two-photon absorption matrix [a.u.]:
                                       |   -0.000020   -0.000018    0.000240 |
                                       |   -0.000018    0.000011    0.000196 |
                                       |    0.000240    0.000196    0.000042 |

  Dip. moment [a.u.]:                  [  -0.000004,    0.000000,    0.000019]
  Total dipole [Debye]:                                               0.000050
  <r^2> [a.u.]:                        [ 176.590684,   35.997433,   11.911821]
  Total <r^2> [a.u.]:                                               224.499937

  V1^2 = 0.9713, V2^2 = 0.0287

  Important amplitudes:
      occ i     occ j     vir a      vir b          v   
    -----------------------------------------------------
     8 (A) A              9 (A) A                -0.6809
     6 (A) A             14 (A) A                 0.0621
     4 (A) A             10 (A) A                -0.0611
     7 (A) A             16 (A) A                 0.0574
     5 (A) A             13 (A) A                 0.0525
     6 (A) A             23 (A) A                 0.0484
     8 (A) A             20 (A) A                -0.0349
     6 (A) A             19 (A) A                 0.0306
     3 (A) A             12 (A) A                 0.0285
     5 (A) A             22 (A) A                -0.0217
     7 (A) A             11 (A) A                -0.0188
     4 (A) A             24 (A) A                -0.0188
     3 (A) A             26 (A) A                 0.0187
     8 (A) A   8 (A) B   17 (A) A   20 (A) B      0.0184
     8 (A) A   8 (A) B    9 (A) A   28 (A) B      0.0168
     6 (A) A             26 (A) A                 0.0163
     7 (A) A             21 (A) A                 0.0151
     3 (A) A             14 (A) A                 0.0142
     6 (A) A             12 (A) A                -0.0132
     3 (A) A   4 (A) B    9 (A) A    9 (A) B      0.0129
     3 (A) A             19 (A) A                 0.0121
     8 (A) A   8 (A) B   18 (A) A   19 (A) B     -0.0111
     7 (A) A             32 (A) A                 0.0097
     7 (A) A             36 (A) A                 0.0086
     3 (A) A             23 (A) A                 0.0082
     8 (A) A   8 (A) B   25 (A) A   29 (A) B      0.0076
     6 (A) A             35 (A) A                -0.0072
     6 (A) A             40 (A) A                 0.0067
     3 (A) A   6 (A) B    9 (A) A   28 (A) B      0.0065
     5 (A) A   8 (A) B   11 (A) A    9 (A) B      0.0061
     6 (A) A   8 (A) A   19 (A) A   28 (A) A      0.0060
     7 (A) A   8 (A) B   13 (A) A   20 (A) B      0.0060
     5 (A) A   7 (A) B    9 (A) A    9 (A) B     -0.0060
     5 (A) A   8 (A) B   11 (A) A   20 (A) B     -0.0060
     5 (A) A   8 (A) B   16 (A) A    9 (A) B      0.0059
     5 (A) A             27 (A) A                 0.0059
     3 (A) A   5 (A) B    9 (A) A   25 (A) B      0.0058
     7 (A) A   8 (A) B   22 (A) A   20 (A) B     -0.0057
     3 (A) A             40 (A) A                 0.0056
     8 (A) A   8 (A) B   19 (A) A   30 (A) B     -0.0056
    -----------------------------------------------------

  Density matrix analysis:
  ------------------------
  NOs
    Occupation of frontier NOs:
       0.9492   1.0219
    Number of electrons: 16.000000
    Number of unpaired electrons: n_u =  2.31636, n_u,nl =  2.03323
    NO participation ratio (PR_NO):  2.872646
  
  
  Mulliken Population Analysis
  Atom      Charge (e)              h+              e-           Del q
  --------------------------------------------------------------------
   1 H        0.062338        0.020360       -0.012422        0.007939
   2 C       -0.124678        0.490577       -0.506455       -0.015878
   3 H        0.062347        0.020362       -0.012421        0.007940
   4 C       -0.124691        0.490576       -0.506456       -0.015881
   5 H        0.062347        0.020362       -0.012421        0.007941
   6 H        0.062337        0.020360       -0.012421        0.007939
  --------------------------------------------------------------------
  Sum:       -0.000000        1.062597       -1.062597        0.000000
  
  Multipole moment analysis of the density matrix
    Molecular charge:                      0.000000
    Number of electrons:                   16.000000
      Center of electronic charge [Ang]: [ -1.561338,  -0.065287,   0.002126]
    Total nuclear charge:                  16.000000
      Center of nuclear charge [Ang]:    [ -1.561339,  -0.065287,   0.002127]
    Dipole moment [D]:                     0.000050
      Cartesian components [D]:          [ -0.000010,   0.000000,   0.000049]
    RMS size of the density [Ang]:         1.219469
      Cartesian components [Ang]:        [  0.808006,   0.791048,   0.456589]
  
  Exciton analysis of the difference density matrix
    <r_h> [Ang]:                  [ -1.561336,  -0.065288,   0.002119]
    <r_e> [Ang]:                  [ -1.561336,  -0.065287,   0.002117]
    |<r_e - r_h>| [Ang]:            0.000002
    Hole size [Ang]:                1.287276
      Cartesian components [Ang]: [  0.730073,   0.714652,   0.783164]
    Electron size [Ang]:            1.463691
      Cartesian components [Ang]: [  0.854258,   0.831611,   0.849151]

  Transition density matrix analysis:
  -----------------------------------
  
  CT numbers (Mulliken)
    omega =     0.9532
    <Phe> =    -0.1608
  
  Exciton analysis of the transition density matrix
    Trans. dipole moment [D]:             1.835210
      Cartesian components [D]:         [ -1.330670,   1.263789,   0.012333]
    <r_h> [Ang]:                        [ -1.561335,  -0.065289,   0.002120]
    <r_e> [Ang]:                        [ -1.561336,  -0.065287,   0.002116]
    |<r_e - r_h>| [Ang]:                  0.000005
    Hole size [Ang]:                      1.214960
      Cartesian components [Ang]:       [  0.650305,   0.637415,   0.804321]
    Electron size [Ang]:                  1.486395
      Cartesian components [Ang]:       [  0.864634,   0.840394,   0.869204]
    RMS electron-hole separation [Ang]:   1.937625
      Cartesian components [Ang]:       [  1.107213,   1.076678,   1.170142]
    Covariance(r_h, r_e) [Ang^2]:        -0.034446
    Correlation coefficient:             -0.019074
    Center-of-mass size [Ang]:            0.950869
      Cartesian components [Ang]:       [  0.527981,   0.516209,   0.599096]

  Decomposition into state-averaged NTOs
    H- 0 -> L+ 0:  0.6697 ( 89.7%)
    H- 2 -> L+ 5: -0.0834 (  1.4%)
                   omega =  95.3%
  ----------------------------------------------------------------------------


  Excited state 2 (singlet, A)                                     [converged]
  ----------------------------------------------------------------------------
  Term symbol:  3 (1) A                                     R^2 =  4.83432e-12

  Total energy:                                            -77.9907844567 a.u.
  Excitation energy:                                               8.962903 eV

  Osc. strength:                                                      0.000000
  Trans. dip. moment [a.u.]:           [   0.000497,   -0.000455,   -0.000010]
  <i|r^2|0> [a.u.]:                    [   0.068806,    0.086636,   -0.152624]
  Two-photon absorption cross-section (SoS) [a.u.]:                   4.586159
  Two-photon absorption matrix (SoS) [a.u.]:
                                       |    0.050050    0.057538   -0.515628 |
                                       |    0.057538    0.065675   -0.542200 |
                                       |   -0.515628   -0.542200   -0.115726 |
  Two-photon absorption cross-section [a.u.]:                         0.157774
  Two-photon absorption matrix [a.u.]:
                                       |   -0.008502   -0.010632    0.095713 |
                                       |   -0.010632   -0.012961    0.100486 |
                                       |    0.095713    0.100486    0.021463 |

  Dip. moment [a.u.]:                  [  -0.000051,    0.000056,    0.000037]
  Total dipole [Debye]:                                               0.000216
  <r^2> [a.u.]:                        [ 174.928062,   34.345391,   13.211193]
  Total <r^2> [a.u.]:                                               222.484646

  V1^2 = 0.9540, V2^2 = 0.0460

  Important amplitudes:
      occ i     occ j     vir a      vir b          v   
    -----------------------------------------------------
     7 (A) A              9 (A) A                 0.6688
     8 (A) A             11 (A) A                 0.1502
     7 (A) A             20 (A) A                 0.0756
     5 (A) A   8 (A) B    9 (A) A    9 (A) B      0.0316
     8 (A) A             16 (A) A                 0.0279
     8 (A) A             21 (A) A                -0.0177
     5 (A) A             28 (A) A                 0.0151
     4 (A) A   7 (A) B    9 (A) A   19 (A) B      0.0136
     5 (A) A   7 (A) B    9 (A) A   16 (A) B      0.0134
     7 (A) A   8 (A) B   20 (A) A   17 (A) B     -0.0106
     7 (A) A   8 (A) A    9 (A) A   28 (A) A      0.0098
     5 (A) A   8 (A) B    9 (A) A   20 (A) B      0.0095
     4 (A) A   6 (A) B    9 (A) A   16 (A) B      0.0091
     5 (A) A   6 (A) A    9 (A) A   23 (A) A      0.0090
     5 (A) A   6 (A) A    9 (A) A   14 (A) A      0.0089
     5 (A) A   6 (A) B    9 (A) A   19 (A) B      0.0086
     8 (A) A   7 (A) B    9 (A) A   28 (A) B     -0.0086
     4 (A) A   5 (A) A    9 (A) A   10 (A) A      0.0085
     6 (A) A   7 (A) B    9 (A) A   18 (A) B     -0.0085
     3 (A) A   7 (A) B    9 (A) A   18 (A) B      0.0080
     5 (A) A   6 (A) B    9 (A) A   23 (A) B      0.0080
     5 (A) A   7 (A) A    9 (A) A   16 (A) A      0.0078
     4 (A) A   8 (A) B    9 (A) A   25 (A) B      0.0076
     4 (A) A   7 (A) B   19 (A) A    9 (A) B      0.0075
     7 (A) A   8 (A) B   17 (A) A   20 (A) B     -0.0074
     5 (A) A   5 (A) B    9 (A) A   13 (A) B      0.0073
     7 (A) A   8 (A) B   19 (A) A   18 (A) B      0.0071
     4 (A) A   5 (A) B    9 (A) A   18 (A) B     -0.0069
     5 (A) A   8 (A) A    9 (A) A   20 (A) A      0.0068
     7 (A) A   7 (A) B   20 (A) A   22 (A) B      0.0066
     7 (A) A   8 (A) B   17 (A) A    9 (A) B     -0.0065
     5 (A) A   6 (A) B    9 (A) A   14 (A) B      0.0064
     5 (A) A   7 (A) B   11 (A) A   20 (A) B      0.0061
     4 (A) A   5 (A) B   10 (A) A    9 (A) B     -0.0061
     4 (A) A   7 (A) A    9 (A) A   19 (A) A      0.0061
     5 (A) A             38 (A) A                 0.0060
     4 (A) A   6 (A) B   16 (A) A    9 (A) B      0.0058
     4 (A) A   8 (A) A    9 (A) A   25 (A) A      0.0057
     6 (A) A   7 (A) A   19 (A) A   28 (A) A     -0.0056
     5 (A) A   7 (A) A   11 (A) A   20 (A) A      0.0053
    -----------------------------------------------------

  Density matrix analysis:
  ------------------------
  NOs
    Occupation of frontier NOs:
       0.9568   1.0547
    Number of electrons: 16.000000
    Number of unpaired electrons: n_u =  2.35816, n_u,nl =  2.06434
    NO participation ratio (PR_NO):  3.040527
  
  
  Mulliken Population Analysis
  Atom      Charge (e)              h+              e-           Del q
  --------------------------------------------------------------------
   1 H        0.154658        0.124891       -0.024633        0.100258
   2 C       -0.309298        0.272638       -0.473136       -0.200499
   3 H        0.154633        0.124866       -0.024640        0.100226
   4 C       -0.309307        0.272657       -0.473154       -0.200496
   5 H        0.154648        0.124876       -0.024635        0.100242
   6 H        0.154666        0.124905       -0.024637        0.100268
  --------------------------------------------------------------------
  Sum:       -0.000000        1.044834       -1.044834        0.000000
  
  Multipole moment analysis of the density matrix
    Molecular charge:                      -0.000000
    Number of electrons:                   16.000000
      Center of electronic charge [Ang]: [ -1.561337,  -0.065288,   0.002126]
    Total nuclear charge:                  16.000000
      Center of nuclear charge [Ang]:    [ -1.561339,  -0.065287,   0.002127]
    Dipole moment [D]:                     0.000216
      Cartesian components [D]:          [ -0.000131,   0.000143,   0.000095]
    RMS size of the density [Ang]:         1.204922
      Cartesian components [Ang]:        [  0.789797,   0.772556,   0.480848]
  
  Exciton analysis of the difference density matrix
    <r_h> [Ang]:                  [ -1.561372,  -0.065260,   0.002129]
    <r_e> [Ang]:                  [ -1.561348,  -0.065288,   0.002118]
    |<r_e - r_h>| [Ang]:            0.000038
    Hole size [Ang]:                1.494930
      Cartesian components [Ang]: [  1.013134,   1.000444,   0.455506]
    Electron size [Ang]:            1.479299
      Cartesian components [Ang]: [  0.883747,   0.861419,   0.815644]

  Transition density matrix analysis:
  -----------------------------------
  
  CT numbers (Mulliken)
    omega =     0.9213
    <Phe> =    -0.0116
  
  Exciton analysis of the transition density matrix
    Trans. dipole moment [D]:             0.000856
      Cartesian components [D]:         [  0.000631,  -0.000578,  -0.000012]
    <r_h> [Ang]:                        [ -1.561378,  -0.065255,   0.002131]
    <r_e> [Ang]:                        [ -1.561344,  -0.065291,   0.002116]
    |<r_e - r_h>| [Ang]:                  0.000052
    Hole size [Ang]:                      1.525682
      Cartesian components [Ang]:       [  1.037864,   1.025137,   0.446807]
    Electron size [Ang]:                  1.474913
      Cartesian components [Ang]:       [  0.872842,   0.849740,   0.831539]
    RMS electron-hole separation [Ang]:   2.102067
      Cartesian components [Ang]:       [  1.340077,   1.316523,   0.943211]
    Covariance(r_h, r_e) [Ang^2]:         0.042194
    Correlation coefficient:              0.018751
    Center-of-mass size [Ang]:            1.070918
      Cartesian components [Ang]:       [  0.685971,   0.673182,   0.472372]

  Decomposition into state-averaged NTOs
    H- 1 -> L+ 0: -0.6610 ( 87.4%)
    H- 0 -> L+ 2: -0.1501 (  4.5%)
                   omega =  92.1%
  ----------------------------------------------------------------------------


  Excited state 3 (singlet, A)                                     [converged]
  ----------------------------------------------------------------------------
  Term symbol:  4 (1) A                                     R^2 =  2.71939e-11

  Total energy:                                            -77.9841725636 a.u.
  Excitation energy:                                               9.142822 eV

  Osc. strength:                                                      0.023930
  Trans. dip. moment [a.u.]:           [   0.015523,    0.019808,   -0.325881]
  <i|r^2|0> [a.u.]:                    [   0.091382,    0.005081,    0.002629]
  Two-photon absorption cross-section (SoS) [a.u.]:                   0.000016
  Two-photon absorption matrix (SoS) [a.u.]:
                                       |   -0.001346   -0.000069   -0.000153 |
                                       |   -0.000069    0.001409    0.000036 |
                                       |   -0.000153    0.000036    0.000134 |
  Two-photon absorption cross-section [a.u.]:                         0.000008
  Two-photon absorption matrix [a.u.]:
                                       |   -0.000912   -0.000072   -0.000135 |
                                       |   -0.000072    0.001077    0.000040 |
                                       |   -0.000135    0.000040    0.000079 |

  Dip. moment [a.u.]:                  [   0.000045,    0.000043,   -0.000017]
  Total dipole [Debye]:                                               0.000163
  <r^2> [a.u.]:                        [ 181.371137,   40.989421,   11.056272]
  Total <r^2> [a.u.]:                                               233.416830

  V1^2 = 0.9581, V2^2 = 0.0419

  Important amplitudes:
      occ i     occ j     vir a      vir b          v   
    -----------------------------------------------------
     8 (A) A             10 (A) A                 0.6888
     8 (A) A             24 (A) A                 0.0508
     8 (A) A             18 (A) A                -0.0328
     4 (A) A              9 (A) A                 0.0245
     8 (A) A   8 (A) B    9 (A) A   12 (A) B     -0.0223
     8 (A) A   8 (A) B   10 (A) A   17 (A) B      0.0172
     5 (A) A   8 (A) B   11 (A) A   10 (A) B     -0.0169
     8 (A) A             15 (A) A                 0.0151
     7 (A) A   8 (A) B   13 (A) A   10 (A) B      0.0143
     4 (A) A   8 (A) B   12 (A) A   10 (A) B     -0.0112
     6 (A) A   8 (A) A   10 (A) A   15 (A) A     -0.0112
     7 (A) A   8 (A) B   22 (A) A   10 (A) B     -0.0109
     6 (A) A   8 (A) B   15 (A) A   10 (A) B      0.0109
     4 (A) A   8 (A) A   10 (A) A   12 (A) A      0.0108
     7 (A) A   8 (A) A   10 (A) A   22 (A) A      0.0099
     7 (A) A   8 (A) A   10 (A) A   13 (A) A     -0.0098
     5 (A) A   8 (A) A   10 (A) A   11 (A) A      0.0097
     5 (A) A   8 (A) B   21 (A) A   10 (A) B      0.0094
     6 (A) A   8 (A) B   10 (A) A   10 (A) B     -0.0089
     6 (A) A   8 (A) A   10 (A) A   18 (A) A     -0.0086
     7 (A) A   8 (A) A   12 (A) A   16 (A) A      0.0083
     3 (A) A   4 (A) B   10 (A) A    9 (A) B     -0.0080
     5 (A) A   8 (A) A   10 (A) A   21 (A) A     -0.0079
     8 (A) A   8 (A) B    9 (A) A   23 (A) B      0.0076
     4 (A) A   8 (A) B   19 (A) A   10 (A) B     -0.0075
     8 (A) A   8 (A) B   10 (A) A   28 (A) B     -0.0074
     5 (A) A   8 (A) B   10 (A) A   11 (A) B     -0.0072
     7 (A) A   8 (A) B   16 (A) A   12 (A) B     -0.0072
     3 (A) A   8 (A) A   10 (A) A   24 (A) A     -0.0072
     3 (A) A   8 (A) B   10 (A) A   10 (A) B      0.0071
     8 (A) A   8 (A) B    9 (A) A   19 (A) B     -0.0069
     3 (A) A   8 (A) B   10 (A) A   18 (A) B     -0.0068
     6 (A) A   8 (A) B   18 (A) A   10 (A) B      0.0065
     3 (A) A   6 (A) B   10 (A) A   28 (A) B     -0.0062
     7 (A) A   8 (A) B   12 (A) A   11 (A) B     -0.0059
     6 (A) A             28 (A) A                 0.0058
     5 (A) A   8 (A) A   10 (A) A   16 (A) A      0.0057
     3 (A) A   5 (A) B   10 (A) A   25 (A) B     -0.0056
     6 (A) A   8 (A) A   11 (A) A   16 (A) A      0.0055
     4 (A) A   8 (A) A   10 (A) A   23 (A) A     -0.0055
    -----------------------------------------------------

  Density matrix analysis:
  ------------------------
  NOs
    Occupation of frontier NOs:
       0.9812   0.9847
    Number of electrons: 16.000000
    Number of unpaired electrons: n_u =  2.28815, n_u,nl =  2.02495
    NO participation ratio (PR_NO):  2.699988
  
  
  Mulliken Population Analysis
  Atom      Charge (e)              h+              e-           Del q
  --------------------------------------------------------------------
   1 H       -0.156653        0.054250       -0.265303       -0.211053
   2 C        0.313311        0.538138       -0.116028        0.422110
   3 H       -0.156654        0.054251       -0.265311       -0.211060
   4 C        0.313302        0.538135       -0.116023        0.422112
   5 H       -0.156639        0.054252       -0.265296       -0.211045
   6 H       -0.156667        0.054250       -0.265315       -0.211065
  --------------------------------------------------------------------
  Sum:       -0.000000        1.293277       -1.293277        0.000000
  
  Multipole moment analysis of the density matrix
    Molecular charge:                      0.000000
    Number of electrons:                   16.000000
      Center of electronic charge [Ang]: [ -1.561340,  -0.065288,   0.002128]
    Total nuclear charge:                  16.000000
      Center of nuclear charge [Ang]:    [ -1.561339,  -0.065287,   0.002127]
    Dipole moment [D]:                     0.000163
      Cartesian components [D]:          [  0.000114,   0.000109,  -0.000042]
    RMS size of the density [Ang]:         1.281858
      Cartesian components [Ang]:        [  0.858216,   0.844468,   0.439886]
  
  Exciton analysis of the difference density matrix
    <r_h> [Ang]:                  [ -1.561338,  -0.065288,   0.002122]
    <r_e> [Ang]:                  [ -1.561358,  -0.065304,   0.002136]
    |<r_e - r_h>| [Ang]:            0.000029
    Hole size [Ang]:                1.413040
      Cartesian components [Ang]: [  0.836528,   0.822638,   0.787509]
    Electron size [Ang]:            2.079930
      Cartesian components [Ang]: [  1.377123,   1.380659,   0.723477]

  Transition density matrix analysis:
  -----------------------------------
  
  CT numbers (Mulliken)
    omega =     0.9251
    <Phe> =    -0.0109
  
  Exciton analysis of the transition density matrix
    Trans. dipole moment [D]:             0.415386
      Cartesian components [D]:         [  0.019728,   0.025174,  -0.414153]
    <r_h> [Ang]:                        [ -1.561334,  -0.065288,   0.002118]
    <r_e> [Ang]:                        [ -1.561364,  -0.065311,   0.002139]
    |<r_e - r_h>| [Ang]:                  0.000044
    Hole size [Ang]:                      1.213438
      Cartesian components [Ang]:       [  0.636787,   0.624220,   0.822972]
    Electron size [Ang]:                  2.302248
      Cartesian components [Ang]:       [  1.523386,   1.529612,   0.799955]
    RMS electron-hole separation [Ang]:   2.592354
      Cartesian components [Ang]:       [  1.643478,   1.644930,   1.146073]
    Covariance(r_h, r_e) [Ang^2]:         0.026239
    Correlation coefficient:              0.009392
    Center-of-mass size [Ang]:            1.306259
      Cartesian components [Ang]:       [  0.829365,   0.829598,   0.574660]

  Decomposition into state-averaged NTOs
    H- 0 -> L+ 1:  0.6794 ( 92.3%)
                   omega =  92.5%
  ----------------------------------------------------------------------------


  Excited state 4 (singlet, A)                                     [converged]
  ----------------------------------------------------------------------------
  Term symbol:  5 (1) A                                     R^2 =  4.54370e-12

  Total energy:                                            -77.9618199641 a.u.
  Excitation energy:                                               9.751067 eV

  Osc. strength:                                                      0.000000
  Trans. dip. moment [a.u.]:           [   0.000161,   -0.000150,   -0.000006]
  <i|r^2|0> [a.u.]:                    [  -0.013190,   -0.018727,    0.032830]
  Two-photon absorption cross-section (SoS) [a.u.]:                 137.606557
  Two-photon absorption matrix (SoS) [a.u.]:
                                       |   -0.273664   -0.315153    2.824669 |
                                       |   -0.315153   -0.360238    2.969764 |
                                       |    2.824669    2.969764    0.633904 |
  Two-photon absorption cross-section [a.u.]:                        82.281807
  Two-photon absorption matrix [a.u.]:
                                       |   -0.212208   -0.243728    2.184161 |
                                       |   -0.243728   -0.277973    2.296514 |
                                       |    2.184161    2.296514    0.490181 |

  Dip. moment [a.u.]:                  [  -0.000050,   -0.000049,   -0.000028]
  Total dipole [Debye]:                                               0.000191
  <r^2> [a.u.]:                        [ 181.496787,   41.008587,   10.783776]
  Total <r^2> [a.u.]:                                               233.289150

  V1^2 = 0.9633, V2^2 = 0.0367

  Important amplitudes:
      occ i     occ j     vir a      vir b          v   
    -----------------------------------------------------
     8 (A) A             11 (A) A                -0.6691
     7 (A) A              9 (A) A                 0.1523
     8 (A) A             21 (A) A                 0.0780
     8 (A) A             16 (A) A                -0.0670
     8 (A) A   8 (A) B    9 (A) A   13 (A) B     -0.0167
     5 (A) A   8 (A) B   11 (A) A   11 (A) B      0.0156
     7 (A) A             20 (A) A                 0.0139
     8 (A) A   8 (A) B   11 (A) A   17 (A) B     -0.0137
     7 (A) A   8 (A) B   13 (A) A   11 (A) B     -0.0127
     4 (A) A   8 (A) B   12 (A) A   11 (A) B      0.0110
     8 (A) A   8 (A) B    9 (A) A   22 (A) B      0.0110
     5 (A) A   8 (A) A   11 (A) A   21 (A) A      0.0110
     7 (A) A   8 (A) A   11 (A) A   22 (A) A     -0.0095
     6 (A) A   8 (A) B   10 (A) A   11 (A) B      0.0091
     6 (A) A   8 (A) B   15 (A) A   11 (A) B     -0.0090
     7 (A) A   8 (A) B   22 (A) A   11 (A) B      0.0089
     3 (A) A   4 (A) B   11 (A) A    9 (A) B      0.0083
     3 (A) A   8 (A) B   11 (A) A   18 (A) B      0.0080
     6 (A) A   8 (A) A   11 (A) A   15 (A) A      0.0080
     7 (A) A   8 (A) A   13 (A) A   16 (A) A      0.0079
     7 (A) A   8 (A) A   11 (A) A   13 (A) A      0.0075
     4 (A) A   8 (A) B   19 (A) A   11 (A) B      0.0070
     5 (A) A   8 (A) B   21 (A) A   11 (A) B     -0.0070
     5 (A) A   8 (A) B    9 (A) A    9 (A) B      0.0068
     4 (A) A   8 (A) A   11 (A) A   12 (A) A     -0.0062
     3 (A) A   6 (A) B   11 (A) A   28 (A) B      0.0060
     6 (A) A   8 (A) A   11 (A) A   18 (A) A      0.0060
     6 (A) A   8 (A) B   18 (A) A   11 (A) B     -0.0058
     7 (A) A   8 (A) B   16 (A) A   13 (A) B     -0.0057
     3 (A) A   8 (A) B   11 (A) A   30 (A) B      0.0056
     5 (A) A   8 (A) B   10 (A) A   10 (A) B      0.0055
     7 (A) A   8 (A) B   12 (A) A   10 (A) B      0.0055
     3 (A) A   8 (A) A   11 (A) A   18 (A) A      0.0055
     6 (A) A   8 (A) B   11 (A) A   10 (A) B      0.0054
     8 (A) A   8 (A) B   20 (A) A   22 (A) B      0.0054
     3 (A) A   5 (A) B   11 (A) A   25 (A) B      0.0054
     3 (A) A   8 (A) A   11 (A) A   24 (A) A      0.0053
     5 (A) A   8 (A) A   11 (A) A   16 (A) A     -0.0049
     6 (A) A   8 (A) A   10 (A) A   16 (A) A     -0.0047
     8 (A) A   8 (A) B   11 (A) A   28 (A) B      0.0043
    -----------------------------------------------------

  Density matrix analysis:
  ------------------------
  NOs
    Occupation of frontier NOs:
       0.9394   1.0287
    Number of electrons: 16.000000
    Number of unpaired electrons: n_u =  2.32195, n_u,nl =  2.05049
    NO participation ratio (PR_NO):  2.927678
  
  
  Mulliken Population Analysis
  Atom      Charge (e)              h+              e-           Del q
  --------------------------------------------------------------------
   1 H       -0.127107        0.045986       -0.227493       -0.181506
   2 C        0.254432        0.495692       -0.132460        0.363231
   3 H       -0.127321        0.045974       -0.227702       -0.181727
   4 C        0.254415        0.495692       -0.132467        0.363226
   5 H       -0.127334        0.045975       -0.227715       -0.181740
   6 H       -0.127085        0.045987       -0.227470       -0.181483
  --------------------------------------------------------------------
  Sum:       -0.000000        1.175306       -1.175306        0.000000
  
  Multipole moment analysis of the density matrix
    Molecular charge:                      -0.000000
    Number of electrons:                   16.000000
      Center of electronic charge [Ang]: [ -1.561337,  -0.065285,   0.002128]
    Total nuclear charge:                  16.000000
      Center of nuclear charge [Ang]:    [ -1.561339,  -0.065287,   0.002127]
    Dipole moment [D]:                     0.000191
      Cartesian components [D]:          [ -0.000126,  -0.000125,  -0.000070]
    RMS size of the density [Ang]:         1.280990
      Cartesian components [Ang]:        [  0.859502,   0.844666,   0.434432]
  
  Exciton analysis of the difference density matrix
    <r_h> [Ang]:                  [ -1.561337,  -0.065284,   0.002122]
    <r_e> [Ang]:                  [ -1.561316,  -0.065262,   0.002141]
    |<r_e - r_h>| [Ang]:            0.000036
    Hole size [Ang]:                1.395227
      Cartesian components [Ang]: [  0.819684,   0.806397,   0.790254]
    Electron size [Ang]:            2.116510
      Cartesian components [Ang]: [  1.420830,   1.416949,   0.673138]

  Transition density matrix analysis:
  -----------------------------------
  
  CT numbers (Mulliken)
    omega =     0.9293
    <Phe> =    -0.0144
  
  Exciton analysis of the transition density matrix
    Trans. dipole moment [D]:             0.000280
      Cartesian components [D]:         [  0.000205,  -0.000191,  -0.000008]
    <r_h> [Ang]:                        [ -1.561338,  -0.065286,   0.002119]
    <r_e> [Ang]:                        [ -1.561313,  -0.065256,   0.002144]
    |<r_e - r_h>| [Ang]:                  0.000046
    Hole size [Ang]:                      1.229467
      Cartesian components [Ang]:       [  0.661982,   0.649504,   0.807164]
    Electron size [Ang]:                  2.250851
      Cartesian components [Ang]:       [  1.510839,   1.508004,   0.713878]
    RMS electron-hole separation [Ang]:   2.553649
      Cartesian components [Ang]:       [  1.640683,   1.633766,   1.077075]
    Covariance(r_h, r_e) [Ang^2]:         0.028400
    Correlation coefficient:              0.010262
    Center-of-mass size [Ang]:            1.287898
      Cartesian components [Ang]:       [  0.829136,   0.825026,   0.539023]

  Decomposition into state-averaged NTOs
    H- 0 -> L+ 2:  0.6644 ( 88.3%)
    H- 1 -> L+ 0: -0.1502 (  4.5%)
                   omega =  92.9%
  ----------------------------------------------------------------------------


  Excited state 5 (singlet, A)                                     [converged]
  ----------------------------------------------------------------------------
  Term symbol:  6 (1) A                                     R^2 =  7.61976e-11

  Total energy:                                            -77.9468129047 a.u.
  Excitation energy:                                              10.159430 eV

  Osc. strength:                                                      0.000000
  Trans. dip. moment [a.u.]:           [  -0.000032,   -0.000021,    0.000003]
  <i|r^2|0> [a.u.]:                    [   0.082312,   -0.098473,    0.016034]
  Two-photon absorption cross-section (SoS) [a.u.]:                 219.915449
  Two-photon absorption matrix (SoS) [a.u.]:
                                       |    0.365030    0.055616   -3.793033 |
                                       |    0.055616   -0.434009    3.596658 |
                                       |   -3.793033    3.596658    0.070516 |
  Two-photon absorption cross-section [a.u.]:                       112.132017
  Two-photon absorption matrix [a.u.]:
                                       |    0.261196    0.040071   -2.708476 |
                                       |    0.040071   -0.309332    2.568236 |
                                       |   -2.708476    2.568236    0.050224 |

  Dip. moment [a.u.]:                  [   0.000027,   -0.000046,    0.000000]
  Total dipole [Debye]:                                               0.000137
  <r^2> [a.u.]:                        [ 180.182316,   39.564456,   11.645883]
  Total <r^2> [a.u.]:                                               231.392656

  V1^2 = 0.9557, V2^2 = 0.0443

  Important amplitudes:
      occ i     occ j     vir a      vir b          v   
    -----------------------------------------------------
     8 (A) A             12 (A) A                -0.5603
     6 (A) A              9 (A) A                -0.3957
     6 (A) A             20 (A) A                -0.0539
     8 (A) A             19 (A) A                -0.0518
     8 (A) A             23 (A) A                 0.0289
     8 (A) A   8 (A) B    9 (A) A   10 (A) B      0.0201
     8 (A) A             26 (A) A                -0.0181
     3 (A) A              9 (A) A                -0.0172
     4 (A) A   8 (A) B    9 (A) A    9 (A) B     -0.0161
     5 (A) A   8 (A) B   11 (A) A   12 (A) B      0.0146
     8 (A) A   8 (A) B   12 (A) A   17 (A) B     -0.0131
     7 (A) A   8 (A) B   13 (A) A   12 (A) B     -0.0127
     4 (A) A   8 (A) B   12 (A) A   12 (A) B      0.0122
     5 (A) A   8 (A) A   11 (A) A   12 (A) A      0.0107
     6 (A) A   8 (A) B   15 (A) A   12 (A) B     -0.0100
     7 (A) A   8 (A) B   22 (A) A   12 (A) B      0.0092
     6 (A) A   8 (A) A   12 (A) A   15 (A) A      0.0090
     3 (A) A             20 (A) A                -0.0088
     8 (A) A             14 (A) A                -0.0086
[...]
    16   -1.443392326146e-03
    17   -1.754747818589e-03
    18    1.381920716982e-04
    19   -2.947501205106e-03
    20    1.120358107833e-02
    21    9.296366497323e-01
    22   -4.635989840076e-04
    23    1.379671066594e-02
    24    8.127875714808e-04
    25    7.034397945014e-02
    26   -5.224527406890e-02
    27   -1.387187094117e+00
    28    9.945574826940e-02
    29   -9.444872650617e-02
    30   -9.597445702652e-04
    31    3.846500267068e-01
    32   -3.652914440396e-01
    33   -3.713628088185e-03
    34    1.520764459369e-02
    35   -1.441073247523e-03
    36   -1.753551102419e-03
    37    1.383499546905e-04
    38   -2.946884272579e-03
    39    1.119957038471e-02
    40    9.296383487065e-01
    41    4.632930936178e-04
    42   -1.379652147583e-02
    43   -8.123314330553e-04
    44    1.120368060107e-02
    45    9.296397786210e-01
    46    1.380870345792e-02
    47    2.430777522645e-04
    48    6.759440185214e-04
Sym=X
Ene= 0.231517
Spin=Alpha
Occup=0
     1   -2.918149865387e-02
     2   -1.172346896985e+00
     3    1.309588341607e-02
     4    3.514214885838e-03
     5    8.415054674883e-04
     6    5.382319157056e-05
     7   -5.754102855391e-05
     8   -8.467709169502e-04
     9    1.542605460135e-01
    10    1.623233214407e-01
    11    1.722841484181e-02
    12    5.317026414689e-01
    13    5.596150196666e-01
    14    5.939746407972e-02
    15    1.106983829386e-05
    16   -5.772757051087e-05
    17    5.785873953753e-05
    18   -1.074053965501e-03
    19   -6.116750619578e-05
    20    2.920940711090e-02
    21    1.173600309732e+00
    22    2.853532873288e-03
    23    1.326759491606e-02
    24    9.398175852891e-04
    25   -5.519549368814e-05
    26    5.864768094785e-05
    27    8.812955610192e-04
    28    1.542588486043e-01
    29    1.623295015338e-01
    30    1.720122008133e-02
    31    5.316638924753e-01
    32    5.596067259494e-01
    33    5.928534813595e-02
    34   -1.108882363480e-05
    35    5.934438779410e-05
    36   -5.863964899315e-05
    37    1.072534745170e-03
    38    6.103840605597e-05
    39   -2.920954166177e-02
    40   -1.173581459217e+00
    41    2.853370390335e-03
    42    1.326777694956e-02
    43    9.383481138147e-04
    44    2.918127646914e-02
    45    1.172283959807e+00
    46    1.309552954295e-02
    47    3.513979296047e-03
    48    8.398951121199e-04
Sym=X
Ene= 0.236779
Spin=Alpha
Occup=0
     1    1.884626229400e-02
     2    1.075245891117e+00
     3   -1.603223301504e-02
     4   -9.263598586392e-03
     5   -1.329346560649e-03
     6    8.706353686438e-02
     7   -8.197367282056e-02
     8   -1.552167888722e+00
     9   -5.871338506625e-02
    10    5.556922883052e-02
    11    5.419583839112e-04
    12   -2.408743856143e-01
    13    2.280680024350e-01
    14    2.216744200985e-03
    15    2.146274311070e-02
    16   -2.521639053426e-03
    17   -2.897117723972e-03
    18    6.141131704905e-04
    19   -1.242118590810e-02
    20    1.881932099040e-02
    21    1.073752592386e+00
    22    8.435105041603e-03
    23    1.645744302506e-02
    24    1.400028062152e-03
    25   -8.706189456274e-02
    26    8.196993878582e-02
    27    1.552149254631e+00
    28   -5.871404486255e-02
    29    5.557133138462e-02
    30    5.561247604658e-04
    31   -2.408704114671e-01
    32    2.280887464638e-01
    33    2.275362136866e-03
    34   -2.146262320002e-02
    35    2.519285922918e-03
    36    2.897362957385e-03
    37   -6.151199070430e-04
    38    1.242068418718e-02
    39   -1.881912339389e-02
    40   -1.073762271553e+00
    41    8.435554704958e-03
    42    1.645760111034e-02
    43    1.400505277489e-03
    44   -1.884536303144e-02
    45   -1.075209966070e+00
    46   -1.603135642424e-02
    47   -9.264536284828e-03
    48   -1.327979348084e-03
Sym=X
Ene= 0.302938
Spin=Alpha
Occup=0
     1   -2.084299301502e-02
     2    1.662591798302e+00
     3   -2.346669735245e-02
     4    4.122301010291e-04
     5   -1.103428725314e-03
     6   -4.922100138581e-08
     7   -2.838205257477e-06
     8    2.780357568798e-05
     9   -1.353945384517e-01
    10   -1.424253576366e-01
    11   -1.511394112750e-02
    12   -1.125518779782e+00
    13   -1.183872043411e+00
    14   -1.255977822043e-01
    15    3.165873313708e-05
    16   -1.738762985017e-03
    17    1.970432854458e-03
    18   -3.400262792504e-02
    19   -1.737357691699e-03
    20    2.084432424585e-02
    21   -1.662607497262e+00
    22    1.608559044037e-03
    23   -2.340370744513e-02
    24   -1.336346097048e-03
    25    1.615055707641e-06
    26   -2.188213673485e-06
    27   -3.871373492748e-05
    28    1.353994370871e-01
    29    1.424297759944e-01
    30    1.509965288927e-02
    31    1.125489588202e+00
    32    1.183888197657e+00
    33    1.255483972145e-01
    34    3.321833795694e-05
    35   -1.735893843965e-03
    36    1.971743447771e-03
    37   -3.400100858179e-02
    38   -1.738246268705e-03
    39    2.084000196425e-02
    40   -1.662597029697e+00
    41   -1.609533901716e-03
    42    2.340311237848e-02
    43    1.335865687845e-03
    44   -2.083784155917e-02
    45    1.662615845019e+00
    46    2.346733915707e-02
    47   -4.125362753493e-04
    48    1.101692727090e-03
Sym=X
Ene= 0.462580
Spin=Alpha
Occup=0
     1   -1.139131215999e-01
     2   -7.016473288525e-01
     3   -1.490713127388e-02
     4   -1.028062389728e-02
     5   -1.338069635164e-03
     6    6.245928482808e-02
     7    1.609499240923e-02
     8   -3.617556992529e+00
     9    1.048353690952e-01
    10   -9.955784714590e-02
    11   -9.978270194095e-04
    12    2.428551523062e+00
    13   -2.306496853237e+00
    14   -2.254154829178e-02
    15    5.264493133667e-02
    16   -3.256216483326e-03
    17   -4.521109499596e-03
    18   -1.062472064332e-03
    19    1.981184827857e-02
    20   -1.138759372683e-01
    21   -7.016987017441e-01
    22    9.517514011699e-03
    23    1.540144689776e-02
    24    1.388047624842e-03
    25   -6.246046817375e-02
    26   -1.608773341568e-02
    27    3.617566266822e+00
    28    1.048494759128e-01
    29   -9.956692714694e-02
    30   -1.005641799044e-03
    31    2.428531088870e+00
    32   -2.306460500066e+00
    33   -2.257548722578e-02
    34   -5.264015000790e-02
    35    3.251692425793e-03
    36    4.514942095699e-03
    37    1.061722753902e-03
    38   -1.981815028446e-02
    39    1.138402350903e-01
    40    7.017299573092e-01
    41    9.516707240697e-03
    42    1.540062498944e-02
    43    1.386013324344e-03
    44    1.138836622030e-01
    45    7.016694459439e-01
    46   -1.490581031103e-02
    47   -1.027840756707e-02
    48   -1.336590075046e-03
Sym=X
Ene= 0.579985
Spin=Alpha
Occup=0
     1    2.395956818772e-01
     2    4.848563277955e-02
     3   -2.166721526742e-02
     4    2.686328674898e-02
     5    5.825008327604e-04
     6   -6.023943251561e-03
     7   -1.671157211167e-01
     8   -4.222931958797e-01
     9    3.051210897014e-01
    10   -2.897594846951e-01
    11   -2.833567702064e-03
    12   -7.480804285837e-01
    13    7.103741104024e-01
    14    6.995883011852e-03
    15   -2.205763410812e-03
    16    3.688573764643e-03
    17    3.328487092201e-03
    18   -3.066303676546e-03
    19    6.015997351257e-02
    20    2.395812151369e-01
    21    4.851473065087e-02
    22   -2.794571837916e-02
    23    2.025856613992e-02
    24   -1.182141498257e-04
    25   -6.031974251965e-03
    26   -1.671201744919e-01
    27   -4.219260369798e-01
    28   -3.051118991439e-01
    29    2.897414417604e-01
    30    2.831667762773e-03
    31    7.483529486632e-01
    32   -7.105979182389e-01
    33   -7.004106201189e-03
    34   -2.205411105407e-03
    35    3.688591634114e-03
    36    3.327907173329e-03
    37   -3.059914823686e-03
    38    6.016026173323e-02
    39    2.395403861316e-01
    40    4.864453473229e-02
    41    2.795231289913e-02
    42   -2.026392220800e-02
    43    1.172516552795e-04
    44    2.396155315223e-01
    45    4.857356198623e-02
    46    2.166670309846e-02
    47   -2.686426922948e-02
    48   -5.831703296249e-04
Sym=X
Ene= 0.609194
Spin=Alpha
Occup=0
     1   -5.186465883553e-01
     2    2.380200188911e-01
     3   -5.949305389246e-02
     4    3.707381399187e-02
     5   -6.166331108823e-04
     6    3.692152846267e-06
     7   -1.172729331799e-05
     8    2.278944476971e-04
     9   -3.673561029611e-02
    10   -3.864696119974e-02
    11   -4.094884276489e-03
    12    2.660630301382e-01
    13    2.800783955417e-01
    14    2.972813094506e-02
    15    1.203240692408e-04
    16   -7.577651214643e-03
    17    8.589844632464e-03
    18   -1.482221883523e-01
    19   -7.581996993494e-03
    20    5.187277615916e-01
    21   -2.380440834525e-01
    22    4.007693307165e-02
    23   -5.750206174644e-02
    24   -1.548163520289e-03
    25   -4.415089445529e-06
    26    1.245486248233e-05
    27   -1.795736045682e-04
    28   -3.672300653453e-02
    29   -3.866020024812e-02
    30   -4.103243878635e-03
    31    2.660251030925e-01
    32    2.801386725992e-01
    33    2.966929680403e-02
    34   -1.187806674923e-04
    35    7.570672020726e-03
    36   -8.595437606561e-03
    37    1.482310497690e-01
    38    7.580455371569e-03
    39   -5.187765408105e-01
    40    2.380840920466e-01
    41    4.007173789184e-02
    42   -5.750241291124e-02
    43   -1.552141712908e-03
    44    5.186432425529e-01
    45   -2.380665744087e-01
    46   -5.949490122107e-02
    47    3.707450994085e-02
    48   -6.165255612476e-04
Sym=X
Ene= 0.689055
Spin=Alpha
Occup=0
     1    4.471841670175e-05
     2    3.314239034684e-05
     3    9.249358329696e-04
     4    1.169667448686e-03
     5   -1.924005524741e-02
     6    2.422090412855e-06
     7   -3.256908811991e-06
     8    5.477280836075e-05
     9    3.223490885502e-02
    10    4.054819150522e-02
    11   -6.709556250168e-01
    12   -2.955762861744e-02
    13   -3.693639134974e-02
    14    6.128331921336e-01
    15   -1.332573011643e-03
    16    8.259189642382e-02
    17   -7.835759759398e-02
    18   -8.697448260860e-03
    19   -1.206644169612e-03
    20    3.923201500581e-05
    21    5.885816301997e-05
    22    9.208039602536e-04
    23    1.163688023277e-03
    24   -1.923737623767e-02
    25   -6.599044954383e-07
    26    3.236575077056e-05
    27   -7.575473144947e-05
    28    3.221637707395e-02
    29    4.051407694170e-02
    30   -6.709577416435e-01
    31   -2.952870313828e-02
    32   -3.689620769814e-02
    33    6.128344615620e-01
    34    1.321891902784e-03
    35   -8.259068544154e-02
    36    7.835875332566e-02
    37    8.706408100899e-03
    38    1.211064811797e-03
    39   -2.015672822612e-05
    40   -5.085229791942e-05
    41    9.185255652343e-04
    42    1.168375838641e-03
    43   -1.923681230409e-02
    44   -1.465795068452e-05
    45   -7.657757030827e-05
    46    9.149219973031e-04
    47    1.163018006972e-03
    48   -1.924051306241e-02
Sym=X
Ene= 0.705726
Spin=Alpha
Occup=0
     1   -4.861932527416e-01
     2    1.604696238217e-01
     3   -7.850220671653e-02
     4   -4.446182898486e-02
     5   -6.463408891253e-03
     6   -4.617347264085e-02
     7   -3.043343901963e-01
     8    4.691358560919e-01
     9    1.968824441414e-01
    10   -1.870154573131e-01
    11   -1.858503497612e-03
    12   -5.894385011581e-02
    13    5.612514242265e-02
    14    5.055860020328e-04
    15    1.917331203284e-01
    16   -2.051385324876e-02
    17   -2.410800789078e-02
    18    3.742181633265e-03
    19   -7.644245670907e-02
    20   -4.862226391379e-01
    21    1.606267653891e-01
    22    4.041543002077e-02
    23    8.064345807061e-02
    24    6.809332283425e-03
    25   -4.616845978061e-02
    26   -3.043323778967e-01
    27    4.688481317039e-01
    28   -1.968821814849e-01
    29    1.870151717005e-01
    30    1.819905959975e-03
    31    5.875059488215e-02
    32   -5.595949976867e-02
    33   -4.612157515536e-04
    34    1.917374012444e-01
    35   -2.050412844348e-02
    36   -2.409680848897e-02
    37    3.738479089038e-03
    38   -7.643274835853e-02
    39   -4.862036615554e-01
    40    1.605637313550e-01
    41   -4.041444101456e-02
    42   -8.064170706217e-02
    43   -6.806762730119e-03
    44   -4.862005843515e-01
    45    1.604157864649e-01
    46    7.850334648515e-02
    47    4.446095347363e-02
    48    6.458141182456e-03
Sym=X
Ene= 0.776535
Spin=Alpha
Occup=0
     1    5.378302857046e-01
     2   -4.727947639086e-01
     3    1.079070472442e-01
     4    2.617206341116e-02
     5    6.767718802990e-03
     6    8.919364401364e-02
     7   -2.248299717458e-01
     8   -5.610122245151e-01
     9    1.066605697009e-01
    10   -1.012725258513e-01
    11   -9.574958049442e-04
    12    2.821579126244e-01
    13   -2.681035540050e-01
    14   -2.673277584887e-03
    15   -2.039589982394e-01
    16    1.747097296507e-02
    17    2.180881126193e-02
    18   -1.443714641566e-04
    19    6.626651457656e-03
    20    5.377370897162e-01
    21   -4.728624017002e-01
    22   -2.065759966731e-02
    23   -1.090368989041e-01
    24   -7.580546990297e-03
    25   -8.919429463736e-02
    26    2.248375738492e-01
    27    5.610581582117e-01
    28    1.066763481862e-01
    29   -1.012705577342e-01
    30   -9.914007529732e-04
    31    2.821002605187e-01
    32   -2.680852049913e-01
    33   -2.597792479966e-03
    34    2.039636980692e-01
    35   -1.744699105168e-02
    36   -2.179643905829e-02
    37    1.485811155602e-04
    38   -6.624866951375e-03
    39   -5.377637713172e-01
    40    4.728680505747e-01
    41   -2.065858522855e-02
    42   -1.090385859481e-01
    43   -7.575498807144e-03
    44   -5.378494683389e-01
    45    4.727702608551e-01
    46    1.079026200970e-01
    47    2.617626170103e-02
    48    6.761588566368e-03
Sym=X
Ene= 0.807307
Spin=Alpha
Occup=0
     1    1.111652023475e-05
     2    2.932892146326e-05
     3    1.521210633956e-03
     4    1.919122532264e-03
     5   -3.179530318038e-02
     6    3.598113659554e-06
     7   -3.383236498068e-05
     8    1.744397862920e-05
     9    3.674070794250e-02
    10    4.616168460635e-02
    11   -7.640613362587e-01
    12   -5.404122467328e-02
    13   -6.791281273084e-02
    14    1.123896511168e+00
    15    1.037784254935e-03
    16   -6.491791823065e-02
    17    6.159164855649e-02
    18    6.830227987983e-03
    19    9.512657602197e-04
    20    1.296826685436e-05
    21   -4.257745297419e-05
    22    1.523264018819e-03
    23    1.918709773118e-03
    24   -3.178726868231e-02
    25   -5.548686452041e-07
    26   -2.518190249956e-05
    27    1.244324190086e-05
    28   -3.667587596264e-02
    29   -4.612913573334e-02
    30    7.640681055805e-01
    31    5.396485978577e-02
    32    6.782911884633e-02
    33   -1.123905280320e+00
    34    1.051813637861e-03
    35   -6.491760987411e-02
    36    6.158921446243e-02
    37    6.849019367377e-03
    38    9.567621699743e-04
    39   -1.027409074775e-05
    40    5.900303718660e-05
    41   -1.525173668715e-03
    42   -1.934958320602e-03
    43    3.178343767454e-02
    44   -8.409314364070e-06
    45   -1.287735722441e-05
    46   -1.519216493557e-03
    47   -1.926293176763e-03
    48    3.179371323815e-02
Sym=X
Ene= 0.859227
Spin=Alpha
Occup=0
     1    1.502761560621e-02
     2   -1.079579611880e+00
     3    1.469159779012e-01
     4    5.592907584180e-02
     5    1.043160940896e-02
     6    3.230547646268e-06
     7    9.067245502207e-06
     8    3.371795866859e-06
     9   -4.110170304359e-01
    10   -4.323340439799e-01
    11   -4.589728071901e-02
    12    9.382213567244e-01
    13    9.868318304018e-01
    14    1.047622776470e-01
    15   -2.210063291235e-04
    16    1.185166721158e-02
    17   -1.343212548815e-02
    18    2.318246588394e-01
    19    1.185300401593e-02
    20   -1.499353803872e-02
    21    1.079493334745e+00
    22    4.838434934713e-02
    23    1.494887215739e-01
    24    1.136307888428e-02
    25   -2.864558389806e-06
    26   -4.996839711368e-06
    27   -2.681043617519e-06
    28   -4.110328432590e-01
    29   -4.323579447855e-01
    30   -4.581956871676e-02
    31    9.382462423709e-01
    32    9.868883979556e-01
    33    1.045917666002e-01
    34    2.198134489500e-04
    35   -1.185104638727e-02
    36    1.343363724084e-02
    37   -2.318327221163e-01
    38   -1.185742363008e-02
    39    1.499140571129e-02
    40   -1.079506333913e+00
    41    4.837559475161e-02
    42    1.494943911961e-01
    43    1.135958617025e-02
    44   -1.502408191131e-02
    45    1.079590120557e+00
    46    1.469221550023e-01
    47    5.592446771804e-02
    48    1.042372510858e-02
Sym=X
Ene= 0.929019
Spin=Alpha
Occup=0
     1   -1.384316176512e-01
     2    1.238122971299e+00
     3   -1.827965269249e-01
     4    5.704567349188e-03
     5   -8.445050451991e-03
     6   -1.610353620392e-06
     7   -5.545302255067e-05
     8    9.182885757980e-05
     9    4.736825574699e-01
    10    4.982544522737e-01
    11    5.286131950630e-02
    12   -1.391726006295e+00
    13   -1.463991795372e+00
    14   -1.553145669294e-01
    15    1.259371309767e-04
    16   -6.443833070981e-03
    17    7.281517718895e-03
    18   -1.257452596200e-01
    19   -6.435561464152e-03
    20    1.384128342744e-01
    21   -1.238204044782e+00
    22    1.503397680804e-02
    23   -1.821741178654e-01
    24   -1.028058978838e-02
    25   -2.024538752765e-06
    26   -4.639150934825e-05
    27    9.760791528812e-05
    28   -4.736812040533e-01
    29   -4.982394397467e-01
    30   -5.283617842313e-02
    31    1.391718470339e+00
    32    1.463927997717e+00
    33    1.552423192221e-01
    34    1.306501555327e-04
    35   -6.425301191901e-03
    36    7.276604612050e-03
    37   -1.257383733372e-01
    38   -6.447958237007e-03
    39    1.384063998360e-01
    40   -1.238140278234e+00
    41   -1.504421706097e-02
    42    1.821638783402e-01
    43    1.027560379581e-02
    44   -1.384417181036e-01
    45    1.238122042200e+00
    46    1.827961024916e-01
    47   -5.706063082646e-03
    48    8.432940540498e-03
Sym=X
Ene= 0.970183
Spin=Alpha
Occup=0
     1   -6.268379604577e-02
     2    9.014700789474e-01
     3   -8.834322501523e-02
     4   -9.685041596728e-02
     5   -1.008707745439e-02
     6    2.624579195418e-02
     7    2.506112953278e-01
     8    5.227921516620e-01
     9    4.825130058981e-01
    10   -4.582428029959e-01
    11   -4.496728566824e-03
    12   -1.481026481626e+00
    13    1.406511674097e+00
    14    1.378735454231e-02
    15   -5.590504982888e-02
    16   -1.257069706285e-02
    17   -9.401296984266e-03
    18    1.519726975519e-02
    19   -2.965637759324e-01
    20   -6.271011078073e-02
    21    9.014390595624e-01
    22    9.225693600413e-02
    23    9.312268316427e-02
    24    1.006498838977e-02
    25   -2.624523277983e-02
    26   -2.505542174444e-01
    27   -5.228836528459e-01
    28    4.825011035944e-01
    29   -4.582505221569e-01
    30   -4.517455297103e-03
    31   -1.480983810418e+00
    32    1.406569097738e+00
    33    1.384704037014e-02
    34    5.590062183786e-02
    35    1.256969316387e-02
    36    9.403384545108e-03
    37   -1.520077673047e-02
    38    2.965516453253e-01
    39    6.270998481936e-02
    40   -9.014533943742e-01
    41    9.225151468536e-02
    42    9.312520682801e-02
    43    1.006682534384e-02
    44    6.269279060492e-02
    45   -9.014057043511e-01
    46   -8.833565418944e-02
    47   -9.684816724104e-02
    48   -1.008051456019e-02
[5D]

======= END OF MOLDEN-FORMATTED INPUT FILE =======


        *************************************************************
        *                                                           *
        *  Thank you very much for using Q-Chem.  Have a nice day.  *
        *                                                           *
        *************************************************************


