                  Welcome to Q-Chem
     A Quantum Leap Into The Future Of Chemistry


 Q-Chem 5.4 (devel), Q-Chem, Inc., Pleasanton, CA (2021)

 E. Epifanovsky,  A. T. B. Gilbert,  Xintian Feng,  Joonho Lee,  Yuezhi Mao,  
 N. Mardirossian,  P. Pokhilko,  A. White,  M. Wormit,  M. P. Coons,  
 A. L. Dempwolff,  Zhengting Gan,  D. Hait,  P. R. Horn,  L. D. Jacobson,  
 I. Kaliman,  J. Kussmann,  A. W. Lange,  Ka Un Lao,  D. S. Levine,  Jie Liu,  
 S. C. McKenzie,  A. F. Morrison,  K. Nanda,  F. Plasser,  D. R. Rehn,  
 M. L. Vidal,  Zhi-Qiang You,  Ying Zhu,  B. Alam,  B. Albrecht,  
 A. Aldossary,  E. Alguire,  J. H. Andersen,  D. Barton,  K. Begam,  A. Behn,  
 Y. A. Bernard,  E. J. Berquist,  H. Burton,  A. Carreras,  K. Carter-Fenk,  
 R. Chakraborty,  A. D. Chien,  K. D. Closser,  V. Cofer-Shabica,  
 S. Dasgupta,  Jia Deng,  M. de Wergifosse,  M. Diedenhofen,  Hainam Do,  
 S. Ehlert,  Po-Tung Fang,  S. Fatehi,  Qingguo Feng,  T. Friedhoff,  
 J. Gayvert,  Qinghui Ge,  G. Gidofalvi,  M. Goldey,  J. Gomes,  
 C. Gonzalez-Espinoza,  S. Gulania,  A. Gunina,  M. W. D. Hanson-Heine,  
 P. H. P. Harbach,  A. W. Hauser,  M. F. Herbst,  M. Hernandez Vera,  
 M. Hodecker,  Z. C. Holden,  S. Houck,  Xunkun Huang,  Kerwin Hui,  
 B. C. Huynh,  M. Ivanov,  Hyunjun Ji,  Hanjie Jiang,  B. Kaduk,  S. Kaehler,  
 K. Khistyaev,  Jaehoon Kim,  P. Klunzinger,  Z. Koczor-Benda,  
 Joong Hoon Koh,  D. Kosenkov,  L. Koulias,  T. Kowalczyk,  C. M. Krauter,  
 K. Kue,  A. Kunitsa,  T. Kus,  A. Landau,  K. V. Lawler,  D. Lefrancois,  
 S. Lehtola,  Rain Li,  Yi-Pei Li,  Jiashu Liang,  M. Liebenthal,  
 Hung-Hsuan Lin,  You-Sheng Lin,  Fenglai Liu,  Kuan-Yu Liu,  
 M. Loipersberger,  A. Luenser,  A. Manjanath,  P. Manohar,  E. Mansoor,  
 S. F. Manzer,  Shan-Ping Mao,  A. V. Marenich,  T. Markovich,  S. Mason,  
 S. A. Maurer,  P. F. McLaughlin,  M. F. S. J. Menger,  J.-M. Mewes,  
 S. A. Mewes,  P. Morgante,  J. W. Mullinax,  K. J. Oosterbaan,  G. Paran,  
 Alexander C. Paul,  Suranjan K. Paul,  F. Pavosevic,  Zheng Pei,  S. Prager,  
 E. I. Proynov,  E. Ramos,  B. Rana,  A. E. Rask,  A. Rettig,  R. M. Richard,  
 F. Rob,  E. Rossomme,  T. Scheele,  M. Scheurer,  M. Schneider,  
 N. Sergueev,  S. M. Sharada,  W. Skomorowski,  D. W. Small,  C. J. Stein,  
 Yu-Chuan Su,  E. J. Sundstrom,  Zhen Tao,  J. Thirman,  T. Tsuchimochi,  
 N. M. Tubman,  S. P. Veccham,  O. Vydrov,  J. Wenzel,  J. Witte,  A. Yamada,  
 Kun Yao,  S. Yeganeh,  S. R. Yost,  A. Zech,  Igor Ying Zhang,  Xing Zhang,  
 Yu Zhang,  D. Zuev,  A. Aspuru-Guzik,  A. T. Bell,  N. A. Besley,  
 K. B. Bravaya,  B. R. Brooks,  D. Casanova,  Jeng-Da Chai,  S. Coriani,  
 C. J. Cramer,  A. E. DePrince, III,  R. A. DiStasio Jr.,  A. Dreuw,  
 B. D. Dunietz,  T. R. Furlani,  W. A. Goddard III,  S. Grimme,  
 S. Hammes-Schiffer,  T. Head-Gordon,  W. J. Hehre,  Chao-Ping Hsu,  
 T.-C. Jagau,  Yousung Jung,  A. Klamt,  Jing Kong,  D. S. Lambrecht,  
 WanZhen Liang,  N. J. Mayhall,  C. W. McCurdy,  J. B. Neaton,  
 C. Ochsenfeld,  J. A. Parkhill,  R. Peverati,  V. A. Rassolov,  Yihan Shao,  
 L. V. Slipchenko,  T. Stauch,  R. P. Steele,  J. E. Subotnik,  
 A. J. W. Thom,  A. Tkatchenko,  D. G. Truhlar,  T. Van Voorhis,  
 T. A. Wesolowski,  K. B. Whaley,  H. L. Woodcock III,  P. M. Zimmerman,  
 S. Faraji,  P. M. W. Gill,  M. Head-Gordon,  J. M. Herbert,  A. I. Krylov

 Additional authors for Version 5.4.1: 
 S. Kotaru,  Shaozhi Li,  Xiangyuan Li,  F. Matz,  A. Molle,  Haisheng Ren,  
 Yingli Su,  Hung-Yi Tsai,  C. Utku,  Fang Wang

 Contributors to earlier versions of Q-Chem not listed above: 
 R. D. Adamson,  B. Austin,  R. Baer,  J. Baker,  G. J. O. Beran,  
 K. Brandhorst,  S. T. Brown,  E. F. C. Byrd,  A. K. Chakraborty,  
 G. K. L. Chan,  Chun-Min Chang,  Yunqing Chen,  C.-L. Cheng,  
 Siu Hung Chien,  D. M. Chipman,  D. L. Crittenden,  H. Dachsel,  
 R. J. Doerksen,  A. D. Dutoi,  R. G. Edgar,  J. Fosso-Tande,  
 L. Fusti-Molnar,  D. Ghosh,  A. Ghysels,  A. Golubeva-Zadorozhnaya,  
 J. Gonthier,  M. S. Gordon,  S. R. Gwaltney,  G. Hawkins,  J. E. Herr,  
 A. Heyden,  S. Hirata,  E. G. Hohenstein,  G. Kedziora,  F. J. Keil,  
 C. Kelley,  Jihan Kim,  R. A. King,  R. Z. Khaliullin,  P. P. Korambath,  
 W. Kurlancheek,  A. Laurent,  A. M. Lee,  M. S. Lee,  S. V. Levchenko,  
 Ching Yeh Lin,  D. Liotard,  E. Livshits,  R. C. Lochan,  I. Lotan,  
 L. A. Martinez-Martinez,  P. E. Maslen,  N. Nair,  D. P. O'Neill,  
 D. Neuhauser,  E. Neuscamman,  C. M. Oana,  R. Olivares-Amaya,  R. Olson,  
 T. M. Perrine,  B. Peters,  P. A. Pieniazek,  A. Prociuk,  Y. M. Rhee,  
 J. Ritchie,  M. A. Rohrdanz,  E. Rosta,  N. J. Russ,  H. F. Schaefer III,  
 M. W. Schmidt,  N. E. Schultz,  S. Sharma,  N. Shenvi,  C. D. Sherrill,  
 A. C. Simmonett,  A. Sodt,  T. Stein,  D. Stuck,  K. S. Thanthiriwatte,  
 V. Vanovschi,  L. Vogt,  Tao Wang,  A. Warshel,  M. A. Watson,  
 C. F. Williams,  Q. Wu,  X. Xu,  Jun Yang,  W. Zhang,  Yan Zhao

 Please cite Q-Chem as follows:
 Y. Shao et al., Mol. Phys. 113, 184-215 (2015)
 DOI: 10.1080/00268976.2014.952696

 Q-Chem 5.4.1 for Intel X86 EM64T Linux

 Parts of Q-Chem use Armadillo 9.800.1 (Horizon Scraper).
 http://arma.sourceforge.net/

 Q-Chem begins on Thu Nov 17 15:41:06 2022  

 Host: cpu196.baobab
0

     Scratch files written to /scratch/fum/qchem12920//
 Processing $rem in /home/share/wesolowski/qc5.aug2021.FDE/config/preferences:
 Processing $rem in /home/fum/.qchemrc:

 Checking the input file for inconsistencies... 	...done.

--------------------------------------------------------------
User input:
--------------------------------------------------------------
$comment
generated from CCJob.Templates
$end

$rem
sym_ignore = true
method = adc(2)
ee_states = 10
basis = cc-pVDZ
mem_static = 1024
mem_total = 40000
adc_davidson_maxiter = 900
adc_davidson_conv = 6
adc_print = 3
adc_prop_es = true
adc_prop_es2es = true
adc_prop_tpa = true
molden_format = True
state_analysis = true
print_orbitals = 15
gen_scfman = false
fde_export_density = true
fde_details = 3
$end

$molecule
0 1
H -0.0348278765 -0.2542097827 0.0636489606
C -1.0765972949 -0.5242748755 -0.0023551776
H -1.313264467 -1.5767591607 -0.0757276926
C -2.043634118 0.3926884087 0.0061254933
H -1.8137616575 1.4459188338 0.0804456828
H -3.085977293 0.114931858 -0.0593381042                     
$end
--------------------------------------------------------------
 ----------------------------------------------------------------
             Standard Nuclear Orientation (Angstroms)
    I     Atom           X                Y                Z
 ----------------------------------------------------------------
    1      H      -0.0348278765    -0.2542097827     0.0636489606
    2      C      -1.0765972949    -0.5242748755    -0.0023551776
    3      H      -1.3132644670    -1.5767591607    -0.0757276926
    4      C      -2.0436341180     0.3926884087     0.0061254933
    5      H      -1.8137616575     1.4459188338     0.0804456828
    6      H      -3.0859772930     0.1149318580    -0.0593381042
 ----------------------------------------------------------------
 Nuclear Repulsion Energy =          33.42886484 hartrees
 There are        8 alpha and        8 beta electrons
 Requested basis set is cc-pVDZ
 There are 24 shells and 48 basis functions
 Total memory of 40000 MB is distributed as follows: 
   MEM_STATIC is set to 1024 MB
   QALLOC/CCMAN JOB total memory use is  38976 MB
 Warning: actual memory use might exceed 40000 MB

 Total QAlloc Memory Limit  40000 MB
 Mega-Array Size      1001 MB
 MEM_STATIC part      1024 MB

                       Distance Matrix (Angstroms)
             H (  1)   C (  2)   H (  3)   C (  4)   H (  5)
   C (  2)  1.078228
   H (  3)  1.844712  1.081258
   C (  4)  2.111182  1.332687  2.102109
   H (  5)  2.460757  2.105215  3.067812  1.080583
   H (  6)  3.075858  2.109370  2.450428  1.080700  1.846510

 A cutoff of  1.0D-11 yielded    300 shell pairs
 There are      1220 function pairs (      1329 Cartesian)
 Smallest overlap matrix eigenvalue = 4.80E-03

 Scale SEOQF with 1.000000e-01/1.000000e-01/1.000000e+00

 Standard Electronic Orientation quadrupole field applied
 Nucleus-field energy     =     0.0000000022 hartrees
 Guess from superposition of atomic densities
 Warning:  Energy on first SCF cycle will be non-variational
 SAD guess density has 16.000000 electrons
 A restricted Hartree-Fock SCF calculation will be
 performed using Pulay DIIS extrapolation
 SCF converges when DIIS error is below 1.0E-08
 using 10 threads for integral computing
 -------------------------------------------------------
 OpenMP Integral computing Module                
 Release: version 1.0, May 2013, Q-Chem Inc. Pittsburgh 
 -------------------------------------------------------
 ---------------------------------------
  Cycle       Energy         DIIS Error
 ---------------------------------------
    1     -78.4403172639      1.01E-01
    2     -78.0176808072      7.21E-03
    3     -78.0383160165      1.84E-03
    4     -78.0397988151      5.72E-04
    5     -78.0399202486      5.80E-05
    6     -78.0399221272      9.29E-06
    7     -78.0399221878      2.13E-06
    8     -78.0399221905      7.51E-07
    9     -78.0399221907      1.01E-07
   10     -78.0399221907      1.34E-08
   11     -78.0399221907      3.96E-09 Convergence criterion met
 ---------------------------------------
 SCF time:  CPU 1.56 s  wall 3.05 s
 SCF   energy in the final basis set = -78.03992219
 Total energy in the final basis set = -78.03992219
Exporting Density Matrix to file 'Densmat_SCF.txt'.
Export successful
================================================================================
|                                                                              |
|                                 A D C  M A N                                 |
|                                                                              |
 ------------------------------------------------------------------------------ 
|                                                                              |
| Components:                                                                  |
|                                                                              |
| - libvmm - 1.3-trunk                                                         |
|   Authors:                                                                   |
|   Evgeny Epifanovsky, Ilya Kaliman                                           |
|                                                                              |
| - libtensor - 2.5-trunk                                                      |
|   Authors:                                                                   |
|   Evgeny Epifanovsky, Michael Wormit, Dmitry Zuev, Sam Manzer,               |
|   Ilya Kaliman                                                               |
|                                                                              |
| - libwfa - 1.1-trunk                                                         |
|   Authors:                                                                   |
|   Felix Plasser, Stefanie Mewes (Baeppler), Benjamin Thomitzni,              |
|   Michael Wormit, Feng Chen, Anna I. Krylov, Pavel Pokhilko                  |
|                                                                              |
| - libadc - 1.1-trunk                                                         |
|   Authors:                                                                   |
|   Michael Wormit, Adrian L. Dempwolff, Philipp H. P. Harbach,                |
|   Caroline Krauter, Dirk Rehn, Matthias Schneider, Jan Wenzel                |
|                                                                              |
| - adcman - 2.6-trunk                                                         |
|   Authors:                                                                   |
|   Michael Wormit, Adrian L. Dempwolff, Philipp H. P. Harbach,                |
|   Caroline Krauter, Daniel Lefrancois, Jan-Michael Mewes, Dirk Rehn,         |
|   Matthias Schneider, Jan Wenzel, Andreas Dreuw                              |
|                                                                              |
| Authors of earlier versions of ADCMAN:                                       |
| Andreas Dreuw, Jan Hendrik Starcke, Dirk Rehn, Michael Wormit                |
|                                                                              |
================================================================================

 Created directory /scratch/fum/qchem12920/plots
  Import QC data ...  CPU 0.00 s  wall 0.00 s

 Alpha MOs, Restricted
 -- Occupied --                  
-11.235 -11.233  -1.032  -0.790  -0.641  -0.583  -0.504  -0.374
  1 A     2 A     3 A     4 A     5 A     6 A     7 A     8 A                  
 -- Virtual --                   
  0.168   0.204   0.233   0.239   0.303   0.463   0.578   0.614
  9 A    10 A    11 A    12 A    13 A    14 A    15 A    16 A                  
  0.689   0.710   0.785   0.808   0.862   0.936   0.973   1.010
 17 A    18 A    19 A    20 A    21 A    22 A    23 A    24 A                  
  1.131   1.235   1.252   1.265   1.294   1.602   1.731   1.752
 25 A    26 A    27 A    28 A    29 A    30 A    31 A    32 A                  
  1.819   1.857   1.867   1.920   1.976   1.980   2.224   2.258
 33 A    34 A    35 A    36 A    37 A    38 A    39 A    40 A                  
  2.375   2.454   2.510   2.638   2.721   2.824   3.139   3.403
 41 A    42 A    43 A    44 A    45 A    46 A    47 A    48 A                  

 Beta MOs, Restricted
 -- Occupied --                  
-11.235 -11.233  -1.032  -0.790  -0.641  -0.583  -0.504  -0.374
  1 A     2 A     3 A     4 A     5 A     6 A     7 A     8 A                  
 -- Virtual --                   
  0.168   0.204   0.233   0.239   0.303   0.463   0.578   0.614
  9 A    10 A    11 A    12 A    13 A    14 A    15 A    16 A                  
  0.689   0.710   0.785   0.808   0.862   0.936   0.973   1.010
 17 A    18 A    19 A    20 A    21 A    22 A    23 A    24 A                  
  1.131   1.235   1.252   1.265   1.294   1.602   1.731   1.752
 25 A    26 A    27 A    28 A    29 A    30 A    31 A    32 A                  
  1.819   1.857   1.867   1.920   1.976   1.980   2.224   2.258
 33 A    34 A    35 A    36 A    37 A    38 A    39 A    40 A                  
  2.375   2.454   2.510   2.638   2.721   2.824   3.139   3.403
 41 A    42 A    43 A    44 A    45 A    46 A    47 A    48 A                  
  Import AO data ...  CPU 0.00 s  wall 0.01 s
  Using point group: C1
  Irreducible representations in point group: A
  Molecular orbitals: 
  Occupied MOs:
  Block   0:   1 (  A) A   2 (  A) A   3 (  A) A   4 (  A) A   5 (  A) A
                  -11.24      -11.23      -1.032     -0.7904     -0.6409
               6 (  A) A   7 (  A) A   8 (  A) A
                 -0.5827     -0.5045      -0.374
  Block   1:   1 (  A) B   2 (  A) B   3 (  A) B   4 (  A) B   5 (  A) B
                  -11.24      -11.23      -1.032     -0.7904     -0.6409
               6 (  A) B   7 (  A) B   8 (  A) B
                 -0.5827     -0.5045      -0.374
  Virtual MOs:
  Block   0:   9 (  A) A  10 (  A) A  11 (  A) A  12 (  A) A  13 (  A) A
                  0.1683      0.2038      0.2332      0.2393      0.3033
              14 (  A) A  15 (  A) A  16 (  A) A  17 (  A) A  18 (  A) A
                  0.4626       0.578      0.6141      0.6891      0.7096
              19 (  A) A  20 (  A) A  21 (  A) A  22 (  A) A
                  0.7847       0.808      0.8623      0.9361
  Block   1:  23 (  A) A  24 (  A) A  25 (  A) A  26 (  A) A  27 (  A) A
                  0.9729        1.01       1.131       1.235       1.252
              28 (  A) A  29 (  A) A  30 (  A) A  31 (  A) A  32 (  A) A
                   1.265       1.294       1.602       1.731       1.752
              33 (  A) A  34 (  A) A  35 (  A) A  36 (  A) A
                   1.819       1.857       1.867        1.92
  Block   2:  37 (  A) A  38 (  A) A  39 (  A) A  40 (  A) A  41 (  A) A
                   1.976        1.98       2.224       2.258       2.375
              42 (  A) A  43 (  A) A  44 (  A) A  45 (  A) A  46 (  A) A
                   2.454        2.51       2.638       2.721       2.824
              47 (  A) A  48 (  A) A
                   3.139       3.403
  Block   3:   9 (  A) B  10 (  A) B  11 (  A) B  12 (  A) B  13 (  A) B
                  0.1683      0.2038      0.2332      0.2393      0.3033
              14 (  A) B  15 (  A) B  16 (  A) B  17 (  A) B  18 (  A) B
                  0.4626       0.578      0.6141      0.6891      0.7096
              19 (  A) B  20 (  A) B  21 (  A) B  22 (  A) B
                  0.7847       0.808      0.8623      0.9361
  Block   4:  23 (  A) B  24 (  A) B  25 (  A) B  26 (  A) B  27 (  A) B
                  0.9729        1.01       1.131       1.235       1.252
              28 (  A) B  29 (  A) B  30 (  A) B  31 (  A) B  32 (  A) B
                   1.265       1.294       1.602       1.731       1.752
              33 (  A) B  34 (  A) B  35 (  A) B  36 (  A) B
                   1.819       1.857       1.867        1.92
  Block   5:  37 (  A) B  38 (  A) B  39 (  A) B  40 (  A) B  41 (  A) B
                   1.976        1.98       2.224       2.258       2.375
              42 (  A) B  43 (  A) B  44 (  A) B  45 (  A) B  46 (  A) B
                   2.454        2.51       2.638       2.721       2.824
              47 (  A) B  48 (  A) B
                   3.139       3.403
  Import MO data ...  CPU 0.01 s  wall 0.02 s
  Import HF data ...  CPU 0.08 s  wall 0.04 s
  Import 2e integrals ...  CPU 0.67 s  wall 0.12 s

--------------------------------------------------------------------------------
                                   HF Summary                                   
--------------------------------------------------------------------------------
  Energy:                                                  -78.0399221907 a.u.
  Dip. moment [a.u.]:                  [   0.000349,   -0.000055,    0.000632]
  Total dipole [Debye]:                                               0.001841
  <r^2> [a.u.]:                        [ 175.315612,   34.941277,   11.623231]
  Total <r^2> [a.u.]:                                               221.880121
--------------------------------------------------------------------------------
  HF properties ...  CPU 0.01 s  wall 0.01 s
  MP(1) calculation ...  CPU 0.01 s  wall 0.01 s
  N^6 prerequesite intermediates ...  CPU 0.51 s  wall 0.09 s
  Difference density matrix of state mp2_gs printed to ASCII file 'State_mp2_gs_Difference.txt'
Exporting MP density matrix to file 'Densmat_MP.txt'.
Export successful
  Total density matrix of state mp2_gs printed to ASCII file 'State_mp2_gs_Total.txt'
Exporting MP density matrix to file 'Densmat_MP.txt'.
Export successful

--------------------------------------------------------------------------------
                                 MP(2) Summary                                  
--------------------------------------------------------------------------------
  MP energy contribution:                                   -0.2796621687 a.u.
  Total energy:                                            -78.3195843594 a.u.
  Dip. moment [a.u.]:                  [   0.000176,   -0.000221,    0.000606]
  Total dipole [Debye]:                                               0.001700
  <r^2> [a.u.]:                        [ 175.361866,   34.981431,   11.455269]
  Total <r^2> [a.u.]:                                               221.798566

  Density matrix analysis:
  ------------------------
  NOs
    Occupation of frontier NOs:
       0.0453   1.9383
    Number of electrons: 16.000000
    Number of unpaired electrons: n_u =  0.40326, n_u,nl =  0.04505
    NO participation ratio (PR_NO): 13.855205
  
  
  Mulliken Population Analysis
  Atom      Charge (e)              h+              e-           Del q
  --------------------------------------------------------------------
   1 H        0.050306        0.014090       -0.011190        0.002899
   2 C       -0.100181        0.092942       -0.098820       -0.005878
   3 H        0.050124        0.014135       -0.011173        0.002962
   4 C       -0.101227        0.093081       -0.098872       -0.005791
   5 H        0.050233        0.014116       -0.011184        0.002932
   6 H        0.050745        0.014068       -0.011192        0.002876
  --------------------------------------------------------------------
  Sum:       -0.000000        0.242432       -0.242432        0.000000
  
  Multipole moment analysis of the density matrix
    Molecular charge:                      -0.000000
    Number of electrons:                   16.000000
      Center of electronic charge [Ang]: [ -1.560582,  -0.066220,   0.001958]
    Total nuclear charge:                  16.000000
      Center of nuclear charge [Ang]:    [ -1.560576,  -0.066227,   0.001978]
    Dipole moment [D]:                     0.001700
      Cartesian components [D]:          [  0.000447,  -0.000562,   0.001541]
    RMS size of the density [Ang]:         1.200860
      Cartesian components [Ang]:        [  0.796071,   0.779649,   0.447754]
  
  Exciton analysis of the difference density matrix
    <r_h> [Ang]:                  [ -1.561044,  -0.066337,   0.001830]
    <r_e> [Ang]:                  [ -1.560667,  -0.065974,   0.001887]
    |<r_e - r_h>| [Ang]:            0.000526
    Hole size [Ang]:                1.393622
      Cartesian components [Ang]: [  0.846230,   0.834507,   0.727789]
    Electron size [Ang]:            1.359855
      Cartesian components [Ang]: [  0.877901,   0.861876,   0.579367]
--------------------------------------------------------------------------------
  MP(2) calculation ...  CPU 0.13 s  wall 0.12 s
  Start ADC(2)-s ...  CPU 0.01 s  wall 0.00 s
  ADC(2) intermediates ...  CPU 0.02 s  wall 0.01 s
  Starting Davidson for singlet states of irrep A ... 
--------------------------------------------------------------------------------
   It NVec Conv  Avg. Norm  Max. Norm  Conv. states           Remark
--------------------------------------------------------------------------------
        10    0  1.330e-01  4.691e-01  0.4122 n n n n n n n n Guess.
    1   20    0  2.310e-02  1.111e-01  0.3262 n n n n n n n n 
    2   30    0  5.902e-03  2.681e-02  0.3215 n n n n n n n n 
    3   40    0  2.105e-03  1.520e-02  0.3211 n n n n n n n n 
    4   50    0  6.414e-04  4.923e-03  0.3211 n n n n n n n n 
    5   20    0  2.775e-04  2.074e-03  0.3211 n n n n n n n n Subspace collapsed.
    6   30    0  2.047e-04  1.887e-03  0.3211 n n n n n n n n 
    7   40    0  1.087e-04  1.012e-03  0.3211 n n n n n n n n 
    8   50    0  1.311e-04  1.271e-03  0.3211 n n n n n n n n 
    9   20    2  1.118e-04  1.078e-03  0.3211 n y n y n n n n Subspace collapsed.
   10   30    4  1.403e-04  1.393e-03  0.3211 n y y y y n n n 
   11   40    5  1.385e-04  1.383e-03  0.3211 n y y y y y n n 
   12   50    6  1.368e-04  1.368e-03  0.3211 y y y y y y n n 
   13   20    6  6.636e-05  6.635e-04  0.3211 y y y y y y n n Subspace collapsed.
   14   30    6  4.405e-05  4.404e-04  0.3211 y y y y y y n n 
   15   40    7  2.203e-05  2.202e-04  0.3211 y y y y y y n y 
   16   50    7  2.730e-05  2.730e-04  0.3211 y y y y y y n y 
   17   20    8  1.751e-05  1.751e-04  0.3211 y y y y y y n y Subspace collapsed.
   18   30    9  2.573e-05  2.573e-04  0.3211 y y y y y y y y 
   19   40    9  2.752e-05  2.752e-04  0.3211 y y y y y y y y 
   20   50    9  2.666e-05  2.666e-04  0.3211 y y y y y y y y 
   21   20    9  1.325e-05  1.325e-04  0.3211 y y y y y y y y Subspace collapsed.
   22   30    9  8.685e-06  8.685e-05  0.3211 y y y y y y y y 
   23   32    9  7.935e-06  7.935e-05  0.3211 y y y y y y y y 
   24   41    9  4.924e-06  4.924e-05  0.3211 y y y y y y y y 
   25   49    9  6.216e-06  6.216e-05  0.3211 y y y y y y y y 
   26   50    9  6.106e-06  6.106e-05  0.3211 y y y y y y y y 
   27   16    9  3.426e-06  3.426e-05  0.3211 y y y y y y y y Subspace collapsed.
   28   21    9  4.452e-06  4.452e-05  0.3211 y y y y y y y y 
   29   26    9  4.431e-06  4.431e-05  0.3211 y y y y y y y y 
   30   31    9  5.053e-06  5.053e-05  0.3211 y y y y y y y y 
   31   35    9  3.736e-06  3.736e-05  0.3211 y y y y y y y y 
   32   39    9  1.683e-06  1.683e-05  0.3211 y y y y y y y y 
   33   43    9  1.003e-06  1.003e-05  0.3211 y y y y y y y y 
   34   47    9  7.177e-07  7.177e-06  0.3211 y y y y y y y y 
   35   50    9  3.881e-07  3.881e-06  0.3211 y y y y y y y y 
   36   14    9  1.995e-07  1.995e-06  0.3211 y y y y y y y y Subspace collapsed.
   37   18    9  1.543e-07  1.543e-06  0.3211 y y y y y y y y 
   38   22   10  9.476e-08  9.476e-07  0.3211 y y y y y y y y Converged.
--------------------------------------------------------------------------------
  Davidson Summary: 
 ------------------------------------------------------------
  State  0: excitation energy =   0.3211 a.u.   (converged)
  State  1: excitation energy =   0.3325 a.u.   (converged)
  State  2: excitation energy =   0.3373 a.u.   (converged)
  State  3: excitation energy =   0.3615 a.u.   (converged)
  State  4: excitation energy =   0.3755 a.u.   (converged)
  State  5: excitation energy =   0.3874 a.u.   (converged)
  State  6: excitation energy =   0.4249 a.u.   (converged)
  State  7: excitation energy =   0.4469 a.u.   (converged)
  State  8: excitation energy =   0.4562 a.u.   (converged)
  State  9: excitation energy =   0.4648 a.u.   (converged)
 ------------------------------------------------------------

  Singlet states of irrep A ...  CPU 91.14 s  wall 31.15 s
  TDMs ...  CPU 0.66 s  wall 0.27 s
  SDMs ...  CPU 1.47 s  wall 0.52 s
  Starting TPA DIIS iterations ... 
------------------------------------ 
   It     Res. Norm  Remark
------------------------------------
                       Guess.
    1     4.410e+00  
    2     5.846e+00  
    3     1.076e+00  
    4     2.560e-01  
    5     6.572e-02  
    6     2.671e-02  
    7     8.236e-03  
    8     1.435e-03  
    9     5.334e-04  
   10     8.971e-05  
   11     2.813e-05  
   12     4.370e-06  
   13     1.411e-06  
   14     4.256e-07  Converged.
   ... Converged in 14 steps (norm: 4.25567e-07)
------------------------------------
  Starting TPA DIIS iterations ... 
------------------------------------ 
   It     Res. Norm  Remark
------------------------------------
                       Guess.
    1     4.184e+00  
    2     5.543e+00  
    3     1.031e+00  
    4     2.558e-01  
    5     6.530e-02  
    6     2.677e-02  
    7     8.133e-03  
    8     1.458e-03  
    9     5.380e-04  
   10     9.011e-05  
   11     2.847e-05  
   12     4.347e-06  
   13     1.431e-06  
   14     4.184e-07  Converged.
   ... Converged in 14 steps (norm: 4.18407e-07)
------------------------------------
  Starting TPA DIIS iterations ... 
------------------------------------ 
   It     Res. Norm  Remark
------------------------------------
                       Guess.
    1     6.867e-01  
    2     4.827e-01  
    3     1.706e-01  
    4     6.061e-02  
    5     1.826e-02  
    6     6.601e-03  
    7     1.031e-03  
    8     4.453e-04  
    9     1.238e-04  
   10     2.941e-05  
   11     5.573e-06  
   12     1.721e-06  
   13     1.080e-06  
   14     4.289e-07  Converged.
   ... Converged in 14 steps (norm: 4.2889e-07)
------------------------------------
  Starting TPA DIIS iterations ... 
------------------------------------ 
   It     Res. Norm  Remark
------------------------------------
                       Guess.
    1     4.693e+00  
    2     6.354e+00  
    3     1.156e+00  
    4     2.840e-01  
    5     7.390e-02  
    6     3.028e-02  
    7     9.322e-03  
    8     1.621e-03  
    9     6.074e-04  
   10     1.027e-04  
   11     3.252e-05  
   12     5.094e-06  
   13     1.656e-06  
   14     4.983e-07  Converged.
   ... Converged in 14 steps (norm: 4.98341e-07)
------------------------------------
  Starting TPA DIIS iterations ... 
------------------------------------ 
   It     Res. Norm  Remark
------------------------------------
                       Guess.
    1     4.452e+00  
    2     6.024e+00  
    3     1.107e+00  
    4     2.836e-01  
    5     7.345e-02  
    6     3.039e-02  
    7     9.210e-03  
    8     1.649e-03  
    9     6.126e-04  
   10     1.032e-04  
   11     3.290e-05  
   12     5.063e-06  
   13     1.680e-06  
   14     4.895e-07  Converged.
   ... Converged in 14 steps (norm: 4.89487e-07)
------------------------------------
  Starting TPA DIIS iterations ... 
------------------------------------ 
   It     Res. Norm  Remark
------------------------------------
                       Guess.
    1     6.985e-01  
    2     4.998e-01  
    3     1.803e-01  
    4     6.846e-02  
    5     1.964e-02  
    6     7.206e-03  
    7     1.162e-03  
    8     5.235e-04  
    9     1.492e-04  
   10     3.355e-05  
   11     6.354e-06  
   12     2.033e-06  
   13     1.357e-06  
   14     5.300e-07  Converged.
   ... Converged in 14 steps (norm: 5.30031e-07)
------------------------------------
  Starting TPA DIIS iterations ... 
------------------------------------ 
   It     Res. Norm  Remark
------------------------------------
                       Guess.
    1     4.820e+00  
    2     6.586e+00  
    3     1.192e+00  
    4     2.970e-01  
    5     7.771e-02  
    6     3.195e-02  
    7     9.827e-03  
    8     1.708e-03  
    9     6.419e-04  
   10     1.088e-04  
   11     3.460e-05  
   12     5.436e-06  
   13     1.774e-06  
   14     5.328e-07  Converged.
   ... Converged in 14 steps (norm: 5.32774e-07)
------------------------------------
  Starting TPA DIIS iterations ... 
------------------------------------ 
   It     Res. Norm  Remark
------------------------------------
                       Guess.
    1     4.573e+00  
    2     6.244e+00  
    3     1.141e+00  
    4     2.964e-01  
    5     7.723e-02  
    6     3.208e-02  
    7     9.710e-03  
    8     1.737e-03  
    9     6.473e-04  
   10     1.093e-04  
   11     3.499e-05  
   12     5.401e-06  
   13     1.798e-06  
   14     5.231e-07  Converged.
   ... Converged in 14 steps (norm: 5.23131e-07)
------------------------------------
  Starting TPA DIIS iterations ... 
------------------------------------ 
   It     Res. Norm  Remark
------------------------------------
                       Guess.
    1     7.036e-01  
    2     5.074e-01  
    3     1.847e-01  
    4     7.217e-02  
    5     2.025e-02  
    6     7.486e-03  
    7     1.224e-03  
    8     5.609e-04  
    9     1.614e-04  
   10     3.510e-05  
   11     6.716e-06  
   12     2.183e-06  
   13     1.496e-06  
   14     5.806e-07  Converged.
   ... Converged in 14 steps (norm: 5.80615e-07)
------------------------------------
  Starting TPA DIIS iterations ... 
------------------------------------ 
   It     Res. Norm  Remark
------------------------------------
                       Guess.
    1     5.557e+00  
    2     7.961e+00  
    3     1.398e+00  
    4     3.766e-01  
    5     1.009e-01  
    6     4.226e-02  
    7     1.292e-02  
    8     2.236e-03  
    9     8.549e-04  
   10     1.463e-04  
   11     4.769e-05  
   12     7.596e-06  
   13     2.531e-06  
   14     7.514e-07  Converged.
   ... Converged in 14 steps (norm: 7.5137e-07)
------------------------------------
  Starting TPA DIIS iterations ... 
------------------------------------ 
   It     Res. Norm  Remark
------------------------------------
                       Guess.
    1     5.270e+00  
    2     7.547e+00  
    3     1.338e+00  
    4     3.752e-01  
    5     1.004e-01  
    6     4.251e-02  
    7     1.277e-02  
    8     2.277e-03  
    9     8.619e-04  
   10     1.470e-04  
   11     4.814e-05  
   12     7.532e-06  
   13     2.560e-06  
   14     7.371e-07  Converged.
   ... Converged in 14 steps (norm: 7.37128e-07)
------------------------------------
  Starting TPA DIIS iterations ... 
------------------------------------ 
   It     Res. Norm  Remark
------------------------------------
                       Guess.
    1     7.303e-01  
    2     5.485e-01  
    3     2.090e-01  
    4     9.555e-02  
    5     2.376e-02  
    6     9.209e-03  
    7     1.619e-03  
    8     7.955e-04  
    9     2.362e-04  
   10     4.036e-05  
   11     8.954e-06  
   12     3.165e-06  
   13     2.482e-06  
   14     9.376e-07  Converged.
   ... Converged in 14 steps (norm: 9.37626e-07)
------------------------------------
  Starting TPA DIIS iterations ... 
------------------------------------ 
   It     Res. Norm  Remark
------------------------------------
                       Guess.
    1     6.074e+00  
    2     8.959e+00  
    3     1.541e+00  
    4     4.365e-01  
    5     1.185e-01  
    6     5.013e-02  
    7     1.524e-02  
    8     2.632e-03  
    9     1.017e-03  
   10     1.750e-04  
   11     5.789e-05  
   12     9.277e-06  
   13     3.138e-06  
   14     9.248e-07  Converged.
   ... Converged in 14 steps (norm: 9.24822e-07)
------------------------------------
  Starting TPA DIIS iterations ... 
------------------------------------ 
   It     Res. Norm  Remark
------------------------------------
                       Guess.
    1     5.759e+00  
    2     8.492e+00  
    3     1.475e+00  
    4     4.345e-01  
    5     1.178e-01  
    6     5.048e-02  
    7     1.508e-02  
    8     2.683e-03  
    9     1.025e-03  
   10     1.758e-04  
   11     5.835e-05  
   12     9.189e-06  
   13     3.167e-06  
   14     9.076e-07  Converged.
   ... Converged in 14 steps (norm: 9.0764e-07)
------------------------------------
  Starting TPA DIIS iterations ... 
------------------------------------ 
   It     Res. Norm  Remark
------------------------------------
                       Guess.
    1     7.467e-01  
    2     5.755e-01  
    3     2.255e-01  
    4     1.138e-01  
    5     2.627e-02  
    6     1.052e-02  
    7     1.933e-03  
    8     9.672e-04  
    9     2.900e-04  
   10     4.154e-05  
   11     1.071e-05  
   12     3.965e-06  
   13     3.361e-06  
   14     1.258e-06  
   15     4.331e-07  Converged.
   ... Converged in 15 steps (norm: 4.33146e-07)
------------------------------------
  Starting TPA DIIS iterations ... 
------------------------------------ 
   It     Res. Norm  Remark
------------------------------------
                       Guess.
    1     6.576e+00  
    2     9.953e+00  
    3     1.680e+00  
    4     4.978e-01  
    5     1.363e-01  
    6     5.823e-02  
    7     1.762e-02  
    8     3.035e-03  
    9     1.184e-03  
   10     2.044e-04  
   11     6.851e-05  
   12     1.102e-05  
   13     3.781e-06  
   14     1.110e-06  
   15     3.994e-07  Converged.
   ... Converged in 15 steps (norm: 3.99434e-07)
------------------------------------
  Starting TPA DIIS iterations ... 
------------------------------------ 
   It     Res. Norm  Remark
------------------------------------
                       Guess.
    1     6.234e+00  
    2     9.434e+00  
    3     1.607e+00  
    4     4.949e-01  
    5     1.357e-01  
    6     5.869e-02  
    7     1.744e-02  
    8     3.096e-03  
    9     1.193e-03  
   10     2.054e-04  
   11     6.894e-05  
   12     1.091e-05  
   13     3.806e-06  
   14     1.090e-06  
   15     3.597e-07  Converged.
   ... Converged in 15 steps (norm: 3.59682e-07)
------------------------------------
  Starting TPA DIIS iterations ... 
------------------------------------ 
   It     Res. Norm  Remark
------------------------------------
                       Guess.
    1     7.612e-01  
    2     6.003e-01  
    3     2.411e-01  
    4     1.328e-01  
    5     2.876e-02  
    6     1.186e-02  
    7     2.266e-03  
    8     1.129e-03  
    9     3.413e-04  
   10     4.215e-05  
   11     1.259e-05  
   12     4.824e-06  
   13     4.363e-06  
   14     1.627e-06  
   15     5.514e-07  Converged.
   ... Converged in 15 steps (norm: 5.51391e-07)
------------------------------------
  Starting TPA DIIS iterations ... 
------------------------------------ 
   It     Res. Norm  Remark
------------------------------------
                       Guess.
    1     8.686e+00  
    2     1.437e+01  
    3     2.253e+00  
    4     7.823e-01  
    5     2.195e-01  
    6     9.669e-02  
    7     2.869e-02  
    8     4.903e-03  
    9     1.975e-03  
   10     3.435e-04  
   11     1.186e-04  
   12     1.931e-05  
   13     6.899e-06  
   14     2.083e-06  
   15     8.087e-07  Converged.
   ... Converged in 15 steps (norm: 8.08669e-07)
------------------------------------
  Starting TPA DIIS iterations ... 
------------------------------------ 
   It     Res. Norm  Remark
------------------------------------
                       Guess.
    1     8.231e+00  
    2     1.362e+01  
    3     2.153e+00  
    4     7.752e-01  
    5     2.187e-01  
    6     9.777e-02  
    7     2.843e-02  
    8     5.008e-03  
    9     1.986e-03  
   10     3.450e-04  
   11     1.187e-04  
   12     1.908e-05  
   13     6.864e-06  
   14     2.060e-06  
   15     6.749e-07  Converged.
   ... Converged in 15 steps (norm: 6.74907e-07)
------------------------------------
  Starting TPA DIIS iterations ... 
------------------------------------ 
   It     Res. Norm  Remark
------------------------------------
                       Guess.
    1     8.112e-01  
    2     6.940e-01  
    3     3.027e-01  
    4     2.222e-01  
    5     4.008e-02  
    6     1.804e-02  
    7     3.925e-03  
    8     1.638e-03  
    9     5.384e-04  
   10     5.273e-05  
   11     2.242e-05  
   12     9.214e-06  
   13     1.007e-05  
   14     3.833e-06  
   15     1.458e-06  
   16     9.117e-07  Converged.
   ... Converged in 16 steps (norm: 9.11655e-07)
------------------------------------
  Starting TPA DIIS iterations ... 
------------------------------------ 
   It     Res. Norm  Remark
------------------------------------
                       Guess.
    1     1.049e+01  
    2     1.842e+01  
    3     2.729e+00  
    4     1.052e+00  
    5     2.992e-01  
    6     1.344e-01  
    7     3.929e-02  
    8     6.680e-03  
    9     2.747e-03  
   10     4.779e-04  
   11     1.655e-04  
   12     2.737e-05  
   13     9.912e-06  
   14     3.185e-06  
   15     1.316e-06  
   16     3.610e-07  Converged.
   ... Converged in 16 steps (norm: 3.61005e-07)
------------------------------------
  Starting TPA DIIS iterations ... 
------------------------------------ 
   It     Res. Norm  Remark
------------------------------------
                       Guess.
    1     9.936e+00  
    2     1.746e+01  
    3     2.606e+00  
    4     1.040e+00  
    5     2.982e-01  
    6     1.361e-01  
    7     3.896e-02  
    8     6.826e-03  
    9     2.759e-03  
   10     4.797e-04  
   11     1.650e-04  
   12     2.712e-05  
   13     9.769e-06  
   14     3.155e-06  
   15     1.037e-06  
   16     2.746e-07  Converged.
   ... Converged in 16 steps (norm: 2.74592e-07)
------------------------------------
  Starting TPA DIIS iterations ... 
------------------------------------ 
   It     Res. Norm  Remark
------------------------------------
                       Guess.
    1     8.442e-01  
    2     7.642e-01  
    3     3.514e-01  
    4     3.031e-01  
    5     5.061e-02  
    6     2.361e-02  
    7     5.572e-03  
    8     1.847e-03  
    9     6.884e-04  
   10     7.230e-05  
   11     3.313e-05  
   12     1.384e-05  
   13     1.673e-05  
   14     6.572e-06  
   15     3.011e-06  
   16     1.662e-06  
   17     5.319e-07  Converged.
   ... Converged in 17 steps (norm: 5.31899e-07)
------------------------------------
  Starting TPA DIIS iterations ... 
------------------------------------ 
   It     Res. Norm  Remark
------------------------------------
                       Guess.
    1     1.143e+01  
    2     2.063e+01  
    3     2.974e+00  
    4     1.201e+00  
    5     3.436e-01  
    6     1.556e-01  
    7     4.518e-02  
    8     7.665e-03  
    9     3.181e-03  
   10     5.529e-04  
   11     1.908e-04  
   12     3.194e-05  
   13     1.163e-05  
   14     3.861e-06  
   15     1.673e-06  
   16     4.905e-07  Converged.
   ... Converged in 16 steps (norm: 4.9049e-07)
------------------------------------
  Starting TPA DIIS iterations ... 
------------------------------------ 
   It     Res. Norm  Remark
------------------------------------
                       Guess.
    1     1.083e+01  
    2     1.955e+01  
    3     2.839e+00  
    4     1.186e+00  
    5     3.425e-01  
    6     1.578e-01  
    7     4.481e-02  
    8     7.834e-03  
    9     3.193e-03  
   10     5.548e-04  
   11     1.900e-04  
   12     3.172e-05  
   13     1.141e-05  
   14     3.819e-06  
   15     1.294e-06  
   16     3.498e-07  Converged.
   ... Converged in 16 steps (norm: 3.49768e-07)
------------------------------------
  Starting TPA DIIS iterations ... 
------------------------------------ 
   It     Res. Norm  Remark
------------------------------------
                       Guess.
    1     8.592e-01  
    2     7.983e-01  
    3     3.757e-01  
    4     3.443e-01  
    5     5.633e-02  
    6     2.647e-02  
    7     6.484e-03  
    8     1.906e-03  
    9     7.627e-04  
   10     8.417e-05  
   11     3.952e-05  
   12     1.661e-05  
   13     2.090e-05  
   14     8.317e-06  
   15     4.127e-06  
   16     2.145e-06  
   17     7.172e-07  Converged.
   ... Converged in 17 steps (norm: 7.17234e-07)
------------------------------------
  Starting TPA DIIS iterations ... 
------------------------------------ 
   It     Res. Norm  Remark
------------------------------------
                       Guess.
    1     1.242e+01  
    2     2.302e+01  
    3     3.229e+00  
    4     1.362e+00  
    5     3.921e-01  
    6     1.791e-01  
    7     5.163e-02  
    8     8.742e-03  
    9     3.658e-03  
   10     6.350e-04  
   11     2.181e-04  
   12     3.703e-05  
   13     1.359e-05  
   14     4.647e-06  
   15     2.139e-06  
   16     6.714e-07  Converged.
   ... Converged in 16 steps (norm: 6.7144e-07)
------------------------------------
  Starting TPA DIIS iterations ... 
------------------------------------ 
   It     Res. Norm  Remark
------------------------------------
                       Guess.
    1     1.177e+01  
    2     2.182e+01  
    3     3.082e+00  
    4     1.344e+00  
    5     3.910e-01  
    6     1.817e-01  
    7     5.122e-02  
    8     8.935e-03  
    9     3.670e-03  
   10     6.370e-04  
   11     2.170e-04  
   12     3.690e-05  
   13     1.328e-05  
   14     4.584e-06  
   15     1.635e-06  
   16     4.438e-07  Converged.
   ... Converged in 16 steps (norm: 4.43786e-07)
------------------------------------
  Starting TPA DIIS iterations ... 
------------------------------------ 
   It     Res. Norm  Remark
------------------------------------
                       Guess.
    1     8.735e-01  
    2     8.328e-01  
    3     4.005e-01  
    4     3.856e-01  
    5     6.248e-02  
    6     2.939e-02  
    7     7.468e-03  
    8     1.952e-03  
    9     8.391e-04  
   10     9.719e-05  
   11     4.683e-05  
   12     1.984e-05  
   13     2.590e-05  
   14     1.039e-05  
   15     5.513e-06  
   16     2.708e-06  
   17     9.419e-07  Converged.
   ... Converged in 17 steps (norm: 9.41939e-07)
------------------------------------
  Two-photon absorbption ...  CPU 77.79 s  wall 18.55 s
  Transition density matrix of state singlet_A_1 printed to ASCII file 'State_singlet_A_1_Transition.txt'
  Transition density matrix of state singlet_A_2 printed to ASCII file 'State_singlet_A_2_Transition.txt'
  Transition density matrix of state singlet_A_3 printed to ASCII file 'State_singlet_A_3_Transition.txt'
  Transition density matrix of state singlet_A_4 printed to ASCII file 'State_singlet_A_4_Transition.txt'
  Transition density matrix of state singlet_A_5 printed to ASCII file 'State_singlet_A_5_Transition.txt'
  Transition density matrix of state singlet_A_6 printed to ASCII file 'State_singlet_A_6_Transition.txt'
  Transition density matrix of state singlet_A_7 printed to ASCII file 'State_singlet_A_7_Transition.txt'
  Transition density matrix of state singlet_A_8 printed to ASCII file 'State_singlet_A_8_Transition.txt'
  Transition density matrix of state singlet_A_9 printed to ASCII file 'State_singlet_A_9_Transition.txt'
  Transition density matrix of state singlet_A_10 printed to ASCII file 'State_singlet_A_10_Transition.txt'
  Transition properties ...  CPU 0.16 s  wall 0.43 s
  Difference density matrix of state singlet_A_1 printed to ASCII file 'State_singlet_A_1_Difference.txt'
  Total density matrix of state singlet_A_1 printed to ASCII file 'State_singlet_A_1_Total.txt'
  Difference density matrix of state singlet_A_2 printed to ASCII file 'State_singlet_A_2_Difference.txt'
  Total density matrix of state singlet_A_2 printed to ASCII file 'State_singlet_A_2_Total.txt'
  Difference density matrix of state singlet_A_3 printed to ASCII file 'State_singlet_A_3_Difference.txt'
  Total density matrix of state singlet_A_3 printed to ASCII file 'State_singlet_A_3_Total.txt'
  Difference density matrix of state singlet_A_4 printed to ASCII file 'State_singlet_A_4_Difference.txt'
  Total density matrix of state singlet_A_4 printed to ASCII file 'State_singlet_A_4_Total.txt'
  Difference density matrix of state singlet_A_5 printed to ASCII file 'State_singlet_A_5_Difference.txt'
  Total density matrix of state singlet_A_5 printed to ASCII file 'State_singlet_A_5_Total.txt'
  Difference density matrix of state singlet_A_6 printed to ASCII file 'State_singlet_A_6_Difference.txt'
  Total density matrix of state singlet_A_6 printed to ASCII file 'State_singlet_A_6_Total.txt'
  Difference density matrix of state singlet_A_7 printed to ASCII file 'State_singlet_A_7_Difference.txt'
  Total density matrix of state singlet_A_7 printed to ASCII file 'State_singlet_A_7_Total.txt'
  Difference density matrix of state singlet_A_8 printed to ASCII file 'State_singlet_A_8_Difference.txt'
  Total density matrix of state singlet_A_8 printed to ASCII file 'State_singlet_A_8_Total.txt'
  Difference density matrix of state singlet_A_9 printed to ASCII file 'State_singlet_A_9_Difference.txt'
  Total density matrix of state singlet_A_9 printed to ASCII file 'State_singlet_A_9_Total.txt'
  Difference density matrix of state singlet_A_10 printed to ASCII file 'State_singlet_A_10_Difference.txt'
  Total density matrix of state singlet_A_10 printed to ASCII file 'State_singlet_A_10_Total.txt'
  Properties ...  CPU 0.31 s  wall 0.60 s
  ISR TDMS ...  CPU 8.84 s  wall 3.15 s
  ISR transition properties ...  CPU 0.17 s  wall 0.08 s
  Sum-over-states TPA ...  CPU 0.00 s  wall 0.00 s

--------------------------------------------------------------------------------
                   State-averaged natural transition orbitals
--------------------------------------------------------------------------------
--------------------------------------------------------------------------------
  SA-NTO decomposition ...  CPU 0.01 s  wall 0.02 s

--------------------------------------------------------------------------------
                             Excited State Summary
--------------------------------------------------------------------------------
--------------------------------------------------------------------------------

  Excited state 1 (singlet, A)                                     [converged]
  ----------------------------------------------------------------------------
  Term symbol:  2 (1) A                                     R^2 =  3.54441e-13

  Total energy:                                            -77.9985290561 a.u.
  Excitation energy:                                               8.736359 eV

  Osc. strength:                                                      0.445527
  Trans. dip. moment [a.u.]:           [   1.044542,   -0.995182,   -0.009409]
  <i|r^2|0> [a.u.]:                    [   6.162980,   -0.250091,   -0.000057]
  Two-photon absorption cross-section (SoS) [a.u.]:                   0.000392
  Two-photon absorption matrix (SoS) [a.u.]:
                                       |    0.006740    0.002627    0.000106 |
                                       |    0.002627   -0.005659    0.000229 |
                                       |    0.000106    0.000229   -0.002388 |
  Two-photon absorption cross-section [a.u.]:                         0.000847
  Two-photon absorption matrix [a.u.]:
                                       |    0.009819    0.001922    0.000110 |
                                       |    0.001922   -0.009842    0.001002 |
                                       |    0.000110    0.001002   -0.002436 |

  Dip. moment [a.u.]:                  [  -0.000029,   -0.000406,    0.000732]
  Total dipole [Debye]:                                               0.002129
  <r^2> [a.u.]:                        [ 176.114790,   35.670702,   11.865455]
  Total <r^2> [a.u.]:                                               223.650947

  V1^2 = 0.9715, V2^2 = 0.0285

  Important amplitudes:
      occ i     occ j     vir a      vir b          v   
    -----------------------------------------------------
     8 (A) A              9 (A) A                 0.6811
     6 (A) A             14 (A) A                -0.0622
     4 (A) A             10 (A) A                 0.0604
     7 (A) A             16 (A) A                 0.0571
     5 (A) A             13 (A) A                -0.0513
     6 (A) A             23 (A) A                -0.0484
     8 (A) A             20 (A) A                -0.0349
     6 (A) A             19 (A) A                 0.0309
     3 (A) A             12 (A) A                 0.0281
     5 (A) A             22 (A) A                 0.0215
     7 (A) A             11 (A) A                 0.0205
     4 (A) A             24 (A) A                 0.0187
     3 (A) A             26 (A) A                -0.0185
     8 (A) A   8 (A) B   17 (A) A   20 (A) B      0.0184
     8 (A) A   8 (A) B    9 (A) A   28 (A) B     -0.0168
     6 (A) A             26 (A) A                -0.0164
     7 (A) A             21 (A) A                 0.0147
     3 (A) A             14 (A) A                -0.0139
     6 (A) A             12 (A) A                -0.0130
     3 (A) A   4 (A) B    9 (A) A    9 (A) B     -0.0129
     3 (A) A             19 (A) A                 0.0119
     8 (A) A   8 (A) B   18 (A) A   19 (A) B     -0.0113
     7 (A) A             32 (A) A                 0.0096
     7 (A) A             36 (A) A                -0.0086
     3 (A) A             23 (A) A                -0.0080
     8 (A) A   8 (A) B   25 (A) A   29 (A) B      0.0076
     6 (A) A             35 (A) A                -0.0073
     6 (A) A             40 (A) A                -0.0068
     3 (A) A   6 (A) B    9 (A) A   28 (A) B     -0.0065
     6 (A) A   8 (A) A   19 (A) A   28 (A) A      0.0061
     5 (A) A   7 (A) B    9 (A) A    9 (A) B     -0.0060
     5 (A) A   8 (A) B   11 (A) A   20 (A) B      0.0059
     7 (A) A   8 (A) B   13 (A) A   20 (A) B     -0.0059
     5 (A) A   8 (A) B   16 (A) A    9 (A) B     -0.0059
     5 (A) A   8 (A) B   11 (A) A    9 (A) B      0.0059
     3 (A) A   5 (A) B    9 (A) A   25 (A) B     -0.0058
     3 (A) A             40 (A) A                -0.0057
     7 (A) A   8 (A) B   22 (A) A   20 (A) B      0.0057
     6 (A) A   8 (A) A    9 (A) A   18 (A) A     -0.0056
     8 (A) A   8 (A) B   19 (A) A   30 (A) B     -0.0056
    -----------------------------------------------------

  Density matrix analysis:
  ------------------------
  NOs
    Occupation of frontier NOs:
       0.9496   1.0216
    Number of electrons: 16.000000
    Number of unpaired electrons: n_u =  2.31325, n_u,nl =  2.03260
    NO participation ratio (PR_NO):  2.863223
  
  
  Mulliken Population Analysis
  Atom      Charge (e)              h+              e-           Del q
  --------------------------------------------------------------------
   1 H        0.058165        0.020341       -0.012482        0.007859
   2 C       -0.115657        0.490798       -0.506274       -0.015476
   3 H        0.057753        0.020207       -0.012578        0.007629
   4 C       -0.116728        0.490811       -0.506312       -0.015501
   5 H        0.057869        0.020186       -0.012550        0.007635
   6 H        0.058599        0.020357       -0.012503        0.007854
  --------------------------------------------------------------------
  Sum:       -0.000000        1.062700       -1.062700        0.000000
  
  Multipole moment analysis of the density matrix
    Molecular charge:                      -0.000000
    Number of electrons:                   16.000000
      Center of electronic charge [Ang]: [ -1.560575,  -0.066214,   0.001954]
    Total nuclear charge:                  16.000000
      Center of nuclear charge [Ang]:    [ -1.560576,  -0.066227,   0.001978]
    Dipole moment [D]:                     0.002129
      Cartesian components [D]:          [ -0.000075,  -0.001031,   0.001862]
    RMS size of the density [Ang]:         1.214293
      Cartesian components [Ang]:        [  0.804318,   0.787348,   0.455700]
  
  Exciton analysis of the difference density matrix
    <r_h> [Ang]:                  [ -1.560318,  -0.065973,   0.001677]
    <r_e> [Ang]:                  [ -1.560216,  -0.065881,   0.001614]
    |<r_e - r_h>| [Ang]:            0.000151
    Hole size [Ang]:                1.285446
      Cartesian components [Ang]: [  0.728414,   0.712751,   0.783434]
    Electron size [Ang]:            1.463153
      Cartesian components [Ang]: [  0.853995,   0.830454,   0.849621]

  Transition density matrix analysis:
  -----------------------------------
  
  CT numbers (Mulliken)
    omega =     0.9535
    <Phe> =    -0.1608
  
  Exciton analysis of the transition density matrix
    Trans. dipole moment [D]:             1.833560
      Cartesian components [D]:         [  1.327480,  -1.264750,  -0.011957]
    <r_h> [Ang]:                        [ -1.560246,  -0.065933,   0.001741]
    <r_e> [Ang]:                        [ -1.560238,  -0.065896,   0.001564]
    |<r_e - r_h>| [Ang]:                  0.000181
    Hole size [Ang]:                      1.214125
      Cartesian components [Ang]:       [  0.649530,   0.636462,   0.804443]
    Electron size [Ang]:                  1.486036
      Cartesian components [Ang]:       [  0.864436,   0.839388,   0.869759]
    RMS electron-hole separation [Ang]:   1.936857
      Cartesian components [Ang]:       [  1.106909,   1.075214,   1.170506]
    Covariance(r_h, r_e) [Ang^2]:        -0.034507
    Correlation coefficient:             -0.019126
    Center-of-mass size [Ang]:            0.950446
      Cartesian components [Ang]:       [  0.527501,   0.515565,   0.599402]

  Decomposition into state-averaged NTOs
    H- 0 -> L+ 0:  0.6699 ( 89.8%)
    H- 2 -> L+ 5:  0.0836 (  1.4%)
                   omega =  95.4%
  ----------------------------------------------------------------------------


  Excited state 2 (singlet, A)                                     [converged]
  ----------------------------------------------------------------------------
  Term symbol:  3 (1) A                                     R^2 =  2.67749e-13

  Total energy:                                            -77.9870487309 a.u.
  Excitation energy:                                               9.048755 eV

  Osc. strength:                                                      0.000017
  Trans. dip. moment [a.u.]:           [  -0.000268,    0.001745,   -0.008553]
  <i|r^2|0> [a.u.]:                    [   0.061821,    0.087716,   -0.150639]
  Two-photon absorption cross-section (SoS) [a.u.]:                   4.777418
  Two-photon absorption matrix (SoS) [a.u.]:
                                       |    0.051564    0.058073   -0.533045 |
                                       |    0.058073    0.064923   -0.547231 |
                                       |   -0.533045   -0.547231   -0.116359 |
  Two-photon absorption cross-section [a.u.]:                         0.081129
  Two-photon absorption matrix [a.u.]:
                                       |   -0.003438   -0.007140    0.052490 |
                                       |   -0.007140   -0.011627    0.084533 |
                                       |    0.052490    0.084533    0.015213 |

  Dip. moment [a.u.]:                  [   0.007768,    0.010083,    0.002368]
  Total dipole [Debye]:                                               0.032907
  <r^2> [a.u.]:                        [ 174.607046,   33.956697,   13.171756]
  Total <r^2> [a.u.]:                                               221.735498

  V1^2 = 0.9542, V2^2 = 0.0458

  Important amplitudes:
      occ i     occ j     vir a      vir b          v   
    -----------------------------------------------------
     7 (A) A              9 (A) A                -0.6694
     8 (A) A             11 (A) A                -0.1464
     7 (A) A             20 (A) A                 0.0759
     5 (A) A   8 (A) B    9 (A) A    9 (A) B      0.0317
     8 (A) A             16 (A) A                 0.0272
     8 (A) A             21 (A) A                -0.0174
     8 (A) A             10 (A) A                 0.0172
     5 (A) A             28 (A) A                 0.0151
     4 (A) A   7 (A) B    9 (A) A   19 (A) B      0.0135
     5 (A) A   7 (A) B    9 (A) A   16 (A) B     -0.0134
     7 (A) A   8 (A) B   20 (A) A   17 (A) B     -0.0105
     7 (A) A   8 (A) A    9 (A) A   28 (A) A     -0.0098
     5 (A) A   8 (A) B    9 (A) A   20 (A) B     -0.0096
     4 (A) A   6 (A) B    9 (A) A   16 (A) B      0.0091
     5 (A) A   6 (A) A    9 (A) A   23 (A) A      0.0091
     5 (A) A   6 (A) A    9 (A) A   14 (A) A      0.0089
     5 (A) A   6 (A) B    9 (A) A   19 (A) B     -0.0087
     8 (A) A   7 (A) B    9 (A) A   28 (A) B      0.0085
     4 (A) A   5 (A) A    9 (A) A   10 (A) A      0.0084
     6 (A) A   7 (A) B    9 (A) A   18 (A) B      0.0083
     5 (A) A   6 (A) B    9 (A) A   23 (A) B      0.0080
     3 (A) A   7 (A) B    9 (A) A   18 (A) B     -0.0080
     5 (A) A   7 (A) A    9 (A) A   16 (A) A     -0.0079
     4 (A) A   8 (A) B    9 (A) A   25 (A) B      0.0077
     7 (A) A   8 (A) B   17 (A) A   20 (A) B     -0.0074
     4 (A) A   7 (A) B   19 (A) A    9 (A) B      0.0074
     5 (A) A   5 (A) B    9 (A) A   13 (A) B      0.0072
     7 (A) A   8 (A) B   19 (A) A   18 (A) B      0.0072
     5 (A) A   8 (A) A    9 (A) A   20 (A) A     -0.0069
     4 (A) A   5 (A) B    9 (A) A   18 (A) B     -0.0068
     8 (A) A             12 (A) A                -0.0066
     7 (A) A   7 (A) B   20 (A) A   22 (A) B     -0.0065
     7 (A) A   8 (A) B   17 (A) A    9 (A) B      0.0065
     5 (A) A   6 (A) B    9 (A) A   14 (A) B      0.0064
     4 (A) A   7 (A) A    9 (A) A   19 (A) A      0.0061
     4 (A) A   5 (A) B   10 (A) A    9 (A) B     -0.0061
     5 (A) A   7 (A) B   11 (A) A   20 (A) B     -0.0060
     5 (A) A             38 (A) A                 0.0060
     4 (A) A   7 (A) B    9 (A) A   14 (A) B      0.0059
     6 (A) A   7 (A) A   19 (A) A   28 (A) A     -0.0057
    -----------------------------------------------------

  Density matrix analysis:
  ------------------------
  NOs
    Occupation of frontier NOs:
       0.9585   1.0532
    Number of electrons: 16.000000
    Number of unpaired electrons: n_u =  2.35515, n_u,nl =  2.06237
    NO participation ratio (PR_NO):  3.023893
  
  
  Mulliken Population Analysis
  Atom      Charge (e)              h+              e-           Del q
  --------------------------------------------------------------------
   1 H        0.149006        0.119830       -0.021130        0.098700
   2 C       -0.301645        0.271963       -0.473426       -0.201463
   3 H        0.152546        0.129863       -0.027441        0.102422
   4 C       -0.302634        0.272306       -0.473713       -0.201407
   5 H        0.156867        0.128228       -0.021595        0.106634
   6 H        0.145860        0.122029       -0.026914        0.095115
  --------------------------------------------------------------------
  Sum:       -0.000000        1.044218       -1.044218        0.000000
  
  Multipole moment analysis of the density matrix
    Molecular charge:                      -0.000000
    Number of electrons:                   16.000000
      Center of electronic charge [Ang]: [ -1.560833,  -0.066561,   0.001900]
    Total nuclear charge:                  16.000000
      Center of nuclear charge [Ang]:    [ -1.560576,  -0.066227,   0.001978]
    Dipole moment [D]:                     0.032907
      Cartesian components [D]:          [  0.019745,   0.025628,   0.006019]
    RMS size of the density [Ang]:         1.200055
      Cartesian components [Ang]:        [  0.787232,   0.768031,   0.480131]
  
  Exciton analysis of the difference density matrix
    <r_h> [Ang]:                  [ -1.564204,  -0.068700,   0.001732]
    <r_e> [Ang]:                  [ -1.568051,  -0.073921,   0.000839]
    |<r_e - r_h>| [Ang]:            0.006547
    Hole size [Ang]:                1.486388
      Cartesian components [Ang]: [  0.994479,   1.007031,   0.454147]
    Electron size [Ang]:            1.476362
      Cartesian components [Ang]: [  0.880067,   0.859397,   0.816433]

  Transition density matrix analysis:
  -----------------------------------
  
  CT numbers (Mulliken)
    omega =     0.9218
    <Phe> =    -0.0122
  
  Exciton analysis of the transition density matrix
    Trans. dipole moment [D]:             0.011099
      Cartesian components [D]:         [ -0.000341,   0.002218,  -0.010870]
    <r_h> [Ang]:                        [ -1.564399,  -0.068704,   0.001809]
    <r_e> [Ang]:                        [ -1.568265,  -0.074309,   0.000713]
    |<r_e - r_h>| [Ang]:                  0.006896
    Hole size [Ang]:                      1.515157
      Cartesian components [Ang]:       [  1.016637,   1.032121,   0.443706]
    Electron size [Ang]:                  1.473450
      Cartesian components [Ang]:       [  0.870797,   0.848560,   0.832295]
    RMS electron-hole separation [Ang]:   2.093635
      Cartesian components [Ang]:       [  1.322739,   1.321166,   0.942438]
    Covariance(r_h, r_e) [Ang^2]:         0.041748
    Correlation coefficient:              0.018700
    Center-of-mass size [Ang]:            1.066566
      Cartesian components [Ang]:       [  0.677136,   0.675501,   0.471962]

  Decomposition into state-averaged NTOs
    H- 1 -> L+ 0: -0.6618 ( 87.6%)
    H- 0 -> L+ 2:  0.1462 (  4.3%)
                   omega =  92.2%
  ----------------------------------------------------------------------------


  Excited state 3 (singlet, A)                                     [converged]
  ----------------------------------------------------------------------------
  Term symbol:  4 (1) A                                     R^2 =  7.06988e-13

  Total energy:                                            -77.9822421090 a.u.
  Excitation energy:                                               9.179549 eV

  Osc. strength:                                                      0.025420
  Trans. dip. moment [a.u.]:           [  -0.015708,   -0.020151,    0.335230]
  <i|r^2|0> [a.u.]:                    [  -0.091357,   -0.002182,   -0.005963]
  Two-photon absorption cross-section (SoS) [a.u.]:                   0.017845
  Two-photon absorption matrix (SoS) [a.u.]:
                                       |   -0.006878   -0.003741    0.033247 |
                                       |   -0.003741   -0.001567    0.032755 |
                                       |    0.033247    0.032755    0.001332 |
  Two-photon absorption cross-section [a.u.]:                         0.017680
  Two-photon absorption matrix [a.u.]:
                                       |   -0.007909   -0.002821    0.031655 |
                                       |   -0.002821   -0.004425    0.033664 |
                                       |    0.031655    0.033664    0.003487 |

  Dip. moment [a.u.]:                  [   0.036321,    0.026438,    0.002469]
  Total dipole [Debye]:                                               0.114358
  <r^2> [a.u.]:                        [ 181.077298,   40.643333,   11.031239]
  Total <r^2> [a.u.]:                                               232.751870

  V1^2 = 0.9587, V2^2 = 0.0413

  Important amplitudes:
      occ i     occ j     vir a      vir b          v   
    -----------------------------------------------------
     8 (A) A             10 (A) A                -0.6889
     8 (A) A             24 (A) A                -0.0507
     8 (A) A             18 (A) A                 0.0311
     4 (A) A              9 (A) A                -0.0237
     8 (A) A   8 (A) B    9 (A) A   12 (A) B     -0.0219
     7 (A) A              9 (A) A                -0.0179
     8 (A) A   8 (A) B   10 (A) A   17 (A) B     -0.0173
     5 (A) A   8 (A) B   11 (A) A   10 (A) B     -0.0165
     8 (A) A             15 (A) A                -0.0165
     7 (A) A   8 (A) B   13 (A) A   10 (A) B      0.0141
     4 (A) A   8 (A) B   12 (A) A   10 (A) B     -0.0111
     6 (A) A   8 (A) A   10 (A) A   15 (A) A      0.0111
     7 (A) A   8 (A) B   22 (A) A   10 (A) B     -0.0108
     6 (A) A   8 (A) B   15 (A) A   10 (A) B     -0.0108
     4 (A) A   8 (A) A   10 (A) A   12 (A) A      0.0106
     7 (A) A   8 (A) A   10 (A) A   22 (A) A      0.0099
     7 (A) A   8 (A) A   10 (A) A   13 (A) A     -0.0098
     5 (A) A   8 (A) A   10 (A) A   11 (A) A      0.0094
     5 (A) A   8 (A) B   21 (A) A   10 (A) B     -0.0094
     6 (A) A   8 (A) A   10 (A) A   18 (A) A      0.0087
     6 (A) A   8 (A) B   10 (A) A   10 (A) B      0.0087
     7 (A) A   8 (A) A   12 (A) A   16 (A) A     -0.0082
     5 (A) A   8 (A) A   10 (A) A   21 (A) A      0.0080
     3 (A) A   4 (A) B   10 (A) A    9 (A) B      0.0079
     8 (A) A   8 (A) B    9 (A) A   23 (A) B     -0.0075
     4 (A) A   8 (A) B   19 (A) A   10 (A) B     -0.0075
     8 (A) A   8 (A) B   10 (A) A   28 (A) B      0.0073
     3 (A) A   8 (A) B   10 (A) A   10 (A) B     -0.0072
     3 (A) A   8 (A) A   10 (A) A   24 (A) A      0.0071
     5 (A) A   8 (A) B   10 (A) A   11 (A) B     -0.0071
     7 (A) A   8 (A) B   16 (A) A   12 (A) B      0.0071
     3 (A) A   8 (A) B   10 (A) A   18 (A) B      0.0069
     8 (A) A   8 (A) B    9 (A) A   19 (A) B     -0.0068
     6 (A) A   8 (A) B   18 (A) A   10 (A) B     -0.0066
     3 (A) A   6 (A) B   10 (A) A   28 (A) B      0.0062
     7 (A) A   8 (A) B   12 (A) A   11 (A) B     -0.0057
     6 (A) A             28 (A) A                -0.0057
     3 (A) A   5 (A) B   10 (A) A   25 (A) B      0.0056
     5 (A) A   8 (A) A   10 (A) A   16 (A) A     -0.0056
     3 (A) A   8 (A) A   10 (A) A   18 (A) A      0.0055
    -----------------------------------------------------

  Density matrix analysis:
  ------------------------
  NOs
    Occupation of frontier NOs:
       0.9821   0.9844
    Number of electrons: 16.000000
    Number of unpaired electrons: n_u =  2.28641, n_u,nl =  2.02466
    NO participation ratio (PR_NO):  2.694493
  
  
  Mulliken Population Analysis
  Atom      Charge (e)              h+              e-           Del q
  --------------------------------------------------------------------
   1 H       -0.158029        0.054165       -0.262500       -0.208336
   2 C        0.328962        0.537183       -0.108040        0.429143
   3 H       -0.169412        0.053747       -0.273283       -0.219536
   4 C        0.328738        0.538180       -0.108216        0.429965
   5 H       -0.161095        0.054182       -0.265511       -0.211329
   6 H       -0.169163        0.053690       -0.273597       -0.219908
  --------------------------------------------------------------------
  Sum:       -0.000000        1.291148       -1.291148        0.000000
  
  Multipole moment analysis of the density matrix
    Molecular charge:                      -0.000000
    Number of electrons:                   16.000000
      Center of electronic charge [Ang]: [ -1.561777,  -0.067102,   0.001897]
    Total nuclear charge:                  16.000000
      Center of nuclear charge [Ang]:    [ -1.560576,  -0.066227,   0.001978]
    Dipole moment [D]:                     0.114358
      Cartesian components [D]:          [  0.092319,   0.067198,   0.006275]
    RMS size of the density [Ang]:         1.276682
      Cartesian components [Ang]:        [  0.854416,   0.840731,   0.439389]
  
  Exciton analysis of the difference density matrix
    <r_h> [Ang]:                  [ -1.561060,  -0.065975,   0.001781]
    <r_e> [Ang]:                  [ -1.575874,  -0.076901,   0.001018]
    |<r_e - r_h>| [Ang]:            0.018423
    Hole size [Ang]:                1.410630
      Cartesian components [Ang]: [  0.834197,   0.820346,   0.788052]
    Electron size [Ang]:            2.077844
      Cartesian components [Ang]: [  1.374408,   1.378179,   0.727367]

  Transition density matrix analysis:
  -----------------------------------
  
  CT numbers (Mulliken)
    omega =     0.9259
    <Phe> =    -0.0108
  
  Exciton analysis of the transition density matrix
    Trans. dipole moment [D]:             0.427271
      Cartesian components [D]:         [ -0.019963,  -0.025610,   0.426035]
    <r_h> [Ang]:                        [ -1.559421,  -0.064886,   0.001757]
    <r_e> [Ang]:                        [ -1.580962,  -0.080441,   0.000721]
    |<r_e - r_h>| [Ang]:                  0.026591
    Hole size [Ang]:                      1.213167
      Cartesian components [Ang]:       [  0.636798,   0.623905,   0.822804]
    Electron size [Ang]:                  2.298017
      Cartesian components [Ang]:       [  1.518763,   1.525600,   0.804229]
    RMS electron-hole separation [Ang]:   2.588805
      Cartesian components [Ang]:       [  1.639499,   1.641329,   1.148909]
    Covariance(r_h, r_e) [Ang^2]:         0.025726
    Correlation coefficient:              0.009228
    Center-of-mass size [Ang]:            1.304234
      Cartesian components [Ang]:       [  0.827165,   0.827604,   0.576106]

  Decomposition into state-averaged NTOs
    H- 0 -> L+ 1:  0.6795 ( 92.3%)
                   omega =  92.6%
  ----------------------------------------------------------------------------


  Excited state 4 (singlet, A)                                     [converged]
  ----------------------------------------------------------------------------
  Term symbol:  5 (1) A                                     R^2 =  4.19429e-13

  Total energy:                                            -77.9580807183 a.u.
  Excitation energy:                                               9.837014 eV

  Osc. strength:                                                      0.000009
  Trans. dip. moment [a.u.]:           [  -0.000010,   -0.000697,    0.005936]
  <i|r^2|0> [a.u.]:                    [   0.018050,    0.018193,   -0.036503]
  Two-photon absorption cross-section (SoS) [a.u.]:                 150.206474
  Two-photon absorption matrix (SoS) [a.u.]:
                                       |    0.291730    0.326189   -3.032395 |
                                       |    0.326189    0.360507   -3.025513 |
                                       |   -3.032395   -3.025513   -0.652275 |
  Two-photon absorption cross-section [a.u.]:                        91.955814
  Two-photon absorption matrix [a.u.]:
                                       |    0.228410    0.255185   -2.362604 |
                                       |    0.255185    0.282107   -2.377233 |
                                       |   -2.362604   -2.377233   -0.510582 |

  Dip. moment [a.u.]:                  [  -0.042081,   -0.046757,   -0.005679]
  Total dipole [Debye]:                                               0.160540
  <r^2> [a.u.]:                        [ 181.060403,   40.539575,   10.758102]
  Total <r^2> [a.u.]:                                               232.358079

  V1^2 = 0.9635, V2^2 = 0.0365

  Important amplitudes:
      occ i     occ j     vir a      vir b          v   
    -----------------------------------------------------
     8 (A) A             11 (A) A                -0.6700
     7 (A) A              9 (A) A                 0.1483
     8 (A) A             21 (A) A                -0.0782
     8 (A) A             16 (A) A                 0.0648
     8 (A) A   8 (A) B    9 (A) A   13 (A) B      0.0167
     5 (A) A   8 (A) B   11 (A) A   11 (A) B     -0.0155
     8 (A) A             12 (A) A                -0.0149
     8 (A) A   8 (A) B   11 (A) A   17 (A) B     -0.0140
     7 (A) A             20 (A) A                -0.0135
     7 (A) A   8 (A) B   13 (A) A   11 (A) B      0.0127
     5 (A) A   8 (A) A   11 (A) A   21 (A) A      0.0110
     4 (A) A   8 (A) B   12 (A) A   11 (A) B     -0.0110
     8 (A) A   8 (A) B    9 (A) A   22 (A) B     -0.0108
     6 (A) A              9 (A) A                -0.0097
     7 (A) A   8 (A) A   11 (A) A   22 (A) A      0.0096
     6 (A) A   8 (A) B   15 (A) A   11 (A) B     -0.0090
     6 (A) A   8 (A) B   10 (A) A   11 (A) B      0.0090
     7 (A) A   8 (A) B   22 (A) A   11 (A) B     -0.0089
     3 (A) A   4 (A) B   11 (A) A    9 (A) B      0.0083
     3 (A) A   8 (A) B   11 (A) A   18 (A) B      0.0081
     6 (A) A   8 (A) A   11 (A) A   15 (A) A      0.0081
     7 (A) A   8 (A) A   13 (A) A   16 (A) A      0.0078
     7 (A) A   8 (A) A   11 (A) A   13 (A) A     -0.0077
     5 (A) A   8 (A) B   21 (A) A   11 (A) B     -0.0071
     4 (A) A   8 (A) B   19 (A) A   11 (A) B     -0.0070
     5 (A) A   8 (A) B    9 (A) A    9 (A) B     -0.0067
     4 (A) A   8 (A) A   11 (A) A   12 (A) A      0.0062
     6 (A) A   8 (A) A   11 (A) A   18 (A) A      0.0062
     3 (A) A   6 (A) B   11 (A) A   28 (A) B      0.0060
     6 (A) A   8 (A) B   18 (A) A   11 (A) B     -0.0059
     7 (A) A   8 (A) B   16 (A) A   13 (A) B     -0.0057
     3 (A) A   8 (A) A   11 (A) A   18 (A) A      0.0056
     5 (A) A   8 (A) B   10 (A) A   10 (A) B     -0.0056
     3 (A) A   8 (A) B   11 (A) A   30 (A) B      0.0055
     3 (A) A   5 (A) B   11 (A) A   25 (A) B      0.0055
     6 (A) A   8 (A) B   11 (A) A   10 (A) B      0.0054
     7 (A) A   8 (A) B   12 (A) A   10 (A) B     -0.0054
     8 (A) A             10 (A) A                -0.0054
     8 (A) A   8 (A) B   20 (A) A   22 (A) B      0.0053
     3 (A) A   8 (A) A   11 (A) A   24 (A) A      0.0053
    -----------------------------------------------------

  Density matrix analysis:
  ------------------------
  NOs
    Occupation of frontier NOs:
       0.9418   1.0267
    Number of electrons: 16.000000
    Number of unpaired electrons: n_u =  2.31888, n_u,nl =  2.04832
    NO participation ratio (PR_NO):  2.907679
  
  
  Mulliken Population Analysis
  Atom      Charge (e)              h+              e-           Del q
  --------------------------------------------------------------------
   1 H       -0.153468        0.045496       -0.249270       -0.203775
   2 C        0.275382        0.497529       -0.121965        0.375563
   3 H       -0.121308        0.046935       -0.218367       -0.171432
   4 C        0.274152        0.497728       -0.122350        0.375379
   5 H       -0.138093        0.047057       -0.235384       -0.188326
   6 H       -0.136664        0.045352       -0.232761       -0.187409
  --------------------------------------------------------------------
  Sum:       -0.000000        1.180097       -1.180097        0.000000
  
  Multipole moment analysis of the density matrix
    Molecular charge:                      -0.000000
    Number of electrons:                   16.000000
      Center of electronic charge [Ang]: [ -1.559184,  -0.064681,   0.002166]
    Total nuclear charge:                  16.000000
      Center of nuclear charge [Ang]:    [ -1.560576,  -0.066227,   0.001978]
    Dipole moment [D]:                     0.160540
      Cartesian components [D]:          [ -0.106960,  -0.118846,  -0.014434]
    RMS size of the density [Ang]:         1.277277
      Cartesian components [Ang]:        [  0.858967,   0.839840,   0.433914]
  
  Exciton analysis of the difference density matrix
    <r_h> [Ang]:                  [ -1.559224,  -0.064731,   0.001914]
    <r_e> [Ang]:                  [ -1.540275,  -0.043863,   0.004732]
    |<r_e - r_h>| [Ang]:            0.028328
    Hole size [Ang]:                1.394364
      Cartesian components [Ang]: [  0.817157,   0.807047,   0.790683]
    Electron size [Ang]:            2.123894
      Cartesian components [Ang]: [  1.441770,   1.404456,   0.678032]

  Transition density matrix analysis:
  -----------------------------------
  
  CT numbers (Mulliken)
    omega =     0.9298
    <Phe> =    -0.0135
  
  Exciton analysis of the transition density matrix
    Trans. dipole moment [D]:             0.007595
      Cartesian components [D]:         [ -0.000012,  -0.000886,   0.007543]
    <r_h> [Ang]:                        [ -1.560359,  -0.066064,   0.001665]
    <r_e> [Ang]:                        [ -1.536496,  -0.039555,   0.005264]
    |<r_e - r_h>| [Ang]:                  0.035848
    Hole size [Ang]:                      1.227509
      Cartesian components [Ang]:       [  0.656425,   0.650504,   0.807917]
    Electron size [Ang]:                  2.262381
      Cartesian components [Ang]:       [  1.536411,   1.496271,   0.720402]
    RMS electron-hole separation [Ang]:   2.563479
      Cartesian components [Ang]:       [  1.662384,   1.623951,   1.081982]
    Covariance(r_h, r_e) [Ang^2]:         0.027504
    Correlation coefficient:              0.009904
    Center-of-mass size [Ang]:            1.292300
      Cartesian components [Ang]:       [  0.839636,   0.819673,   0.541467]

  Decomposition into state-averaged NTOs
    H- 0 -> L+ 2:  0.6654 ( 88.6%)
    H- 1 -> L+ 0:  0.1463 (  4.3%)
                   omega =  93.0%
  ----------------------------------------------------------------------------


  Excited state 5 (singlet, A)                                     [converged]
  ----------------------------------------------------------------------------
  Term symbol:  6 (1) A                                     R^2 =  3.65456e-13

  Total energy:                                            -77.9440434470 a.u.
  Excitation energy:                                              10.218988 eV

  Osc. strength:                                                      0.000000
  Trans. dip. moment [a.u.]:           [   0.000008,   -0.000057,   -0.000571]
  <i|r^2|0> [a.u.]:                    [  -0.087467,    0.102509,   -0.015121]
  Two-photon absorption cross-section (SoS) [a.u.]:                 190.565953
  Two-photon absorption matrix (SoS) [a.u.]:
                                       |   -0.330406   -0.042156    3.460048 |
                                       |   -0.042156    0.405889   -3.421547 |
                                       |    3.460048   -3.421547   -0.078604 |
  Two-photon absorption cross-section [a.u.]:                        88.866884
  Two-photon absorption matrix [a.u.]:
                                       |   -0.225046   -0.027655    2.346393 |
                                       |   -0.027655    0.278097   -2.352960 |
                                       |    2.346393   -2.352960   -0.056960 |

  Dip. moment [a.u.]:                  [  -0.007452,   -0.000178,   -0.000105]
  Total dipole [Debye]:                                               0.018948
  <r^2> [a.u.]:                        [ 178.496482,   38.583063,   11.872485]
[...]
    16   -1.509984948597e-03
    17   -1.752500886160e-03
    18   -3.249477316003e-04
    19   -3.178888948404e-03
    20    1.045249927990e-02
    21    9.407477463024e-01
    22   -5.136963831453e-05
    23    1.400523707655e-02
    24    8.263831136045e-04
    25    7.040872656243e-02
    26   -5.229670514226e-02
    27   -1.404794792071e+00
    28    9.887429353659e-02
    29   -9.190167105400e-02
    30   -9.209600947109e-04
    31    3.878303708254e-01
    32   -3.584656374279e-01
    33   -3.497859458329e-03
    34    1.569504984079e-02
    35   -1.479292616447e-03
    36   -1.796910464788e-03
    37   -5.079129342969e-05
    38   -3.225754370024e-03
    39    9.428646594519e-03
    40    9.271498888802e-01
    41    2.511292989733e-04
    42   -1.388867503414e-02
    43   -8.248528769175e-04
    44    1.059393954098e-02
    45    9.488892917154e-01
    46    1.426179120724e-02
    47    4.199128714592e-04
    48    6.941409417645e-04
Sym=X
Ene= 0.233167
Spin=Alpha
Occup=0
     1    2.627780365420e-02
     2    1.245418394340e+00
     3   -1.450864185913e-02
     4   -3.881368334495e-03
     5   -9.197915697205e-04
     6    3.982430645242e-03
     7   -4.500439791296e-03
     8   -6.687020301952e-02
     9   -1.558252935743e-01
    10   -1.572195660954e-01
    11   -1.674730806491e-02
    12   -5.609264274562e-01
    13   -5.465972062441e-01
    14   -5.912565143434e-02
    15    6.824329390628e-04
    16   -9.605843833204e-05
    17   -8.215124993996e-05
    18   -2.173999951190e-04
    19   -4.444313501816e-04
    20   -2.537483255941e-02
    21   -1.143749552233e+00
    22   -2.352600278258e-03
    23   -1.337812634839e-02
    24   -9.071179865615e-04
    25   -2.825347780565e-03
    26    3.618706808422e-03
    27    3.519652963320e-02
    28   -1.536239020467e-01
    29   -1.598780722429e-01
    30   -1.683285004438e-02
    31   -5.499227047648e-01
    32   -5.581073618270e-01
    33   -5.942309811410e-02
    34   -4.359492733951e-04
    35    5.511464175161e-05
    36    3.278638098844e-05
    37    2.411134211528e-04
    38    3.448561832420e-04
    39    2.511081406456e-02
    40    1.163338531072e+00
    41   -2.426606349236e-03
    42   -1.367609668621e-02
    43   -9.326185065671e-04
    44   -2.641749361232e-02
    45   -1.225078978958e+00
    46   -1.416845100257e-02
    47   -3.814018326042e-03
    48   -8.987866787823e-04
Sym=X
Ene= 0.239272
Spin=Alpha
Occup=0
     1   -1.556451741044e-02
     2   -1.052971839470e+00
     3    1.664379768399e-02
     4    9.148893550032e-03
     5    1.350220704103e-03
     6   -8.643721939656e-02
     7    7.952038704597e-02
     8    1.593996320876e+00
     9    5.238920833548e-02
    10   -6.170500121174e-02
    11   -9.546797548812e-04
    12    2.148012185219e-01
    13   -2.404027299470e-01
    14   -3.115025499749e-03
    15   -2.264684173376e-02
    16    2.651598678116e-03
    17    2.945023804525e-03
    18   -1.855819908081e-04
    19    1.274383688129e-02
    20   -1.661631812135e-02
    21   -1.127941052397e+00
    22   -8.781624725684e-03
    23   -1.772723532674e-02
    24   -1.457294621882e-03
    25    8.631116965444e-02
    26   -7.945414648777e-02
    27   -1.589381277778e+00
    28    5.188132217247e-02
    29   -6.211578142891e-02
    30   -1.509661170564e-03
    31    2.053469707384e-01
    32   -2.485769142530e-01
    33   -6.178629823145e-03
    34    2.254233340252e-02
    35   -2.562016515820e-03
    36   -3.021139677950e-03
    37    8.596388879637e-04
    38   -1.268852244219e-02
    39    1.711762228922e-02
    40    1.139682644015e+00
    41   -8.617706367258e-03
    42   -1.801001760727e-02
    43   -1.501212957038e-03
    44    1.540135981026e-02
    45    1.035532211755e+00
    46    1.621135672248e-02
    47    9.249273402324e-03
    48    1.302546027957e-03
Sym=X
Ene= 0.303320
Spin=Alpha
Occup=0
     1   -2.102567384118e-02
     2    1.695772995757e+00
     3   -2.292270849773e-02
     4    5.017484400806e-04
     5   -1.071954465757e-03
     6   -5.365089990730e-04
     7    1.671173921526e-04
     8    9.286453434507e-03
     9   -1.346310476336e-01
    10   -1.398425057975e-01
    11   -1.470611813616e-02
    12   -1.150764941303e+00
    13   -1.186947796705e+00
    14   -1.252846784199e-01
    15   -2.920013929666e-04
    16   -1.664297572367e-03
    17    1.877234934456e-03
    18   -3.289048321561e-02
    19   -1.483666872379e-03
    20    1.934052663305e-02
    21   -1.694616460061e+00
    22    1.578411800393e-03
    23   -2.309725613317e-02
    24   -1.284695710552e-03
    25    3.933286443326e-04
    26    4.405196284542e-04
    27   -2.331298831714e-02
    28    1.347787114901e-01
    29    1.394278168674e-01
    30    1.471845755862e-02
    31    1.135973890946e+00
    32    1.198920677165e+00
    33    1.253954987368e-01
    34    2.847533894323e-04
    35   -1.642799410683e-03
    36    1.889095128546e-03
    37   -3.280897966556e-02
    38   -1.806956909871e-03
    39    1.969529158713e-02
    40   -1.684384301695e+00
    41   -1.688212529262e-03
    42    2.276352215979e-02
    43    1.287541755800e-03
    44   -2.043590692377e-02
    45    1.699362483145e+00
    46    2.321660476576e-02
    47   -3.246539972679e-04
    48    1.073264967820e-03
Sym=X
Ene= 0.462604
Spin=Alpha
Occup=0
     1   -1.090947975339e-01
     2   -7.287793167613e-01
     3   -1.548090600959e-02
     4   -1.052217476853e-02
     5   -1.355260355325e-03
     6    6.114331061088e-02
     7    1.628820402205e-02
     8   -3.598228361937e+00
     9    1.033379886167e-01
    10   -1.005158033011e-01
    11   -9.673251368457e-04
    12    2.431106094435e+00
    13   -2.308490261151e+00
    14   -2.087554507756e-02
    15    5.289428997275e-02
    16   -3.278375136441e-03
    17   -4.553773612842e-03
    18   -7.458903637347e-04
    19    1.868255110924e-02
    20   -1.191727751363e-01
    21   -7.035202564869e-01
    22    8.324559938326e-03
    23    1.621530379943e-02
    24    1.363779831388e-03
    25   -6.116998546466e-02
    26   -1.627626533488e-02
    27    3.600212136548e+00
    28    1.044314126770e-01
    29   -9.946671578523e-02
    30   -1.156668600928e-03
    31    2.432276595171e+00
    32   -2.306653786819e+00
    33   -2.208920582045e-02
    34   -5.299813276217e-02
    35    3.303504973374e-03
    36    4.575706154960e-03
    37    2.719277771335e-04
    38   -1.869897399387e-02
    39    1.176793033114e-01
    40    7.088765096874e-01
    41    8.731828053401e-03
    42    1.637581273574e-02
    43    1.384540978285e-03
    44    1.117126908413e-01
    45    7.206192652079e-01
    46   -1.531962717695e-02
    47   -1.016444330122e-02
    48   -1.341849649866e-03
Sym=X
Ene= 0.577979
Spin=Alpha
Occup=0
     1    2.382930282510e-01
     2    6.101911873023e-02
     3   -1.947756674038e-02
     4    2.616361615001e-02
     5    6.179778428475e-04
     6   -5.240159732739e-03
     7   -1.594419137327e-01
     8   -4.393612731967e-01
     9    2.970419582705e-01
    10   -2.896941891214e-01
    11   -3.109452542790e-03
    12   -7.386395345343e-01
    13    7.226201583162e-01
    14    7.781176857328e-03
    15   -4.869890144075e-03
    16    3.715194774300e-03
    17    3.708503858110e-03
    18   -5.684160902587e-03
    19    5.991302745775e-02
    20    2.574142218667e-01
    21    3.552531873906e-02
    22   -2.634400842885e-02
    23    1.663323053346e-02
    24   -2.742367410930e-04
    25   -5.206976659467e-03
    26   -1.595339157541e-01
    27   -4.391576766259e-01
    28   -2.994075124353e-01
    29    2.874658851841e-01
    30    2.823627564152e-03
    31    7.436289769609e-01
    32   -7.149219047679e-01
    33   -7.403448927677e-03
    34   -4.982849556945e-03
    35    3.830526162232e-03
    36    3.595766236506e-03
    37   -3.484062125301e-03
    38    5.996956240387e-02
    39    2.459129975371e-01
    40    4.449291518679e-02
    41    2.744709389227e-02
    42   -1.770485279115e-02
    43    2.352454719464e-04
    44    2.500867602360e-01
    45    4.939257730471e-02
    46    1.846357395516e-02
    47   -2.524486903095e-02
    48   -6.412529054845e-04
Sym=X
Ene= 0.614140
Spin=Alpha
Occup=0
     1   -5.286395987386e-01
     2    1.948034495953e-01
     3   -6.107935953670e-02
     4    3.649957291403e-02
     5   -7.670535504854e-04
     6   -9.186526949216e-04
     7   -7.744464924766e-04
     8   -1.766178648775e-02
     9   -4.422470134099e-02
    10   -3.747559788565e-02
    11   -4.337624658149e-03
    12    3.284126977567e-01
    13    2.653633102298e-01
    14    3.135543527868e-02
    15    2.721153782583e-03
    16   -7.694874537175e-03
    17    8.144770501426e-03
    18   -1.478932426724e-01
    19   -5.817238637038e-03
    20    5.039101004187e-01
    21   -2.102047739947e-01
    22    4.184263274197e-02
    23   -5.813904207139e-02
    24   -1.436773711364e-03
    25    4.511996623551e-04
    26   -1.483782186025e-03
    27    4.547996820828e-02
    28   -3.908359276561e-02
    29   -4.149301242448e-02
    30   -4.323548353314e-03
    31    3.041472093876e-01
    32    2.832784432974e-01
    33    3.137633596390e-02
    34   -1.773064699437e-03
    35    7.370968579403e-03
    36   -8.521756945835e-03
    37    1.481076710261e-01
    38    5.318285346939e-03
    39   -5.145656592142e-01
    40    2.084315152319e-01
    41    4.056346794290e-02
    42   -5.799109073210e-02
    43   -1.563089788712e-03
    44    5.187010234400e-01
    45   -2.027399416767e-01
    46   -6.137566213846e-02
    47    3.791171329921e-02
    48   -6.185968835862e-04
Sym=X
Ene= 0.689147
Spin=Alpha
Occup=0
     1    3.863740729350e-04
     2   -1.351702089133e-04
     3    1.133456279260e-03
     4    1.315361764821e-03
     5   -2.148235914472e-02
     6    2.582926825735e-05
     7    4.519030152679e-04
     8   -1.649742284275e-04
     9    3.173848212107e-02
    10    3.993994069518e-02
    11   -6.701300115814e-01
    12   -2.927439560808e-02
    13   -3.633199777929e-02
    14    6.134886136258e-01
    15   -1.412222767889e-03
    16    8.280112233964e-02
    17   -7.839337913855e-02
    18   -8.615409694639e-03
    19   -1.112904066559e-03
    20    4.027526012451e-04
    21   -1.926059733165e-04
    22    9.537733838968e-04
    23    1.126448761021e-03
    24   -2.093867238271e-02
    25    1.894739470995e-05
    26    5.259140492145e-04
    27   -4.185162702577e-04
    28    3.197220081926e-02
    29    3.983550686696e-02
    30   -6.702306503616e-01
    31   -2.950644784452e-02
    32   -3.625094487872e-02
    33    6.134319643477e-01
    34    1.105170105748e-03
    35   -8.269644064004e-02
    36    7.841670178542e-02
    37    8.589473423213e-03
    38    1.223154426800e-03
    39    2.714551441410e-04
    40   -4.274564836701e-04
    41    1.024713899791e-03
    42    1.389791604887e-03
    43   -2.106277787154e-02
    44    2.657447132009e-04
    45   -3.850552177763e-04
    46    8.695497519114e-04
    47    1.232647766831e-03
    48   -2.105564635175e-02
Sym=X
Ene= 0.709626
Spin=Alpha
Occup=0
     1   -4.710201264798e-01
     2    1.435621900125e-01
     3   -8.032407217514e-02
     4   -4.400499992717e-02
     5   -6.466735567955e-03
     6   -4.705601721498e-02
     7   -3.216584396738e-01
     8    4.918162425811e-01
     9    2.008072589772e-01
    10   -1.915862372779e-01
    11   -2.406367965665e-03
    12   -7.319002253194e-02
    13    5.638006889796e-02
    14    3.835784156222e-04
    15    1.936231804977e-01
    16   -2.046270161358e-02
    17   -2.389114597686e-02
    18    3.170369621806e-03
    19   -7.643288607436e-02
    20   -4.790292843513e-01
    21    1.402567832353e-01
    22    4.134297507396e-02
    23    8.112752223987e-02
    24    6.756693655950e-03
    25   -4.753615859672e-02
    26   -3.199839685062e-01
    27    4.969612034520e-01
    28   -2.026767437805e-01
    29    1.888882183944e-01
    30    1.039414479514e-03
    31    7.886218112612e-02
    32   -6.136585852997e-02
    33    9.424137005041e-04
    34    1.946056911263e-01
    35   -2.063019858094e-02
    36   -2.396333268241e-02
    37    1.593414110643e-03
    38   -7.676224815952e-02
    39   -4.760639158091e-01
    40    1.392663035932e-01
    41   -4.118796681462e-02
    42   -8.101096194832e-02
    43   -6.797168115306e-03
    44   -4.805627887961e-01
    45    1.554821988489e-01
    46    8.144402437304e-02
    47    4.436023775046e-02
    48    6.499864702314e-03
Sym=X
Ene= 0.784709
Spin=Alpha
Occup=0
     1   -5.280728753985e-01
     2    4.562386523361e-01
     3   -1.104463854467e-01
     4   -2.576958188096e-02
     5   -6.804262373949e-03
     6   -9.130133748683e-02
     7    2.119469440658e-01
     8    6.359987490362e-01
     9   -1.120579398973e-01
    10    1.058997128288e-01
    11   -7.005574428928e-05
    12   -2.970326469142e-01
    13    2.759061659070e-01
    14    4.265083570145e-03
    15    2.081643435186e-01
    16   -1.775605934087e-02
    17   -2.186890388750e-02
    18    1.166406302014e-03
    19   -7.706707781277e-03
    20   -5.422162864770e-01
    21    4.625825206388e-01
    22    2.096363519115e-02
    23    1.127274923584e-01
    24    7.667854022505e-03
    25    9.094324861801e-02
    26   -2.158409728407e-01
    27   -6.285158216811e-01
    28   -1.141849724339e-01
    29    1.052352622499e-01
    30    1.796486296484e-03
    31   -2.961548869359e-01
    32    2.783723283225e-01
    33    4.867816959747e-04
    34   -2.067392826500e-01
    35    1.726098093877e-02
    36    2.215217087352e-02
    37   -3.284223894415e-03
    38    7.219613818549e-03
    39    5.399035921218e-01
    40   -4.648928105417e-01
    41    1.982071361196e-02
    42    1.133173218092e-01
    43    7.719763158268e-03
    44    5.256078185855e-01
    45   -4.563190527819e-01
    46   -1.087805130131e-01
    47   -2.638039326728e-02
    48   -6.724127986434e-03
Sym=X
Ene= 0.807951
Spin=Alpha
Occup=0
     1   -6.277088184537e-04
     2    8.000327484947e-04
     3   -1.821787916400e-03
     4   -1.985690623991e-03
     5    3.373945729043e-02
     6   -1.235082105744e-04
     7    3.126814120176e-04
     8    1.652570201519e-04
     9   -3.664288230858e-02
    10   -4.496732313254e-02
    11    7.631031880266e-01
    12    5.338849563712e-02
    13    6.709372166032e-02
    14   -1.127063077549e+00
    15   -6.327227747010e-04
    16    6.518702592378e-02
    17   -6.183395978438e-02
    18   -6.799964461449e-03
    19   -8.462599276051e-04
    20   -6.423034758622e-04
    21    6.706569825106e-04
    22   -1.682320673335e-03
    23   -1.848986822810e-03
    24    3.453440642141e-02
    25    1.172117026888e-04
    26   -1.881156063163e-04
    27   -2.257690972318e-04
    28    3.594054409069e-02
    29    4.581688279739e-02
    30   -7.630859588137e-01
    31   -5.384621187069e-02
    32   -6.696597447468e-02
    33    1.126948014011e+00
    34   -1.368067611231e-03
    35    6.521041856843e-02
    36   -6.180275118801e-02
    37   -6.763176996819e-03
    38   -1.004707790773e-03
    39    6.426789589256e-04
    40   -7.097189384738e-04
    41    1.575168502023e-03
    42    2.275524823524e-03
    43   -3.423689824460e-02
    44    6.201015106902e-04
    45   -8.359264287277e-04
    46    1.357790165050e-03
    47    2.036981187855e-03
    48   -3.374375462194e-02
Sym=X
Ene= 0.862315
Spin=Alpha
Occup=0
     1    1.396875906268e-02
     2   -1.093931990899e+00
     3    1.488237054629e-01
     4    5.430693566370e-02
     5    1.032738134410e-02
     6    7.201373777932e-04
     7    1.713135852016e-03
     8    2.135026644214e-03
     9   -4.048629234054e-01
    10   -4.283973395018e-01
    11   -4.466127897226e-02
    12    9.463746331397e-01
    13    9.958000419343e-01
    14    1.040670603551e-01
    15   -2.399505018680e-03
    16    1.188055590653e-02
    17   -1.350747088450e-02
    18    2.367790236301e-01
    19    7.225551968354e-03
    20   -1.139409463203e-02
    21    1.103358595255e+00
    22    4.984726494322e-02
    23    1.511793215395e-01
    24    1.133325865227e-02
    25   -3.167628581882e-04
    26    5.166395466233e-03
    27   -5.915830038761e-03
    28   -4.055376654814e-01
    29   -4.316135682707e-01
    30   -4.504214719073e-02
    31    9.422208515677e-01
    32    1.005714705815e+00
    33    1.048204663874e-01
    34    7.023004590850e-04
    35   -1.182592219831e-02
    36    1.363367466437e-02
    37   -2.368813801387e-01
    38   -9.363733026851e-03
    39    1.363010083888e-02
    40   -1.105946800413e+00
    41    4.883422480633e-02
    42    1.517065788328e-01
    43    1.141424110729e-02
    44   -1.456059828406e-02
    45    1.096473965280e+00
    46    1.493595657649e-01
    47    5.547602920139e-02
    48    1.034824385679e-02
Sym=X
Ene= 0.936121
Spin=Alpha
Occup=0
     1   -1.125940299901e-01
     2    1.268721551675e+00
     3   -1.799420048102e-01
     4    8.682724097572e-03
     5   -8.108767135075e-03
     6   -4.243385797053e-04
     7   -1.079394545626e-02
     8    1.292388076959e-03
     9    4.679766425816e-01
    10    5.046461487174e-01
    11    5.224551558065e-02
    12   -1.450364457292e+00
    13   -1.551013772602e+00
    14   -1.611549820133e-01
    15   -5.011109148067e-04
    16   -5.715350979838e-03
    17    7.351645961709e-03
    18   -1.226160539105e-01
    19    3.363894096634e-03
    20    1.197665903902e-01
    21   -1.302142153035e+00
    22    1.046191712151e-02
    23   -1.852664085626e-01
    24   -1.043585348370e-02
    25    2.690868359916e-04
    26   -3.275043513639e-03
    27    1.342013944930e-02
    28   -4.786086418093e-01
    29   -4.922006461837e-01
    30   -5.206057184505e-02
    31    1.482337231568e+00
    32    1.513553170410e+00
    33    1.605948503281e-01
    34   -9.698222830773e-04
    35   -5.982013419628e-03
    36    7.081167345733e-03
    37   -1.207045338367e-01
    38   -7.493621511186e-03
    39    1.161076489721e-01
    40   -1.269605124960e+00
    41   -1.415886008787e-02
    42    1.814426781594e-01
    43    1.019054932355e-02
    44   -1.157719712612e-01
    45    1.290772184453e+00
    46    1.823158439266e-01
    47   -4.874129848376e-03
    48    8.327251865676e-03
Sym=X
Ene= 0.972852
Spin=Alpha
Occup=0
     1   -6.529672654037e-02
     2    9.464501551075e-01
     3   -9.414155019247e-02
     4   -9.743444437566e-02
     5   -1.032775951476e-02
     6    2.497401615366e-02
     7    2.435608346048e-01
     8    5.320650720170e-01
     9    4.853923439423e-01
    10   -4.467122110780e-01
    11   -3.137315594204e-03
    12   -1.520152015757e+00
    13    1.381081590634e+00
    14    8.862645290981e-03
    15   -5.187067951933e-02
    16   -1.309868763865e-02
    17   -9.553126279483e-03
    18    9.947402864991e-03
    19   -2.990848523878e-01
    20   -6.375551458671e-02
    21    8.826220935974e-01
    22    9.534781242739e-02
    23    8.968584931422e-02
    24    9.814519235635e-03
    25   -2.508176838171e-02
    26   -2.519311116516e-01
    27   -5.183382847123e-01
    28    4.737044597727e-01
    29   -4.613357277036e-01
    30   -5.321101478641e-03
    31   -1.465729578347e+00
    32    1.442936276985e+00
    33    1.722245623994e-02
    34    5.224794887407e-02
    35    1.284409756252e-02
    36    9.858266620886e-03
    37   -1.444358728091e-02
    38    2.998436714703e-01
    39    6.133106543011e-02
    40   -9.333844646290e-01
    41    9.476907290931e-02
    42    9.638269716970e-02
    43    1.033738513325e-02
    44    6.841882439219e-02
    45   -9.051403933044e-01
    46   -8.907697390614e-02
    47   -9.850590252506e-02
    48   -9.999794330413e-03
[5D]

======= END OF MOLDEN-FORMATTED INPUT FILE =======


        *************************************************************
        *                                                           *
        *  Thank you very much for using Q-Chem.  Have a nice day.  *
        *                                                           *
        *************************************************************


