                  Welcome to Q-Chem
     A Quantum Leap Into The Future Of Chemistry


 Q-Chem 5.4 (devel), Q-Chem, Inc., Pleasanton, CA (2021)

 E. Epifanovsky,  A. T. B. Gilbert,  Xintian Feng,  Joonho Lee,  Yuezhi Mao,  
 N. Mardirossian,  P. Pokhilko,  A. White,  M. Wormit,  M. P. Coons,  
 A. L. Dempwolff,  Zhengting Gan,  D. Hait,  P. R. Horn,  L. D. Jacobson,  
 I. Kaliman,  J. Kussmann,  A. W. Lange,  Ka Un Lao,  D. S. Levine,  Jie Liu,  
 S. C. McKenzie,  A. F. Morrison,  K. Nanda,  F. Plasser,  D. R. Rehn,  
 M. L. Vidal,  Zhi-Qiang You,  Ying Zhu,  B. Alam,  B. Albrecht,  
 A. Aldossary,  E. Alguire,  J. H. Andersen,  D. Barton,  K. Begam,  A. Behn,  
 Y. A. Bernard,  E. J. Berquist,  H. Burton,  A. Carreras,  K. Carter-Fenk,  
 R. Chakraborty,  A. D. Chien,  K. D. Closser,  V. Cofer-Shabica,  
 S. Dasgupta,  Jia Deng,  M. de Wergifosse,  M. Diedenhofen,  Hainam Do,  
 S. Ehlert,  Po-Tung Fang,  S. Fatehi,  Qingguo Feng,  T. Friedhoff,  
 J. Gayvert,  Qinghui Ge,  G. Gidofalvi,  M. Goldey,  J. Gomes,  
 C. Gonzalez-Espinoza,  S. Gulania,  A. Gunina,  M. W. D. Hanson-Heine,  
 P. H. P. Harbach,  A. W. Hauser,  M. F. Herbst,  M. Hernandez Vera,  
 M. Hodecker,  Z. C. Holden,  S. Houck,  Xunkun Huang,  Kerwin Hui,  
 B. C. Huynh,  M. Ivanov,  Hyunjun Ji,  Hanjie Jiang,  B. Kaduk,  S. Kaehler,  
 K. Khistyaev,  Jaehoon Kim,  P. Klunzinger,  Z. Koczor-Benda,  
 Joong Hoon Koh,  D. Kosenkov,  L. Koulias,  T. Kowalczyk,  C. M. Krauter,  
 K. Kue,  A. Kunitsa,  T. Kus,  A. Landau,  K. V. Lawler,  D. Lefrancois,  
 S. Lehtola,  Rain Li,  Yi-Pei Li,  Jiashu Liang,  M. Liebenthal,  
 Hung-Hsuan Lin,  You-Sheng Lin,  Fenglai Liu,  Kuan-Yu Liu,  
 M. Loipersberger,  A. Luenser,  A. Manjanath,  P. Manohar,  E. Mansoor,  
 S. F. Manzer,  Shan-Ping Mao,  A. V. Marenich,  T. Markovich,  S. Mason,  
 S. A. Maurer,  P. F. McLaughlin,  M. F. S. J. Menger,  J.-M. Mewes,  
 S. A. Mewes,  P. Morgante,  J. W. Mullinax,  K. J. Oosterbaan,  G. Paran,  
 Alexander C. Paul,  Suranjan K. Paul,  F. Pavosevic,  Zheng Pei,  S. Prager,  
 E. I. Proynov,  E. Ramos,  B. Rana,  A. E. Rask,  A. Rettig,  R. M. Richard,  
 F. Rob,  E. Rossomme,  T. Scheele,  M. Scheurer,  M. Schneider,  
 N. Sergueev,  S. M. Sharada,  W. Skomorowski,  D. W. Small,  C. J. Stein,  
 Yu-Chuan Su,  E. J. Sundstrom,  Zhen Tao,  J. Thirman,  T. Tsuchimochi,  
 N. M. Tubman,  S. P. Veccham,  O. Vydrov,  J. Wenzel,  J. Witte,  A. Yamada,  
 Kun Yao,  S. Yeganeh,  S. R. Yost,  A. Zech,  Igor Ying Zhang,  Xing Zhang,  
 Yu Zhang,  D. Zuev,  A. Aspuru-Guzik,  A. T. Bell,  N. A. Besley,  
 K. B. Bravaya,  B. R. Brooks,  D. Casanova,  Jeng-Da Chai,  S. Coriani,  
 C. J. Cramer,  A. E. DePrince, III,  R. A. DiStasio Jr.,  A. Dreuw,  
 B. D. Dunietz,  T. R. Furlani,  W. A. Goddard III,  S. Grimme,  
 S. Hammes-Schiffer,  T. Head-Gordon,  W. J. Hehre,  Chao-Ping Hsu,  
 T.-C. Jagau,  Yousung Jung,  A. Klamt,  Jing Kong,  D. S. Lambrecht,  
 WanZhen Liang,  N. J. Mayhall,  C. W. McCurdy,  J. B. Neaton,  
 C. Ochsenfeld,  J. A. Parkhill,  R. Peverati,  V. A. Rassolov,  Yihan Shao,  
 L. V. Slipchenko,  T. Stauch,  R. P. Steele,  J. E. Subotnik,  
 A. J. W. Thom,  A. Tkatchenko,  D. G. Truhlar,  T. Van Voorhis,  
 T. A. Wesolowski,  K. B. Whaley,  H. L. Woodcock III,  P. M. Zimmerman,  
 S. Faraji,  P. M. W. Gill,  M. Head-Gordon,  J. M. Herbert,  A. I. Krylov

 Additional authors for Version 5.4.1: 
 S. Kotaru,  Shaozhi Li,  Xiangyuan Li,  F. Matz,  A. Molle,  Haisheng Ren,  
 Yingli Su,  Hung-Yi Tsai,  C. Utku,  Fang Wang

 Contributors to earlier versions of Q-Chem not listed above: 
 R. D. Adamson,  B. Austin,  R. Baer,  J. Baker,  G. J. O. Beran,  
 K. Brandhorst,  S. T. Brown,  E. F. C. Byrd,  A. K. Chakraborty,  
 G. K. L. Chan,  Chun-Min Chang,  Yunqing Chen,  C.-L. Cheng,  
 Siu Hung Chien,  D. M. Chipman,  D. L. Crittenden,  H. Dachsel,  
 R. J. Doerksen,  A. D. Dutoi,  R. G. Edgar,  J. Fosso-Tande,  
 L. Fusti-Molnar,  D. Ghosh,  A. Ghysels,  A. Golubeva-Zadorozhnaya,  
 J. Gonthier,  M. S. Gordon,  S. R. Gwaltney,  G. Hawkins,  J. E. Herr,  
 A. Heyden,  S. Hirata,  E. G. Hohenstein,  G. Kedziora,  F. J. Keil,  
 C. Kelley,  Jihan Kim,  R. A. King,  R. Z. Khaliullin,  P. P. Korambath,  
 W. Kurlancheek,  A. Laurent,  A. M. Lee,  M. S. Lee,  S. V. Levchenko,  
 Ching Yeh Lin,  D. Liotard,  E. Livshits,  R. C. Lochan,  I. Lotan,  
 L. A. Martinez-Martinez,  P. E. Maslen,  N. Nair,  D. P. O'Neill,  
 D. Neuhauser,  E. Neuscamman,  C. M. Oana,  R. Olivares-Amaya,  R. Olson,  
 T. M. Perrine,  B. Peters,  P. A. Pieniazek,  A. Prociuk,  Y. M. Rhee,  
 J. Ritchie,  M. A. Rohrdanz,  E. Rosta,  N. J. Russ,  H. F. Schaefer III,  
 M. W. Schmidt,  N. E. Schultz,  S. Sharma,  N. Shenvi,  C. D. Sherrill,  
 A. C. Simmonett,  A. Sodt,  T. Stein,  D. Stuck,  K. S. Thanthiriwatte,  
 V. Vanovschi,  L. Vogt,  Tao Wang,  A. Warshel,  M. A. Watson,  
 C. F. Williams,  Q. Wu,  X. Xu,  Jun Yang,  W. Zhang,  Yan Zhao

 Please cite Q-Chem as follows:
 Y. Shao et al., Mol. Phys. 113, 184-215 (2015)
 DOI: 10.1080/00268976.2014.952696

 Q-Chem 5.4.1 for Intel X86 EM64T Linux

 Parts of Q-Chem use Armadillo 9.800.1 (Horizon Scraper).
 http://arma.sourceforge.net/

 Q-Chem begins on Wed Mar 15 16:18:56 2023  

 Host: cpu121.yggdrasil
0

     Scratch files written to /srv/beegfs/scratch/users/f/fum/qchem67948//
 Processing $rem in /home/share/wesolowski/qc5.aug2021.FDE/config/preferences:
 Processing $rem in /home/fum/.qchemrc:

 Checking the input file for inconsistencies... 	...done.

--------------------------------------------------------------
User input:
--------------------------------------------------------------
$comment
generated from CCJob.Templates
$end

$rem
sym_ignore = true
method = adc(2)
ee_states = 10
basis = cc-pVDZ
mem_static = 1024
mem_total = 40000
adc_davidson_maxiter = 900
adc_davidson_conv = 6
adc_print = 3
adc_prop_es = true
adc_prop_es2es = true
adc_prop_tpa = true
molden_format = True
state_analysis = true
print_orbitals = 15
gen_scfman = false
fde_export_density = true
fde_details = 3
$end

$molecule
0 1
H -0.0348278765 -0.2442097827 0.0636489606
C -1.0765972949 -0.5242748755 -0.0023551776
H -1.313264467 -1.5767591607 -0.0757276926
C -2.043634118 0.3926884087 -0.0338745067
H -1.8137616575 1.4459188338 0.0804456828
H -3.085977293 0.114931858 -0.0593381042                     
$end
--------------------------------------------------------------
 ----------------------------------------------------------------
             Standard Nuclear Orientation (Angstroms)
    I     Atom           X                Y                Z
 ----------------------------------------------------------------
    1      H      -0.0348278765    -0.2442097827     0.0636489606
    2      C      -1.0765972949    -0.5242748755    -0.0023551776
    3      H      -1.3132644670    -1.5767591607    -0.0757276926
    4      C      -2.0436341180     0.3926884087    -0.0338745067
    5      H      -1.8137616575     1.4459188338     0.0804456828
    6      H      -3.0859772930     0.1149318580    -0.0593381042
 ----------------------------------------------------------------
 Nuclear Repulsion Energy =          33.41487791 hartrees
 There are        8 alpha and        8 beta electrons
 Requested basis set is cc-pVDZ
 There are 24 shells and 48 basis functions
 Total memory of 40000 MB is distributed as follows: 
   MEM_STATIC is set to 1024 MB
   QALLOC/CCMAN JOB total memory use is  38976 MB
 Warning: actual memory use might exceed 40000 MB

 Total QAlloc Memory Limit  40000 MB
 Mega-Array Size      1001 MB
 MEM_STATIC part      1024 MB

                       Distance Matrix (Angstroms)
             H (  1)   C (  2)   H (  3)   C (  4)   H (  5)
   C (  2)  1.080776
   H (  3)  1.851895  1.081258
   C (  4)  2.109610  1.333032  2.100932
   H (  5)  2.453859  2.105215  3.067812  1.084069
   H (  6)  3.074674  2.109370  2.450428  1.079016  1.846510

 A cutoff of  1.0D-11 yielded    300 shell pairs
 There are      1220 function pairs (      1329 Cartesian)
 Smallest overlap matrix eigenvalue = 4.82E-03

 Scale SEOQF with 1.000000e-01/1.000000e-01/1.000000e+00

 Standard Electronic Orientation quadrupole field applied
 Nucleus-field energy     =     0.0000000021 hartrees
 Guess from superposition of atomic densities
 Warning:  Energy on first SCF cycle will be non-variational
 SAD guess density has 16.000000 electrons
 A restricted Hartree-Fock SCF calculation will be
 performed using Pulay DIIS extrapolation
 SCF converges when DIIS error is below 1.0E-08
 using 10 threads for integral computing
 -------------------------------------------------------
 OpenMP Integral computing Module                
 Release: version 1.0, May 2013, Q-Chem Inc. Pittsburgh 
 -------------------------------------------------------
 ---------------------------------------
  Cycle       Energy         DIIS Error
 ---------------------------------------
    1     -78.4371546012      1.01E-01
    2     -78.0173094412      7.21E-03
    3     -78.0379149123      1.84E-03
    4     -78.0393962240      5.72E-04
    5     -78.0395174155      5.80E-05
    6     -78.0395193010      9.46E-06
    7     -78.0395193626      2.40E-06
    8     -78.0395193658      1.05E-06
    9     -78.0395193661      1.14E-07
   10     -78.0395193662      3.30E-08
   11     -78.0395193662      6.87E-09 Convergence criterion met
 ---------------------------------------
 SCF time:  CPU 1.89 s  wall 2.54 s
 SCF   energy in the final basis set = -78.03951937
 Total energy in the final basis set = -78.03951937
Exporting Density Matrix to file 'Densmat_SCF.txt'.
Export successful
================================================================================
|                                                                              |
|                                 A D C  M A N                                 |
|                                                                              |
 ------------------------------------------------------------------------------ 
|                                                                              |
| Components:                                                                  |
|                                                                              |
| - libvmm - 1.3-trunk                                                         |
|   Authors:                                                                   |
|   Evgeny Epifanovsky, Ilya Kaliman                                           |
|                                                                              |
| - libtensor - 2.5-trunk                                                      |
|   Authors:                                                                   |
|   Evgeny Epifanovsky, Michael Wormit, Dmitry Zuev, Sam Manzer,               |
|   Ilya Kaliman                                                               |
|                                                                              |
| - libwfa - 1.1-trunk                                                         |
|   Authors:                                                                   |
|   Felix Plasser, Stefanie Mewes (Baeppler), Benjamin Thomitzni,              |
|   Michael Wormit, Feng Chen, Anna I. Krylov, Pavel Pokhilko                  |
|                                                                              |
| - libadc - 1.1-trunk                                                         |
|   Authors:                                                                   |
|   Michael Wormit, Adrian L. Dempwolff, Philipp H. P. Harbach,                |
|   Caroline Krauter, Dirk Rehn, Matthias Schneider, Jan Wenzel                |
|                                                                              |
| - adcman - 2.6-trunk                                                         |
|   Authors:                                                                   |
|   Michael Wormit, Adrian L. Dempwolff, Philipp H. P. Harbach,                |
|   Caroline Krauter, Daniel Lefrancois, Jan-Michael Mewes, Dirk Rehn,         |
|   Matthias Schneider, Jan Wenzel, Andreas Dreuw                              |
|                                                                              |
| Authors of earlier versions of ADCMAN:                                       |
| Andreas Dreuw, Jan Hendrik Starcke, Dirk Rehn, Michael Wormit                |
|                                                                              |
================================================================================

 Created directory /srv/beegfs/scratch/users/f/fum/qchem67948/plots
  Import QC data ...  CPU 0.00 s  wall 0.00 s

 Alpha MOs, Restricted
 -- Occupied --                  
-11.235 -11.234  -1.032  -0.790  -0.641  -0.582  -0.504  -0.374
  1 A     2 A     3 A     4 A     5 A     6 A     7 A     8 A                  
 -- Virtual --                   
  0.168   0.204   0.233   0.239   0.303   0.462   0.578   0.615
  9 A    10 A    11 A    12 A    13 A    14 A    15 A    16 A                  
  0.689   0.710   0.785   0.808   0.862   0.935   0.972   1.009
 17 A    18 A    19 A    20 A    21 A    22 A    23 A    24 A                  
  1.119   1.235   1.254   1.265   1.301   1.600   1.726   1.751
 25 A    26 A    27 A    28 A    29 A    30 A    31 A    32 A                  
  1.819   1.859   1.868   1.920   1.976   1.978   2.218   2.260
 33 A    34 A    35 A    36 A    37 A    38 A    39 A    40 A                  
  2.373   2.454   2.507   2.632   2.720   2.823   3.135   3.392
 41 A    42 A    43 A    44 A    45 A    46 A    47 A    48 A                  

 Beta MOs, Restricted
 -- Occupied --                  
-11.235 -11.234  -1.032  -0.790  -0.641  -0.582  -0.504  -0.374
  1 A     2 A     3 A     4 A     5 A     6 A     7 A     8 A                  
 -- Virtual --                   
  0.168   0.204   0.233   0.239   0.303   0.462   0.578   0.615
  9 A    10 A    11 A    12 A    13 A    14 A    15 A    16 A                  
  0.689   0.710   0.785   0.808   0.862   0.935   0.972   1.009
 17 A    18 A    19 A    20 A    21 A    22 A    23 A    24 A                  
  1.119   1.235   1.254   1.265   1.301   1.600   1.726   1.751
 25 A    26 A    27 A    28 A    29 A    30 A    31 A    32 A                  
  1.819   1.859   1.868   1.920   1.976   1.978   2.218   2.260
 33 A    34 A    35 A    36 A    37 A    38 A    39 A    40 A                  
  2.373   2.454   2.507   2.632   2.720   2.823   3.135   3.392
 41 A    42 A    43 A    44 A    45 A    46 A    47 A    48 A                  
  Import AO data ...  CPU 0.00 s  wall 0.06 s
  Using point group: C1
  Irreducible representations in point group: A
  Molecular orbitals: 
  Occupied MOs:
  Block   0:   1 (  A) A   2 (  A) A   3 (  A) A   4 (  A) A   5 (  A) A
                  -11.24      -11.23      -1.032     -0.7897     -0.6409
               6 (  A) A   7 (  A) A   8 (  A) A
                 -0.5817     -0.5043      -0.374
  Block   1:   1 (  A) B   2 (  A) B   3 (  A) B   4 (  A) B   5 (  A) B
                  -11.24      -11.23      -1.032     -0.7897     -0.6409
               6 (  A) B   7 (  A) B   8 (  A) B
                 -0.5817     -0.5043      -0.374
  Virtual MOs:
  Block   0:   9 (  A) A  10 (  A) A  11 (  A) A  12 (  A) A  13 (  A) A
                  0.1678      0.2036      0.2329      0.2394      0.3033
              14 (  A) A  15 (  A) A  16 (  A) A  17 (  A) A  18 (  A) A
                  0.4618      0.5776       0.615      0.6894      0.7096
              19 (  A) A  20 (  A) A  21 (  A) A  22 (  A) A
                  0.7848      0.8078       0.862       0.935
  Block   1:  23 (  A) A  24 (  A) A  25 (  A) A  26 (  A) A  27 (  A) A
                   0.972       1.009       1.119       1.235       1.254
              28 (  A) A  29 (  A) A  30 (  A) A  31 (  A) A  32 (  A) A
                   1.265       1.301         1.6       1.726       1.751
              33 (  A) A  34 (  A) A  35 (  A) A  36 (  A) A
                   1.819       1.859       1.868        1.92
  Block   2:  37 (  A) A  38 (  A) A  39 (  A) A  40 (  A) A  41 (  A) A
                   1.976       1.978       2.218        2.26       2.373
              42 (  A) A  43 (  A) A  44 (  A) A  45 (  A) A  46 (  A) A
                   2.454       2.507       2.632        2.72       2.823
              47 (  A) A  48 (  A) A
                   3.135       3.392
  Block   3:   9 (  A) B  10 (  A) B  11 (  A) B  12 (  A) B  13 (  A) B
                  0.1678      0.2036      0.2329      0.2394      0.3033
              14 (  A) B  15 (  A) B  16 (  A) B  17 (  A) B  18 (  A) B
                  0.4618      0.5776       0.615      0.6894      0.7096
              19 (  A) B  20 (  A) B  21 (  A) B  22 (  A) B
                  0.7848      0.8078       0.862       0.935
  Block   4:  23 (  A) B  24 (  A) B  25 (  A) B  26 (  A) B  27 (  A) B
                   0.972       1.009       1.119       1.235       1.254
              28 (  A) B  29 (  A) B  30 (  A) B  31 (  A) B  32 (  A) B
                   1.265       1.301         1.6       1.726       1.751
              33 (  A) B  34 (  A) B  35 (  A) B  36 (  A) B
                   1.819       1.859       1.868        1.92
  Block   5:  37 (  A) B  38 (  A) B  39 (  A) B  40 (  A) B  41 (  A) B
                   1.976       1.978       2.218        2.26       2.373
              42 (  A) B  43 (  A) B  44 (  A) B  45 (  A) B  46 (  A) B
                   2.454       2.507       2.632        2.72       2.823
              47 (  A) B  48 (  A) B
                   3.135       3.392
  Import MO data ...  CPU 0.01 s  wall 0.01 s
  Import HF data ...  CPU 0.34 s  wall 0.09 s
  Import 2e integrals ...  CPU 1.10 s  wall 0.17 s

--------------------------------------------------------------------------------
                                   HF Summary                                   
--------------------------------------------------------------------------------
  Energy:                                                  -78.0395193662 a.u.
  Dip. moment [a.u.]:                  [  -0.000464,   -0.002841,    0.022359]
  Total dipole [Debye]:                                               0.057299
  <r^2> [a.u.]:                        [ 175.313980,   34.934176,   11.650750]
  Total <r^2> [a.u.]:                                               221.898907
--------------------------------------------------------------------------------
  HF properties ...  CPU 0.01 s  wall 0.01 s
  MP(1) calculation ...  CPU 0.01 s  wall 0.01 s
  N^6 prerequesite intermediates ...  CPU 0.56 s  wall 0.09 s
  Difference density matrix of state mp2_gs printed to ASCII file 'State_mp2_gs_Difference.txt'
Exporting MP density matrix to file 'Densmat_MP.txt'.
Export successful
  Total density matrix of state mp2_gs printed to ASCII file 'State_mp2_gs_Total.txt'
Exporting MP density matrix to file 'Densmat_MP.txt'.
Export successful

--------------------------------------------------------------------------------
                                 MP(2) Summary                                  
--------------------------------------------------------------------------------
  MP energy contribution:                                   -0.2798167575 a.u.
  Total energy:                                            -78.3193361236 a.u.
  Dip. moment [a.u.]:                  [  -0.000667,   -0.002482,    0.022049]
  Total dipole [Debye]:                                               0.056422
  <r^2> [a.u.]:                        [ 175.359822,   34.974074,   11.482466]
  Total <r^2> [a.u.]:                                               221.816362

  Density matrix analysis:
  ------------------------
  NOs
    Occupation of frontier NOs:
       0.0455   1.9381
    Number of electrons: 16.000000
    Number of unpaired electrons: n_u =  0.40389, n_u,nl =  0.04522
    NO participation ratio (PR_NO): 13.845943
  
  
  Mulliken Population Analysis
  Atom      Charge (e)              h+              e-           Del q
  --------------------------------------------------------------------
   1 H        0.051241        0.014037       -0.011210        0.002827
   2 C       -0.100356        0.093087       -0.099004       -0.005916
   3 H        0.050576        0.014104       -0.011192        0.002912
   4 C       -0.102797        0.093373       -0.098973       -0.005600
   5 H        0.050858        0.014110       -0.011213        0.002896
   6 H        0.050478        0.014101       -0.011220        0.002880
  --------------------------------------------------------------------
  Sum:        0.000000        0.242813       -0.242813       -0.000000
  
  Multipole moment analysis of the density matrix
    Molecular charge:                      0.000000
    Number of electrons:                   16.000000
      Center of electronic charge [Ang]: [ -1.560554,  -0.065520,  -0.013751]
    Total nuclear charge:                  16.000000
      Center of nuclear charge [Ang]:    [ -1.560576,  -0.065602,  -0.013022]
    Dipole moment [D]:                     0.056422
      Cartesian components [D]:          [ -0.001696,  -0.006309,   0.056042]
    RMS size of the density [Ang]:         1.200987
      Cartesian components [Ang]:        [  0.796103,   0.779625,   0.448079]
  
  Exciton analysis of the difference density matrix
    <r_h> [Ang]:                  [ -1.560718,  -0.064532,  -0.017359]
    <r_e> [Ang]:                  [ -1.560274,  -0.065314,  -0.016683]
    |<r_e - r_h>| [Ang]:            0.001124
    Hole size [Ang]:                1.393892
      Cartesian components [Ang]: [  0.846183,   0.834731,   0.728104]
    Electron size [Ang]:            1.359796
      Cartesian components [Ang]: [  0.877654,   0.861793,   0.579725]
--------------------------------------------------------------------------------
  MP(2) calculation ...  CPU 0.25 s  wall 0.55 s
  Start ADC(2)-s ...  CPU 0.01 s  wall 0.00 s
  ADC(2) intermediates ...  CPU 0.03 s  wall 0.01 s
  Starting Davidson for singlet states of irrep A ... 
--------------------------------------------------------------------------------
   It NVec Conv  Avg. Norm  Max. Norm  Conv. states           Remark
--------------------------------------------------------------------------------
        10    0  1.330e-01  4.686e-01  0.4118 n n n n n n n n Guess.
    1   20    0  2.553e-02  1.108e-01  0.3258 n n n n n n n n 
    2   30    0  6.428e-03  2.680e-02  0.3211 n n n n n n n n 
    3   40    0  2.386e-03  1.185e-02  0.3207 n n n n n n n n 
    4   50    0  7.582e-04  4.396e-03  0.3207 n n n n n n n n 
    5   20    0  6.544e-04  4.725e-03  0.3207 n n n n n n n n Subspace collapsed.
    6   30    0  7.335e-04  4.865e-03  0.3207 n n n n n n n n 
    7   40    0  4.436e-04  2.860e-03  0.3207 n n n n n n n n 
    8   50    0  1.971e-04  1.180e-03  0.3207 n n n n n n n n 
    9   20    0  9.290e-05  5.952e-04  0.3207 n n n n n n n n Subspace collapsed.
   10   30    0  6.057e-05  3.989e-04  0.3207 n n n n n n n n 
   11   40    4  2.533e-05  1.497e-04  0.3207 y y y y n n n n 
   12   50    4  1.131e-05  6.509e-05  0.3207 y y y y n n n n 
   13   20    5  8.373e-06  4.898e-05  0.3207 y y y y y n n n Subspace collapsed.
   14   30    6  1.081e-05  6.864e-05  0.3207 y y y y y y n n 
   15   40    6  8.850e-06  6.336e-05  0.3207 y y y y y y n n 
   16   50    6  7.845e-06  6.550e-05  0.3207 y y y y y y n n 
   17   20    6  2.892e-06  2.413e-05  0.3207 y y y y y y n n Subspace collapsed.
   18   30    6  2.164e-06  1.827e-05  0.3207 y y y y y y n n 
   19   40    7  1.040e-06  8.871e-06  0.3207 y y y y y y y n 
   20   50    7  1.476e-06  1.330e-05  0.3207 y y y y y y y n 
   21   20    7  8.273e-07  7.553e-06  0.3207 y y y y y y y n Subspace collapsed.
   22   30    7  1.192e-06  1.113e-05  0.3207 y y y y y y y n 
   23   40    8  1.077e-06  1.031e-05  0.3207 y y y y y y y y 
   24   50    8  1.223e-06  1.193e-05  0.3207 y y y y y y y y 
   25   12    8  1.222e-06  1.192e-05  0.3207 y y y y y y y y Subspace collapsed.
   26   18    8  5.351e-07  5.230e-06  0.3207 y y y y y y y y 
   27   24    9  4.409e-07  4.310e-06  0.3207 y y y y y y y y 
   28   30    9  2.902e-07  2.849e-06  0.3207 y y y y y y y y 
   29   36    9  3.648e-07  3.602e-06  0.3207 y y y y y y y y 
   30   36    9  3.648e-07  3.602e-06  0.3207 y y y y y y y y 
   31   46    9  3.472e-07  3.448e-06  0.3207 y y y y y y y y 
   32   47    9  3.497e-07  3.473e-06  0.3207 y y y y y y y y 
   33   50    9  2.858e-07  2.847e-06  0.3207 y y y y y y y y 
   34   14    9  1.217e-07  1.213e-06  0.3207 y y y y y y y y Subspace collapsed.
   35   18    9  1.164e-07  1.159e-06  0.3207 y y y y y y y y 
   36   22   10  5.467e-08  5.447e-07  0.3207 y y y y y y y y Converged.
--------------------------------------------------------------------------------
  Davidson Summary: 
 ------------------------------------------------------------
  State  0: excitation energy =   0.3207 a.u.   (converged)
  State  1: excitation energy =   0.3321 a.u.   (converged)
  State  2: excitation energy =   0.3371 a.u.   (converged)
  State  3: excitation energy =   0.3613 a.u.   (converged)
  State  4: excitation energy =   0.3750 a.u.   (converged)
  State  5: excitation energy =   0.3869 a.u.   (converged)
  State  6: excitation energy =   0.4244 a.u.   (converged)
  State  7: excitation energy =   0.4467 a.u.   (converged)
  State  8: excitation energy =   0.4560 a.u.   (converged)
  State  9: excitation energy =   0.4644 a.u.   (converged)
 ------------------------------------------------------------

  Singlet states of irrep A ...  CPU 134.57 s  wall 35.77 s
  TDMs ...  CPU 1.07 s  wall 0.37 s
  SDMs ...  CPU 3.37 s  wall 0.79 s
  Starting TPA DIIS iterations ... 
------------------------------------ 
   It     Res. Norm  Remark
------------------------------------
                       Guess.
    1     4.400e+00  
    2     5.838e+00  
    3     1.076e+00  
    4     2.578e-01  
    5     6.609e-02  
    6     2.683e-02  
    7     8.241e-03  
    8     1.477e-03  
    9     5.522e-04  
   10     9.285e-05  
   11     3.357e-05  
   12     5.948e-06  
   13     3.118e-06  
   14     1.019e-06  
   15     4.721e-07  Converged.
   ... Converged in 15 steps (norm: 4.72096e-07)
------------------------------------
  Starting TPA DIIS iterations ... 
------------------------------------ 
   It     Res. Norm  Remark
------------------------------------
                       Guess.
    1     4.194e+00  
    2     5.558e+00  
    3     1.034e+00  
    4     2.577e-01  
    5     6.568e-02  
    6     2.700e-02  
    7     8.138e-03  
    8     1.513e-03  
    9     5.617e-04  
   10     9.495e-05  
   11     3.381e-05  
   12     5.973e-06  
   13     2.494e-06  
   14     7.935e-07  Converged.
   ... Converged in 14 steps (norm: 7.93547e-07)
------------------------------------
  Starting TPA DIIS iterations ... 
------------------------------------ 
   It     Res. Norm  Remark
------------------------------------
                       Guess.
    1     7.660e-01  
    2     6.408e-01  
    3     2.045e-01  
    4     1.346e-01  
    5     1.690e-02  
    6     6.202e-03  
    7     1.050e-03  
    8     4.523e-04  
    9     1.282e-04  
   10     2.620e-05  
   11     6.639e-06  
   12     1.795e-06  
   13     1.387e-06  
   14     5.619e-07  Converged.
   ... Converged in 14 steps (norm: 5.61877e-07)
------------------------------------
  Starting TPA DIIS iterations ... 
------------------------------------ 
   It     Res. Norm  Remark
------------------------------------
                       Guess.
    1     4.681e+00  
    2     6.342e+00  
    3     1.155e+00  
    4     2.858e-01  
    5     7.425e-02  
    6     3.040e-02  
    7     9.318e-03  
    8     1.673e-03  
    9     6.308e-04  
   10     1.061e-04  
   11     3.933e-05  
   12     7.075e-06  
   13     3.844e-06  
   14     1.281e-06  
   15     5.917e-07  Converged.
   ... Converged in 15 steps (norm: 5.91727e-07)
------------------------------------
  Starting TPA DIIS iterations ... 
------------------------------------ 
   It     Res. Norm  Remark
------------------------------------
                       Guess.
    1     4.460e+00  
    2     6.037e+00  
    3     1.109e+00  
    4     2.856e-01  
    5     7.381e-02  
    6     3.061e-02  
    7     9.206e-03  
    8     1.716e-03  
    9     6.422e-04  
   10     1.087e-04  
   11     3.955e-05  
   12     7.055e-06  
   13     3.024e-06  
   14     9.599e-07  Converged.
   ... Converged in 14 steps (norm: 9.59877e-07)
------------------------------------
  Starting TPA DIIS iterations ... 
------------------------------------ 
   It     Res. Norm  Remark
------------------------------------
                       Guess.
    1     7.860e-01  
    2     6.773e-01  
    3     2.173e-01  
    4     1.433e-01  
    5     1.834e-02  
    6     6.850e-03  
    7     1.184e-03  
    8     5.300e-04  
    9     1.531e-04  
   10     2.904e-05  
   11     7.641e-06  
   12     2.085e-06  
   13     1.623e-06  
   14     6.945e-07  Converged.
   ... Converged in 14 steps (norm: 6.94474e-07)
------------------------------------
  Starting TPA DIIS iterations ... 
------------------------------------ 
   It     Res. Norm  Remark
------------------------------------
                       Guess.
    1     4.813e+00  
    2     6.583e+00  
    3     1.192e+00  
    4     2.995e-01  
    5     7.824e-02  
    6     3.215e-02  
    7     9.845e-03  
    8     1.769e-03  
    9     6.695e-04  
   10     1.126e-04  
   11     4.223e-05  
   12     7.648e-06  
   13     4.221e-06  
   14     1.421e-06  
   15     6.544e-07  Converged.
   ... Converged in 15 steps (norm: 6.54387e-07)
------------------------------------
  Starting TPA DIIS iterations ... 
------------------------------------ 
   It     Res. Norm  Remark
------------------------------------
                       Guess.
    1     4.586e+00  
    2     6.267e+00  
    3     1.145e+00  
    4     2.991e-01  
    5     7.777e-02  
    6     3.239e-02  
    7     9.728e-03  
    8     1.815e-03  
    9     6.820e-04  
   10     1.154e-04  
   11     4.243e-05  
   12     7.597e-06  
   13     3.295e-06  
   14     1.046e-06  
   15     4.335e-07  Converged.
   ... Converged in 15 steps (norm: 4.33467e-07)
------------------------------------
  Starting TPA DIIS iterations ... 
------------------------------------ 
   It     Res. Norm  Remark
------------------------------------
                       Guess.
    1     7.953e-01  
    2     6.946e-01  
    3     2.232e-01  
    4     1.473e-01  
    5     1.902e-02  
    6     7.165e-03  
    7     1.250e-03  
    8     5.689e-04  
    9     1.655e-04  
   10     3.013e-05  
   11     8.145e-06  
   12     2.231e-06  
   13     1.741e-06  
   14     7.623e-07  Converged.
   ... Converged in 14 steps (norm: 7.62283e-07)
------------------------------------
  Starting TPA DIIS iterations ... 
------------------------------------ 
   It     Res. Norm  Remark
------------------------------------
                       Guess.
    1     5.553e+00  
    2     7.966e+00  
    3     1.400e+00  
    4     3.802e-01  
    5     1.018e-01  
    6     4.260e-02  
    7     1.296e-02  
    8     2.340e-03  
    9     9.034e-04  
   10     1.514e-04  
   11     6.035e-05  
   12     1.129e-05  
   13     6.739e-06  
   14     2.391e-06  
   15     1.078e-06  
   16     4.001e-07  Converged.
   ... Converged in 16 steps (norm: 4.00103e-07)
------------------------------------
  Starting TPA DIIS iterations ... 
------------------------------------ 
   It     Res. Norm  Remark
------------------------------------
                       Guess.
    1     5.289e+00  
    2     7.582e+00  
    3     1.343e+00  
    4     3.792e-01  
    5     1.012e-01  
    6     4.301e-02  
    7     1.282e-02  
    8     2.409e-03  
    9     9.227e-04  
   10     1.558e-04  
   11     6.034e-05  
   12     1.095e-05  
   13     5.058e-06  
   14     1.616e-06  
   15     6.909e-07  Converged.
   ... Converged in 15 steps (norm: 6.90877e-07)
------------------------------------
  Starting TPA DIIS iterations ... 
------------------------------------ 
   It     Res. Norm  Remark
------------------------------------
                       Guess.
    1     8.455e-01  
    2     7.926e-01  
    3     2.553e-01  
    4     1.686e-01  
    5     2.292e-02  
    6     9.024e-03  
    7     1.657e-03  
    8     8.018e-04  
    9     2.390e-04  
   10     3.383e-05  
   11     1.133e-05  
   12     3.169e-06  
   13     2.476e-06  
   14     1.184e-06  
   15     5.762e-07  Converged.
   ... Converged in 15 steps (norm: 5.76184e-07)
------------------------------------
  Starting TPA DIIS iterations ... 
------------------------------------ 
   It     Res. Norm  Remark
------------------------------------
                       Guess.
    1     6.057e+00  
    2     8.938e+00  
    3     1.540e+00  
    4     4.391e-01  
    5     1.189e-01  
    6     5.032e-02  
    7     1.523e-02  
    8     2.762e-03  
    9     1.079e-03  
   10     1.800e-04  
   11     7.450e-05  
   12     1.421e-05  
   13     8.867e-06  
   14     3.252e-06  
   15     1.442e-06  
   16     5.364e-07  Converged.
   ... Converged in 16 steps (norm: 5.36423e-07)
------------------------------------
  Starting TPA DIIS iterations ... 
------------------------------------ 
   It     Res. Norm  Remark
------------------------------------
                       Guess.
    1     5.767e+00  
    2     8.507e+00  
    3     1.477e+00  
    4     4.376e-01  
    5     1.183e-01  
    6     5.088e-02  
    7     1.507e-02  
    8     2.849e-03  
    9     1.104e-03  
   10     1.856e-04  
   11     7.422e-05  
   12     1.353e-05  
   13     6.497e-06  
   14     2.099e-06  
   15     9.054e-07  Converged.
   ... Converged in 15 steps (norm: 9.05397e-07)
------------------------------------
  Starting TPA DIIS iterations ... 
------------------------------------ 
   It     Res. Norm  Remark
------------------------------------
                       Guess.
    1     8.785e-01  
    2     8.606e-01  
    3     2.762e-01  
    4     1.824e-01  
    5     2.565e-02  
    6     1.038e-02  
    7     1.971e-03  
    8     9.645e-04  
    9     2.902e-04  
   10     3.546e-05  
   11     1.391e-05  
   12     3.935e-06  
   13     3.073e-06  
   14     1.496e-06  
   15     8.122e-07  Converged.
   ... Converged in 15 steps (norm: 8.12198e-07)
------------------------------------
  Starting TPA DIIS iterations ... 
------------------------------------ 
   It     Res. Norm  Remark
------------------------------------
                       Guess.
    1     6.557e+00  
    2     9.929e+00  
    3     1.678e+00  
    4     5.007e-01  
    5     1.368e-01  
    6     5.846e-02  
    7     1.760e-02  
    8     3.208e-03  
    9     1.266e-03  
   10     2.099e-04  
   11     8.995e-05  
   12     1.747e-05  
   13     1.132e-05  
   14     4.283e-06  
   15     1.869e-06  
   16     6.906e-07  Converged.
   ... Converged in 16 steps (norm: 6.90561e-07)
------------------------------------
  Starting TPA DIIS iterations ... 
------------------------------------ 
   It     Res. Norm  Remark
------------------------------------
                       Guess.
    1     6.242e+00  
    2     9.449e+00  
    3     1.610e+00  
    4     4.986e-01  
    5     1.362e-01  
    6     5.918e-02  
    7     1.743e-02  
    8     3.315e-03  
    9     1.298e-03  
   10     2.169e-04  
   11     8.927e-05  
   12     1.629e-05  
   13     8.118e-06  
   14     2.658e-06  
   15     1.151e-06  
   16     3.763e-07  Converged.
   ... Converged in 16 steps (norm: 3.76348e-07)
------------------------------------
  Starting TPA DIIS iterations ... 
------------------------------------ 
   It     Res. Norm  Remark
------------------------------------
                       Guess.
    1     9.106e-01  
    2     9.293e-01  
    3     2.963e-01  
    4     1.957e-01  
    5     2.842e-02  
    6     1.179e-02  
    7     2.310e-03  
    8     1.120e-03  
    9     3.402e-04  
   10     3.773e-05  
   11     1.683e-05  
   12     4.810e-06  
   13     3.763e-06  
   14     1.823e-06  
   15     1.045e-06  
   16     4.730e-07  Converged.
   ... Converged in 16 steps (norm: 4.73049e-07)
------------------------------------
  Starting TPA DIIS iterations ... 
------------------------------------ 
   It     Res. Norm  Remark
------------------------------------
                       Guess.
    1     8.665e+00  
    2     1.435e+01  
    3     2.252e+00  
    4     7.875e-01  
    5     2.205e-01  
    6     9.729e-02  
    7     2.870e-02  
    8     5.361e-03  
    9     2.185e-03  
   10     3.496e-04  
   11     1.681e-04  
   12     3.528e-05  
   13     2.540e-05  
   14     1.071e-05  
   15     4.506e-06  
   16     1.534e-06  
   17     6.668e-07  Converged.
   ... Converged in 17 steps (norm: 6.66842e-07)
------------------------------------
  Starting TPA DIIS iterations ... 
------------------------------------ 
   It     Res. Norm  Remark
------------------------------------
                       Guess.
    1     8.246e+00  
    2     1.365e+01  
    3     2.158e+00  
    4     7.822e-01  
    5     2.197e-01  
    6     9.889e-02  
    7     2.848e-02  
    8     5.576e-03  
    9     2.255e-03  
   10     3.645e-04  
   11     1.638e-04  
   12     2.985e-05  
   13     1.685e-05  
   14     5.949e-06  
   15     2.583e-06  
   16     8.931e-07  Converged.
   ... Converged in 16 steps (norm: 8.931e-07)
------------------------------------
  Starting TPA DIIS iterations ... 
------------------------------------ 
   It     Res. Norm  Remark
------------------------------------
                       Guess.
    1     1.042e+00  
    2     1.232e+00  
    3     3.737e-01  
    4     2.485e-01  
    5     4.059e-02  
    6     1.826e-02  
    7     3.998e-03  
    8     1.604e-03  
    9     5.362e-04  
   10     6.179e-05  
   11     3.337e-05  
   12     1.001e-05  
   13     7.744e-06  
   14     3.752e-06  
   15     1.620e-06  
   16     7.333e-07  Converged.
   ... Converged in 16 steps (norm: 7.33316e-07)
------------------------------------
  Starting TPA DIIS iterations ... 
------------------------------------ 
   It     Res. Norm  Remark
------------------------------------
                       Guess.
    1     1.049e+01  
    2     1.844e+01  
    3     2.734e+00  
    4     1.063e+00  
    5     3.017e-01  
    6     1.359e-01  
    7     3.945e-02  
    8     7.557e-03  
    9     3.131e-03  
   10     4.841e-04  
   11     2.491e-04  
   12     5.656e-05  
   13     4.200e-05  
   14     1.903e-05  
   15     8.160e-06  
   16     2.568e-06  
   17     1.359e-06  
   18     4.129e-07  Converged.
   ... Converged in 18 steps (norm: 4.12889e-07)
------------------------------------
  Starting TPA DIIS iterations ... 
------------------------------------ 
   It     Res. Norm  Remark
------------------------------------
                       Guess.
    1     9.977e+00  
    2     1.755e+01  
    3     2.618e+00  
    4     1.054e+00  
    5     3.007e-01  
    6     1.385e-01  
    7     3.920e-02  
    8     7.900e-03  
    9     3.247e-03  
   10     5.082e-04  
   11     2.389e-04  
   12     4.394e-05  
   13     2.647e-05  
   14     1.003e-05  
   15     4.524e-06  
   16     1.588e-06  
   17     8.263e-07  Converged.
   ... Converged in 17 steps (norm: 8.26281e-07)
------------------------------------
  Starting TPA DIIS iterations ... 
------------------------------------ 
   It     Res. Norm  Remark
------------------------------------
                       Guess.
    1     1.152e+00  
    2     1.510e+00  
    3     4.330e-01  
    4     2.916e-01  
    5     5.167e-02  
    6     2.408e-02  
    7     5.685e-03  
    8     1.807e-03  
    9     6.895e-04  
   10     9.369e-05  
   11     5.317e-05  
   12     1.680e-05  
   13     1.212e-05  
   14     6.074e-06  
   15     2.762e-06  
   16     1.314e-06  
   17     7.765e-07  Converged.
   ... Converged in 17 steps (norm: 7.76545e-07)
------------------------------------
  Starting TPA DIIS iterations ... 
------------------------------------ 
   It     Res. Norm  Remark
------------------------------------
                       Guess.
    1     1.143e+01  
    2     2.066e+01  
    3     2.980e+00  
    4     1.213e+00  
    5     3.465e-01  
    6     1.575e-01  
    7     4.539e-02  
    8     8.817e-03  
    9     3.671e-03  
   10     5.579e-04  
   11     2.952e-04  
   12     7.003e-05  
   13     5.205e-05  
   14     2.430e-05  
   15     1.065e-05  
   16     3.262e-06  
   17     1.900e-06  
   18     4.697e-07  Converged.
   ... Converged in 18 steps (norm: 4.69695e-07)
------------------------------------
  Starting TPA DIIS iterations ... 
------------------------------------ 
   It     Res. Norm  Remark
------------------------------------
                       Guess.
    1     1.087e+01  
    2     1.966e+01  
    3     2.853e+00  
    4     1.202e+00  
    5     3.454e-01  
    6     1.607e-01  
    7     4.513e-02  
    8     9.240e-03  
    9     3.817e-03  
   10     5.876e-04  
   11     2.809e-04  
   12     5.226e-05  
   13     3.212e-05  
   14     1.258e-05  
   15     5.861e-06  
   16     2.067e-06  
   17     1.118e-06  
   18     3.854e-07  Converged.
   ... Converged in 18 steps (norm: 3.85383e-07)
------------------------------------
  Starting TPA DIIS iterations ... 
------------------------------------ 
   It     Res. Norm  Remark
------------------------------------
                       Guess.
    1     1.210e+00  
    2     1.660e+00  
    3     4.616e-01  
    4     3.134e-01  
    5     5.759e-02  
    6     2.703e-02  
    7     6.608e-03  
    8     1.868e-03  
    9     7.653e-04  
   10     1.115e-04  
   11     6.523e-05  
   12     2.121e-05  
   13     1.471e-05  
   14     7.525e-06  
   15     3.695e-06  
   16     2.228e-06  
   17     1.078e-06  
   18     2.532e-07  Converged.
   ... Converged in 18 steps (norm: 2.5321e-07)
------------------------------------
  Starting TPA DIIS iterations ... 
------------------------------------ 
   It     Res. Norm  Remark
------------------------------------
                       Guess.
    1     1.241e+01  
    2     2.302e+01  
    3     3.231e+00  
    4     1.373e+00  
    5     3.946e-01  
    6     1.810e-01  
    7     5.179e-02  
    8     1.021e-02  
    9     4.264e-03  
   10     6.368e-04  
   11     3.458e-04  
   12     8.585e-05  
   13     6.342e-05  
   14     3.038e-05  
   15     1.366e-05  
   16     4.120e-06  
   17     2.606e-06  
   18     6.110e-07  Converged.
   ... Converged in 18 steps (norm: 6.11017e-07)
------------------------------------
  Starting TPA DIIS iterations ... 
------------------------------------ 
   It     Res. Norm  Remark
------------------------------------
                       Guess.
    1     1.181e+01  
    2     2.190e+01  
    3     3.093e+00  
    4     1.359e+00  
    5     3.935e-01  
    6     1.848e-01  
    7     5.151e-02  
    8     1.072e-02  
    9     4.445e-03  
   10     6.730e-04  
   11     3.266e-04  
   12     6.171e-05  
   13     3.847e-05  
   14     1.555e-05  
   15     7.489e-06  
   16     2.658e-06  
   17     1.486e-06  
   18     4.982e-07  Converged.
   ... Converged in 18 steps (norm: 4.98185e-07)
------------------------------------
  Starting TPA DIIS iterations ... 
------------------------------------ 
   It     Res. Norm  Remark
------------------------------------
                       Guess.
    1     1.269e+00  
    2     1.820e+00  
    3     4.900e-01  
    4     3.355e-01  
    5     6.383e-02  
    6     2.996e-02  
    7     7.587e-03  
    8     1.919e-03  
    9     8.421e-04  
   10     1.302e-04  
   11     7.878e-05  
   12     2.640e-05  
   13     1.777e-05  
   14     9.450e-06  
   15     5.082e-06  
   16     3.143e-06  
   17     1.450e-06  
   18     3.400e-07  Converged.
   ... Converged in 18 steps (norm: 3.40034e-07)
------------------------------------
  Two-photon absorbption ...  CPU 123.66 s  wall 25.67 s
  Transition density matrix of state singlet_A_1 printed to ASCII file 'State_singlet_A_1_Transition.txt'
  Transition density matrix of state singlet_A_2 printed to ASCII file 'State_singlet_A_2_Transition.txt'
  Transition density matrix of state singlet_A_3 printed to ASCII file 'State_singlet_A_3_Transition.txt'
  Transition density matrix of state singlet_A_4 printed to ASCII file 'State_singlet_A_4_Transition.txt'
  Transition density matrix of state singlet_A_5 printed to ASCII file 'State_singlet_A_5_Transition.txt'
  Transition density matrix of state singlet_A_6 printed to ASCII file 'State_singlet_A_6_Transition.txt'
  Transition density matrix of state singlet_A_7 printed to ASCII file 'State_singlet_A_7_Transition.txt'
  Transition density matrix of state singlet_A_8 printed to ASCII file 'State_singlet_A_8_Transition.txt'
  Transition density matrix of state singlet_A_9 printed to ASCII file 'State_singlet_A_9_Transition.txt'
  Transition density matrix of state singlet_A_10 printed to ASCII file 'State_singlet_A_10_Transition.txt'
  Transition properties ...  CPU 0.17 s  wall 0.77 s
  Difference density matrix of state singlet_A_1 printed to ASCII file 'State_singlet_A_1_Difference.txt'
  Total density matrix of state singlet_A_1 printed to ASCII file 'State_singlet_A_1_Total.txt'
  Difference density matrix of state singlet_A_2 printed to ASCII file 'State_singlet_A_2_Difference.txt'
  Total density matrix of state singlet_A_2 printed to ASCII file 'State_singlet_A_2_Total.txt'
  Difference density matrix of state singlet_A_3 printed to ASCII file 'State_singlet_A_3_Difference.txt'
  Total density matrix of state singlet_A_3 printed to ASCII file 'State_singlet_A_3_Total.txt'
  Difference density matrix of state singlet_A_4 printed to ASCII file 'State_singlet_A_4_Difference.txt'
  Total density matrix of state singlet_A_4 printed to ASCII file 'State_singlet_A_4_Total.txt'
  Difference density matrix of state singlet_A_5 printed to ASCII file 'State_singlet_A_5_Difference.txt'
  Total density matrix of state singlet_A_5 printed to ASCII file 'State_singlet_A_5_Total.txt'
  Difference density matrix of state singlet_A_6 printed to ASCII file 'State_singlet_A_6_Difference.txt'
  Total density matrix of state singlet_A_6 printed to ASCII file 'State_singlet_A_6_Total.txt'
  Difference density matrix of state singlet_A_7 printed to ASCII file 'State_singlet_A_7_Difference.txt'
  Total density matrix of state singlet_A_7 printed to ASCII file 'State_singlet_A_7_Total.txt'
  Difference density matrix of state singlet_A_8 printed to ASCII file 'State_singlet_A_8_Difference.txt'
  Total density matrix of state singlet_A_8 printed to ASCII file 'State_singlet_A_8_Total.txt'
  Difference density matrix of state singlet_A_9 printed to ASCII file 'State_singlet_A_9_Difference.txt'
  Total density matrix of state singlet_A_9 printed to ASCII file 'State_singlet_A_9_Total.txt'
  Difference density matrix of state singlet_A_10 printed to ASCII file 'State_singlet_A_10_Difference.txt'
  Total density matrix of state singlet_A_10 printed to ASCII file 'State_singlet_A_10_Total.txt'
  Properties ...  CPU 0.31 s  wall 1.17 s
  ISR TDMS ...  CPU 18.05 s  wall 4.63 s
  ISR transition properties ...  CPU 0.23 s  wall 0.10 s
  Sum-over-states TPA ...  CPU 0.00 s  wall 0.00 s

--------------------------------------------------------------------------------
                   State-averaged natural transition orbitals
--------------------------------------------------------------------------------
--------------------------------------------------------------------------------
  SA-NTO decomposition ...  CPU 0.01 s  wall 0.16 s

--------------------------------------------------------------------------------
                             Excited State Summary
--------------------------------------------------------------------------------
--------------------------------------------------------------------------------

  Excited state 1 (singlet, A)                                     [converged]
  ----------------------------------------------------------------------------
  Term symbol:  2 (1) A                                     R^2 =  2.17053e-13

  Total energy:                                            -77.9986505461 a.u.
  Excitation energy:                                               8.726298 eV

  Osc. strength:                                                      0.443084
  Trans. dip. moment [a.u.]:           [  -1.040926,    0.993586,   -0.042101]
  <i|r^2|0> [a.u.]:                    [  -6.132577,    0.239887,   -0.005660]
  Two-photon absorption cross-section (SoS) [a.u.]:                   0.011818
  Two-photon absorption matrix (SoS) [a.u.]:
                                       |   -0.011488   -0.002195    0.017341 |
                                       |   -0.002195   -0.009789   -0.012601 |
                                       |    0.017341   -0.012601   -0.026047 |
  Two-photon absorption cross-section [a.u.]:                         0.029675
  Two-photon absorption matrix [a.u.]:
                                       |   -0.022343   -0.001162    0.034286 |
                                       |   -0.001162   -0.012935   -0.037780 |
                                       |    0.034286   -0.037780   -0.015676 |

  Dip. moment [a.u.]:                  [   0.003398,   -0.006825,    0.026844]
  Total dipole [Debye]:                                               0.070930
  <r^2> [a.u.]:                        [ 176.157304,   35.678322,   11.889441]
  Total <r^2> [a.u.]:                                               223.725066

  V1^2 = 0.9714, V2^2 = 0.0286

  Important amplitudes:
      occ i     occ j     vir a      vir b          v   
    -----------------------------------------------------
     8 (A) A              9 (A) A                 0.6807
     6 (A) A             14 (A) A                -0.0623
     4 (A) A             10 (A) A                -0.0602
     7 (A) A             16 (A) A                -0.0566
     5 (A) A             13 (A) A                 0.0513
     6 (A) A             23 (A) A                -0.0485
     8 (A) A             20 (A) A                -0.0347
     6 (A) A             19 (A) A                -0.0307
     3 (A) A             12 (A) A                -0.0280
     5 (A) A             22 (A) A                 0.0214
     7 (A) A             11 (A) A                 0.0209
     4 (A) A             24 (A) A                -0.0187
     3 (A) A             26 (A) A                -0.0185
     8 (A) A   8 (A) B   17 (A) A   20 (A) B      0.0183
     8 (A) A             10 (A) A                -0.0173
     8 (A) A   8 (A) B    9 (A) A   28 (A) B     -0.0167
     6 (A) A             26 (A) A                 0.0162
     7 (A) A             21 (A) A                -0.0148
     3 (A) A             14 (A) A                 0.0139
     6 (A) A             12 (A) A                -0.0132
     3 (A) A   4 (A) B    9 (A) A    9 (A) B      0.0129
     6 (A) A              9 (A) A                -0.0123
     3 (A) A             19 (A) A                 0.0119
     8 (A) A   8 (A) B   18 (A) A   19 (A) B     -0.0112
     7 (A) A             32 (A) A                -0.0095
     7 (A) A             36 (A) A                -0.0085
     3 (A) A             23 (A) A                 0.0081
     4 (A) A              9 (A) A                 0.0079
     6 (A) A             35 (A) A                -0.0070
     8 (A) A   8 (A) B   25 (A) A   29 (A) B     -0.0066
     6 (A) A             40 (A) A                 0.0066
     3 (A) A   6 (A) B    9 (A) A   28 (A) B      0.0065
     6 (A) A   8 (A) A   19 (A) A   28 (A) A     -0.0060
     5 (A) A   7 (A) B    9 (A) A    9 (A) B      0.0060
     5 (A) A   8 (A) B   11 (A) A   20 (A) B     -0.0059
     7 (A) A   8 (A) B   13 (A) A   20 (A) B     -0.0059
     5 (A) A   8 (A) B   16 (A) A    9 (A) B     -0.0059
     5 (A) A   8 (A) B   11 (A) A    9 (A) B     -0.0059
     7 (A) A   8 (A) B   22 (A) A   20 (A) B     -0.0057
     6 (A) A   8 (A) A    9 (A) A   18 (A) A      0.0056
    -----------------------------------------------------

  Density matrix analysis:
  ------------------------
  NOs
    Occupation of frontier NOs:
       0.9498   1.0214
    Number of electrons: 16.000000
    Number of unpaired electrons: n_u =  2.31363, n_u,nl =  2.03265
    NO participation ratio (PR_NO):  2.862652
  
  
  Mulliken Population Analysis
  Atom      Charge (e)              h+              e-           Del q
  --------------------------------------------------------------------
   1 H        0.058854        0.020417       -0.012803        0.007614
   2 C       -0.114382        0.490775       -0.504801       -0.014026
   3 H        0.058013        0.020358       -0.012921        0.007436
   4 C       -0.116368        0.490866       -0.504437       -0.013571
   5 H        0.057036        0.020371       -0.014193        0.006179
   6 H        0.056847        0.020565       -0.014196        0.006369
  --------------------------------------------------------------------
  Sum:        0.000000        1.063351       -1.063351       -0.000000
  
  Multipole moment analysis of the density matrix
    Molecular charge:                      0.000000
    Number of electrons:                   16.000000
      Center of electronic charge [Ang]: [ -1.560689,  -0.065377,  -0.013910]
    Total nuclear charge:                  16.000000
      Center of nuclear charge [Ang]:    [ -1.560576,  -0.065602,  -0.013022]
    Dipole moment [D]:                     0.070930
      Cartesian components [D]:          [  0.008637,  -0.017348,   0.068232]
    RMS size of the density [Ang]:         1.214648
      Cartesian components [Ang]:        [  0.804561,   0.787502,   0.455953]
  
  Exciton analysis of the difference density matrix
    <r_h> [Ang]:                  [ -1.560396,  -0.064869,  -0.024883]
    <r_e> [Ang]:                  [ -1.562419,  -0.062707,  -0.027269]
    |<r_e - r_h>| [Ang]:            0.003803
    Hole size [Ang]:                1.286343
      Cartesian components [Ang]: [  0.729139,   0.713691,   0.783378]
    Electron size [Ang]:            1.466684
      Cartesian components [Ang]: [  0.857519,   0.833721,   0.848959]

  Transition density matrix analysis:
  -----------------------------------
  
  CT numbers (Mulliken)
    omega =     0.9533
    <Phe> =    -0.1606
  
  Exciton analysis of the transition density matrix
    Trans. dipole moment [D]:             1.829578
      Cartesian components [D]:         [ -1.322885,   1.262722,  -0.053505]
    <r_h> [Ang]:                        [ -1.560085,  -0.065419,  -0.022877]
    <r_e> [Ang]:                        [ -1.562372,  -0.062500,  -0.028996]
    |<r_e - r_h>| [Ang]:                  0.007155
    Hole size [Ang]:                      1.214505
      Cartesian components [Ang]:       [  0.649933,   0.636872,   0.804366]
    Electron size [Ang]:                  1.489970
      Cartesian components [Ang]:       [  0.868102,   0.842971,   0.869373]
    RMS electron-hole separation [Ang]:   1.940070
      Cartesian components [Ang]:       [  1.109594,   1.078356,   1.170394]
    Covariance(r_h, r_e) [Ang^2]:        -0.034394
    Correlation coefficient:             -0.019007
    Center-of-mass size [Ang]:            0.952135
      Cartesian components [Ang]:       [  0.529347,   0.517100,   0.599134]

  Decomposition into state-averaged NTOs
    H- 0 -> L+ 0:  0.6689 ( 89.5%)
    H- 2 -> L+ 5: -0.0835 (  1.4%)
                   omega =  95.3%
  ----------------------------------------------------------------------------


  Excited state 2 (singlet, A)                                     [converged]
  ----------------------------------------------------------------------------
  Term symbol:  3 (1) A                                     R^2 =  2.72261e-13

  Total energy:                                            -77.9872609794 a.u.
  Excitation energy:                                               9.036224 eV

  Osc. strength:                                                      0.000080
  Trans. dip. moment [a.u.]:           [   0.003238,    0.017737,    0.006180]
  <i|r^2|0> [a.u.]:                    [   0.169328,    0.003771,   -0.149066]
  Two-photon absorption cross-section (SoS) [a.u.]:                   4.769697
  Two-photon absorption matrix (SoS) [a.u.]:
                                       |    0.180948    0.063593   -0.511733 |
                                       |    0.063593   -0.079341   -0.551297 |
                                       |   -0.511733   -0.551297   -0.116569 |
  Two-photon absorption cross-section [a.u.]:                         1.150542
  Two-photon absorption matrix [a.u.]:
                                       |    0.349961    0.008638    0.072480 |
                                       |    0.008638   -0.377174    0.077267 |
                                       |    0.072480    0.077267    0.015369 |

  Dip. moment [a.u.]:                  [  -0.016554,    0.000270,    0.049929]
  Total dipole [Debye]:                                               0.133702
  <r^2> [a.u.]:                        [ 174.469633,   33.922748,   13.207053]
  Total <r^2> [a.u.]:                                               221.599434

  V1^2 = 0.9542, V2^2 = 0.0458

  Important amplitudes:
      occ i     occ j     vir a      vir b          v   
    -----------------------------------------------------
     7 (A) A              9 (A) A                 0.6697
     8 (A) A             11 (A) A                 0.1445
     7 (A) A             20 (A) A                -0.0758
     5 (A) A   8 (A) B    9 (A) A    9 (A) B      0.0316
     8 (A) A             16 (A) A                 0.0269
     8 (A) A             21 (A) A                -0.0171
     7 (A) A             10 (A) A                 0.0166
     5 (A) A             28 (A) A                 0.0150
     4 (A) A   7 (A) B    9 (A) A   19 (A) B      0.0135
     5 (A) A   7 (A) B    9 (A) A   16 (A) B      0.0134
     7 (A) A   8 (A) B   20 (A) A   17 (A) B      0.0105
     7 (A) A   8 (A) A    9 (A) A   28 (A) A      0.0097
     8 (A) A             10 (A) A                -0.0097
     5 (A) A   8 (A) B    9 (A) A   20 (A) B     -0.0095
     4 (A) A   6 (A) B    9 (A) A   16 (A) B      0.0091
     5 (A) A   6 (A) A    9 (A) A   23 (A) A      0.0091
     5 (A) A   6 (A) A    9 (A) A   14 (A) A      0.0089
     5 (A) A   6 (A) B    9 (A) A   19 (A) B      0.0086
     8 (A) A   7 (A) B    9 (A) A   28 (A) B     -0.0085
     4 (A) A   5 (A) A    9 (A) A   10 (A) A     -0.0085
     6 (A) A   7 (A) B    9 (A) A   18 (A) B      0.0083
     5 (A) A   6 (A) B    9 (A) A   23 (A) B      0.0080
     3 (A) A   7 (A) B    9 (A) A   18 (A) B      0.0080
     5 (A) A   7 (A) A    9 (A) A   16 (A) A      0.0079
     4 (A) A   8 (A) B    9 (A) A   25 (A) B     -0.0074
     7 (A) A   8 (A) B   17 (A) A   20 (A) B      0.0074
     4 (A) A   7 (A) B   19 (A) A    9 (A) B      0.0074
     7 (A) A             12 (A) A                 0.0073
     5 (A) A   5 (A) B    9 (A) A   13 (A) B     -0.0072
     7 (A) A   8 (A) B   19 (A) A   18 (A) B     -0.0071
     5 (A) A   8 (A) A    9 (A) A   20 (A) A     -0.0069
     4 (A) A   5 (A) B    9 (A) A   18 (A) B      0.0068
     7 (A) A   7 (A) B   20 (A) A   22 (A) B     -0.0065
     7 (A) A   8 (A) B   17 (A) A    9 (A) B     -0.0065
     5 (A) A   6 (A) B    9 (A) A   14 (A) B      0.0063
     4 (A) A   5 (A) B   10 (A) A    9 (A) B      0.0062
     4 (A) A   7 (A) A    9 (A) A   19 (A) A      0.0061
     5 (A) A   7 (A) B   11 (A) A   20 (A) B     -0.0060
     4 (A) A   7 (A) B    9 (A) A   14 (A) B     -0.0060
     8 (A) A             12 (A) A                -0.0058
    -----------------------------------------------------

  Density matrix analysis:
  ------------------------
  NOs
    Occupation of frontier NOs:
       0.9602   1.0516
    Number of electrons: 16.000000
    Number of unpaired electrons: n_u =  2.35552, n_u,nl =  2.06137
    NO participation ratio (PR_NO):  3.015501
  
  
  Mulliken Population Analysis
  Atom      Charge (e)              h+              e-           Del q
  --------------------------------------------------------------------
   1 H        0.145668        0.119709       -0.025282        0.094427
   2 C       -0.303588        0.270124       -0.473357       -0.203233
   3 H        0.156086        0.128296       -0.022786        0.105510
   4 C       -0.303948        0.274296       -0.475447       -0.201151
   5 H        0.156628        0.131979       -0.026209        0.105770
   6 H        0.149154        0.120795       -0.022119        0.098676
  --------------------------------------------------------------------
  Sum:        0.000000        1.045200       -1.045200       -0.000000
  
  Multipole moment analysis of the density matrix
    Molecular charge:                      0.000000
    Number of electrons:                   16.000000
      Center of electronic charge [Ang]: [ -1.560029,  -0.065611,  -0.014673]
    Total nuclear charge:                  16.000000
      Center of nuclear charge [Ang]:    [ -1.560576,  -0.065602,  -0.013022]
    Dipole moment [D]:                     0.133702
      Cartesian components [D]:          [ -0.042075,   0.000685,   0.126908]
    RMS size of the density [Ang]:         1.200073
      Cartesian components [Ang]:        [  0.787299,   0.767726,   0.480554]
  
  Exciton analysis of the difference density matrix
    <r_h> [Ang]:                  [ -1.564939,  -0.057889,  -0.010183]
    <r_e> [Ang]:                  [ -1.556896,  -0.059282,  -0.024299]
    |<r_e - r_h>| [Ang]:            0.016306
    Hole size [Ang]:                1.486431
      Cartesian components [Ang]: [  0.991901,   1.009924,   0.453498]
    Electron size [Ang]:            1.475065
      Cartesian components [Ang]: [  0.877770,   0.859136,   0.816837]

  Transition density matrix analysis:
  -----------------------------------
  
  CT numbers (Mulliken)
    omega =     0.9217
    <Phe> =    -0.0124
  
  Exciton analysis of the transition density matrix
    Trans. dipole moment [D]:             0.024223
      Cartesian components [D]:         [  0.004115,   0.022541,   0.007854]
    <r_h> [Ang]:                        [ -1.566117,  -0.057089,  -0.007036]
    <r_e> [Ang]:                        [ -1.555669,  -0.059641,  -0.027621]
    |<r_e - r_h>| [Ang]:                  0.023226
    Hole size [Ang]:                      1.515609
      Cartesian components [Ang]:       [  1.014085,   1.035596,   0.442991]
    Electron size [Ang]:                  1.472006
      Cartesian components [Ang]:       [  0.868119,   0.848156,   0.832948]
    RMS electron-hole separation [Ang]:   2.093075
      Cartesian components [Ang]:       [  1.319042,   1.323609,   0.942947]
    Covariance(r_h, r_e) [Ang^2]:         0.041724
    Correlation coefficient:              0.018702
    Center-of-mass size [Ang]:            1.066222
      Cartesian components [Ang]:       [  0.675321,   0.676705,   0.472060]

  Decomposition into state-averaged NTOs
    H- 1 -> L+ 0: -0.6623 ( 87.7%)
    H- 0 -> L+ 2: -0.1447 (  4.2%)
                   omega =  92.2%
  ----------------------------------------------------------------------------


  Excited state 3 (singlet, A)                                     [converged]
  ----------------------------------------------------------------------------
  Term symbol:  4 (1) A                                     R^2 =  1.83805e-13

  Total energy:                                            -77.9822515459 a.u.
  Excitation energy:                                               9.172538 eV

  Osc. strength:                                                      0.027238
  Trans. dip. moment [a.u.]:           [  -0.040185,    0.073532,   -0.337913]
  <i|r^2|0> [a.u.]:                    [  -0.248742,   -0.001837,   -0.010449]
  Two-photon absorption cross-section (SoS) [a.u.]:                   0.300049
  Two-photon absorption matrix (SoS) [a.u.]:
                                       |    0.036030    0.001720   -0.010070 |
                                       |    0.001720    0.009181   -0.004983 |
                                       |   -0.010070   -0.004983    0.205066 |
  Two-photon absorption cross-section [a.u.]:                         0.337586
  Two-photon absorption matrix [a.u.]:
                                       |    0.105606   -0.030964   -0.004083 |
                                       |   -0.030964    0.078203    0.007858 |
                                       |   -0.004083    0.007858    0.128101 |

  Dip. moment [a.u.]:                  [  -0.019827,   -0.003297,   -0.030788]
  Total dipole [Debye]:                                               0.093454
  <r^2> [a.u.]:                        [ 180.703074,   40.607317,   11.058956]
  Total <r^2> [a.u.]:                                               232.369348

  V1^2 = 0.9588, V2^2 = 0.0412

  Important amplitudes:
      occ i     occ j     vir a      vir b          v   
    -----------------------------------------------------
     8 (A) A             10 (A) A                 0.6888
     8 (A) A             24 (A) A                 0.0506
     8 (A) A             18 (A) A                -0.0313
     4 (A) A              9 (A) A                -0.0232
     8 (A) A   8 (A) B    9 (A) A   12 (A) B     -0.0218
     8 (A) A   8 (A) B   10 (A) A   17 (A) B      0.0172
     8 (A) A             15 (A) A                 0.0169
     8 (A) A              9 (A) A                 0.0168
     5 (A) A   8 (A) B   11 (A) A   10 (A) B     -0.0165
     7 (A) A   8 (A) B   13 (A) A   10 (A) B     -0.0141
     4 (A) A   8 (A) B   12 (A) A   10 (A) B      0.0111
     6 (A) A   8 (A) A   10 (A) A   15 (A) A      0.0110
     7 (A) A   8 (A) B   22 (A) A   10 (A) B     -0.0108
     6 (A) A   8 (A) B   15 (A) A   10 (A) B     -0.0107
     4 (A) A   8 (A) A   10 (A) A   12 (A) A     -0.0106
     7 (A) A              9 (A) A                 0.0099
     7 (A) A   8 (A) A   10 (A) A   22 (A) A      0.0098
     7 (A) A   8 (A) A   10 (A) A   13 (A) A      0.0097
     5 (A) A   8 (A) B   21 (A) A   10 (A) B      0.0094
     5 (A) A   8 (A) A   10 (A) A   11 (A) A      0.0094
     6 (A) A   8 (A) A   10 (A) A   18 (A) A      0.0087
     6 (A) A   8 (A) B   10 (A) A   10 (A) B      0.0087
     7 (A) A   8 (A) A   12 (A) A   16 (A) A      0.0082
     5 (A) A   8 (A) A   10 (A) A   21 (A) A     -0.0079
     3 (A) A   4 (A) B   10 (A) A    9 (A) B      0.0079
     4 (A) A   8 (A) B   19 (A) A   10 (A) B     -0.0075
     8 (A) A   8 (A) B    9 (A) A   23 (A) B     -0.0075
     8 (A) A   8 (A) B   10 (A) A   28 (A) B     -0.0073
     5 (A) A   8 (A) B   10 (A) A   11 (A) B     -0.0071
     3 (A) A   8 (A) A   10 (A) A   24 (A) A     -0.0071
     3 (A) A   8 (A) B   10 (A) A   10 (A) B      0.0071
     7 (A) A   8 (A) B   16 (A) A   12 (A) B     -0.0070
     3 (A) A   8 (A) B   10 (A) A   18 (A) B     -0.0068
     8 (A) A   8 (A) B    9 (A) A   19 (A) B      0.0067
     6 (A) A   8 (A) B   18 (A) A   10 (A) B     -0.0066
     3 (A) A   6 (A) B   10 (A) A   28 (A) B      0.0062
     7 (A) A   8 (A) B   12 (A) A   11 (A) B     -0.0057
     6 (A) A             28 (A) A                -0.0056
     5 (A) A   8 (A) A   10 (A) A   16 (A) A      0.0056
     6 (A) A   8 (A) A   11 (A) A   16 (A) A     -0.0055
    -----------------------------------------------------

  Density matrix analysis:
  ------------------------
  NOs
    Occupation of frontier NOs:
       0.9815   0.9850
    Number of electrons: 16.000000
    Number of unpaired electrons: n_u =  2.28600, n_u,nl =  2.02454
    NO participation ratio (PR_NO):  2.693527
  
  
  Mulliken Population Analysis
  Atom      Charge (e)              h+              e-           Del q
  --------------------------------------------------------------------
   1 H       -0.165085        0.053501       -0.269826       -0.216326
   2 C        0.326866        0.538723       -0.111501        0.427222
   3 H       -0.163405        0.053824       -0.267805       -0.213981
   4 C        0.323838        0.536827       -0.110192        0.426635
   5 H       -0.163619        0.053888       -0.268364       -0.214476
   6 H       -0.158596        0.054037       -0.263111       -0.209074
  --------------------------------------------------------------------
  Sum:        0.000000        1.290800       -1.290800       -0.000000
  
  Multipole moment analysis of the density matrix
    Molecular charge:                      0.000000
    Number of electrons:                   16.000000
      Center of electronic charge [Ang]: [ -1.559920,  -0.065493,  -0.012004]
    Total nuclear charge:                  16.000000
      Center of nuclear charge [Ang]:    [ -1.560576,  -0.065602,  -0.013022]
    Dipole moment [D]:                     0.093454
      Cartesian components [D]:          [ -0.050396,  -0.008379,  -0.078254]
    RMS size of the density [Ang]:         1.276359
      Cartesian components [Ang]:        [  0.853975,   0.840483,   0.439781]
  
  Exciton analysis of the difference density matrix
    <r_h> [Ang]:                  [ -1.560024,  -0.065489,  -0.019870]
    <r_e> [Ang]:                  [ -1.552169,  -0.065155,   0.001790]
    |<r_e - r_h>| [Ang]:            0.023043
    Hole size [Ang]:                1.410293
      Cartesian components [Ang]: [  0.833547,   0.820079,   0.788415]
    Electron size [Ang]:            2.074414
      Cartesian components [Ang]: [  1.370555,   1.376466,   0.728088]

  Transition density matrix analysis:
  -----------------------------------
  
  CT numbers (Mulliken)
    omega =     0.9260
    <Phe> =    -0.0113
  
  Exciton analysis of the transition density matrix
    Trans. dipole moment [D]:             0.442452
      Cartesian components [D]:         [ -0.051070,   0.093450,  -0.429444]
    <r_h> [Ang]:                        [ -1.560726,  -0.065351,  -0.025957]
    <r_e> [Ang]:                        [ -1.549302,  -0.065225,   0.007522]
    |<r_e - r_h>| [Ang]:                  0.035375
    Hole size [Ang]:                      1.213425
      Cartesian components [Ang]:       [  0.636226,   0.624492,   0.823181]
    Electron size [Ang]:                  2.293546
      Cartesian components [Ang]:       [  1.513936,   1.523422,   0.804695]
    RMS electron-hole separation [Ang]:   2.585162
      Cartesian components [Ang]:       [  1.634811,   1.639487,   1.150016]
    Covariance(r_h, r_e) [Ang^2]:         0.025471
    Correlation coefficient:              0.009152
    Center-of-mass size [Ang]:            1.302276
      Cartesian components [Ang]:       [  0.824787,   0.826694,   0.576391]

  Decomposition into state-averaged NTOs
    H- 0 -> L+ 1:  0.6787 ( 92.1%)
                   omega =  92.6%
  ----------------------------------------------------------------------------


  Excited state 4 (singlet, A)                                     [converged]
  ----------------------------------------------------------------------------
  Term symbol:  5 (1) A                                     R^2 =  2.06971e-13

  Total energy:                                            -77.9579967728 a.u.
  Excitation energy:                                               9.832544 eV

  Osc. strength:                                                      0.000007
  Trans. dip. moment [a.u.]:           [   0.000351,   -0.003050,   -0.004402]
  <i|r^2|0> [a.u.]:                    [   0.037096,    0.002227,   -0.037644]
  Two-photon absorption cross-section (SoS) [a.u.]:                 151.832473
  Two-photon absorption matrix (SoS) [a.u.]:
                                       |    0.804648    0.347412   -2.984905 |
                                       |    0.347412   -0.147984   -3.066525 |
                                       |   -2.984905   -3.066525   -0.648751 |
  Two-photon absorption cross-section [a.u.]:                        95.677807
  Two-photon absorption matrix [a.u.]:
                                       |    0.908262    0.286495   -2.309850 |
                                       |    0.286495   -0.382490   -2.434474 |
                                       |   -2.309850   -2.434474   -0.509686 |

  Dip. moment [a.u.]:                  [   0.022276,    0.026254,   -0.029958]
  Total dipole [Debye]:                                               0.116005
  <r^2> [a.u.]:                        [ 181.382239,   40.618360,   10.780812]
  Total <r^2> [a.u.]:                                               232.781411

  V1^2 = 0.9635, V2^2 = 0.0365

  Important amplitudes:
      occ i     occ j     vir a      vir b          v   
    -----------------------------------------------------
     8 (A) A             11 (A) A                 0.6705
     7 (A) A              9 (A) A                -0.1464
     8 (A) A             21 (A) A                -0.0782
     8 (A) A             16 (A) A                 0.0647
     8 (A) A   8 (A) B    9 (A) A   13 (A) B     -0.0167
     5 (A) A   8 (A) B   11 (A) A   11 (A) B     -0.0156
     8 (A) A   8 (A) B   11 (A) A   17 (A) B      0.0139
     7 (A) A             20 (A) A                 0.0132
     7 (A) A   8 (A) B   13 (A) A   11 (A) B     -0.0128
     8 (A) A             12 (A) A                -0.0115
     5 (A) A   8 (A) A   11 (A) A   21 (A) A     -0.0110
     4 (A) A   8 (A) B   12 (A) A   11 (A) B      0.0110
     8 (A) A   8 (A) B    9 (A) A   22 (A) B     -0.0107
     6 (A) A              9 (A) A                -0.0100
     7 (A) A   8 (A) A   11 (A) A   22 (A) A      0.0096
     6 (A) A   8 (A) B   15 (A) A   11 (A) B     -0.0090
     6 (A) A   8 (A) B   10 (A) A   11 (A) B      0.0090
     7 (A) A   8 (A) B   22 (A) A   11 (A) B     -0.0089
     3 (A) A   4 (A) B   11 (A) A    9 (A) B      0.0083
     3 (A) A   8 (A) B   11 (A) A   18 (A) B     -0.0081
     6 (A) A   8 (A) A   11 (A) A   15 (A) A      0.0080
     7 (A) A   8 (A) A   13 (A) A   16 (A) A      0.0078
     7 (A) A   8 (A) A   11 (A) A   13 (A) A      0.0077
     5 (A) A   8 (A) B   21 (A) A   11 (A) B      0.0071
     4 (A) A   8 (A) B   19 (A) A   11 (A) B     -0.0070
     5 (A) A   8 (A) B    9 (A) A    9 (A) B     -0.0066
     4 (A) A   8 (A) A   11 (A) A   12 (A) A     -0.0063
     6 (A) A   8 (A) A   11 (A) A   18 (A) A      0.0062
     3 (A) A   6 (A) B   11 (A) A   28 (A) B      0.0060
     6 (A) A   8 (A) B   18 (A) A   11 (A) B     -0.0060
     7 (A) A   8 (A) B   16 (A) A   13 (A) B     -0.0057
     5 (A) A   8 (A) B   10 (A) A   10 (A) B     -0.0056
     3 (A) A   8 (A) A   11 (A) A   18 (A) A     -0.0056
     3 (A) A   8 (A) B   11 (A) A   30 (A) B     -0.0055
     6 (A) A   8 (A) B   11 (A) A   10 (A) B      0.0054
     7 (A) A   8 (A) B   12 (A) A   10 (A) B     -0.0054
     8 (A) A   8 (A) B   20 (A) A   22 (A) B      0.0053
     3 (A) A   8 (A) A   11 (A) A   24 (A) A     -0.0053
     3 (A) A   5 (A) B   11 (A) A   25 (A) B     -0.0053
     5 (A) A   8 (A) A   11 (A) A   16 (A) A      0.0048
    -----------------------------------------------------

  Density matrix analysis:
  ------------------------
  NOs
    Occupation of frontier NOs:
       0.9429   1.0255
    Number of electrons: 16.000000
    Number of unpaired electrons: n_u =  2.31926, n_u,nl =  2.04765
    NO participation ratio (PR_NO):  2.902244
  
  
  Mulliken Population Analysis
  Atom      Charge (e)              h+              e-           Del q
  --------------------------------------------------------------------
   1 H       -0.138709        0.045210       -0.235160       -0.189950
   2 C        0.276845        0.498169       -0.120968        0.377200
   3 H       -0.137332        0.046888       -0.234796       -0.187908
   4 C        0.272683        0.498164       -0.122684        0.375480
   5 H       -0.126657        0.047011       -0.224525       -0.177514
   6 H       -0.146830        0.045437       -0.242745       -0.197308
  --------------------------------------------------------------------
  Sum:        0.000000        1.180879       -1.180879       -0.000000
  
  Multipole moment analysis of the density matrix
    Molecular charge:                      0.000000
    Number of electrons:                   16.000000
      Center of electronic charge [Ang]: [ -1.561313,  -0.066471,  -0.012031]
    Total nuclear charge:                  16.000000
      Center of nuclear charge [Ang]:    [ -1.560576,  -0.065602,  -0.013022]
    Dipole moment [D]:                     0.116005
      Cartesian components [D]:          [  0.056619,   0.066732,  -0.076146]
    RMS size of the density [Ang]:         1.277430
      Cartesian components [Ang]:        [  0.858379,   0.840521,   0.434210]
  
  Exciton analysis of the difference density matrix
    <r_h> [Ang]:                  [ -1.561205,  -0.065505,  -0.020977]
    <r_e> [Ang]:                  [ -1.571486,  -0.078383,   0.002328]
    |<r_e - r_h>| [Ang]:            0.028542
    Hole size [Ang]:                1.394407
      Cartesian components [Ang]: [  0.816530,   0.807396,   0.791051]
    Electron size [Ang]:            2.123900
      Cartesian components [Ang]: [  1.436191,   1.410141,   0.678092]

  Transition density matrix analysis:
  -----------------------------------
  
  CT numbers (Mulliken)
    omega =     0.9297
    <Phe> =    -0.0134
  
  Exciton analysis of the transition density matrix
    Trans. dipole moment [D]:             0.006821
      Cartesian components [D]:         [  0.000447,  -0.003877,  -0.005595]
    <r_h> [Ang]:                        [ -1.560651,  -0.064412,  -0.025111]
    <r_e> [Ang]:                        [ -1.573772,  -0.080621,   0.005580]
    |<r_e - r_h>| [Ang]:                  0.037106
    Hole size [Ang]:                      1.227473
      Cartesian components [Ang]:       [  0.655538,   0.650593,   0.808511]
    Electron size [Ang]:                  2.263094
      Cartesian components [Ang]:       [  1.530658,   1.503126,   0.720621]
    RMS electron-hole separation [Ang]:   2.564126
      Cartesian components [Ang]:       [  1.656660,   1.630124,   1.083012]
    Covariance(r_h, r_e) [Ang^2]:         0.027462
    Correlation coefficient:              0.009886
    Center-of-mass size [Ang]:            1.292595
      Cartesian components [Ang]:       [  0.836800,   0.822842,   0.541756]

  Decomposition into state-averaged NTOs
    H- 0 -> L+ 2: -0.6656 ( 88.6%)
    H- 1 -> L+ 0:  0.1444 (  4.2%)
                   omega =  93.0%
  ----------------------------------------------------------------------------


  Excited state 5 (singlet, A)                                     [converged]
  ----------------------------------------------------------------------------
  Term symbol:  6 (1) A                                     R^2 =  4.19132e-13

  Total energy:                                            -77.9443146542 a.u.
  Excitation energy:                                              10.204853 eV

  Osc. strength:                                                      0.000002
  Trans. dip. moment [a.u.]:           [  -0.002293,    0.001104,    0.000454]
  <i|r^2|0> [a.u.]:                    [  -0.128494,    0.082726,    0.006459]
  Two-photon absorption cross-section (SoS) [a.u.]:                 172.120444
  Two-photon absorption matrix (SoS) [a.u.]:
                                       |   -0.727635    0.204839    3.270965 |
                                       |    0.204839   -0.030730   -3.221058 |
                                       |    3.270965   -3.221058    0.028826 |
[...]
    16   -7.294348136301e-04
    17   -2.478141500614e-03
    18   -1.836626949530e-04
    19   -3.320738407894e-03
    20    1.014057300772e-02
    21    9.291651906183e-01
    22   -2.792859115770e-04
    23    1.388442284905e-02
    24    1.158073038343e-03
    25    6.999494257231e-02
    26   -5.172562900759e-02
    27   -1.395671553748e+00
    28    9.704385583939e-02
    29   -9.301906078929e-02
    30   -1.710336680817e-02
    31    3.835612520694e-01
    32   -3.601860216992e-01
    33   -6.854764431047e-02
    34    1.555238288953e-02
    35    1.286545883189e-04
    36   -3.268943396158e-03
    37   -4.814131269357e-04
    38   -3.116718782171e-03
    39    9.796141827624e-03
    40    9.323752877679e-01
    41    2.405529829070e-04
    42   -1.380871708769e-02
    43   -1.631533831919e-03
    44    9.223714294315e-03
    45    9.336690712624e-01
    46    1.416226783730e-02
    47    3.075567723266e-04
    48   -1.565563921564e-04
Sym=X
Ene= 0.232935
Spin=Alpha
Occup=0
     1   -2.622905895364e-02
     2   -1.224696054860e+00
     3    1.411075107045e-02
     4    3.814477861335e-03
     5    6.844484476032e-04
     6   -2.257963985303e-03
     7    3.127185540444e-03
     8    2.756649607620e-02
     9    1.537222244440e-01
    10    1.598186653889e-01
    11    1.673752397516e-02
    12    5.560848026407e-01
    13    5.619633420178e-01
    14    6.021591426159e-02
    15   -3.647116738839e-04
    16   -9.320156283954e-04
    17   -1.029304976939e-03
    18    2.296087065406e-04
    19    3.055324739161e-04
    20    2.530144892156e-02
    21    1.173720651863e+00
    22    2.489481441463e-03
    23    1.383668543387e-02
    24    1.133276621468e-03
    25    2.764311218275e-03
    26   -3.400215157123e-03
    27   -4.319754316021e-02
    28    1.538602397237e-01
    29    1.593033900641e-01
    30    1.639420489675e-02
    31    5.500681709880e-01
    32    5.498427535578e-01
    33    5.753153039103e-02
    34    7.824786934071e-04
    35    1.501526494905e-03
    36    1.545439119096e-03
    37   -3.329341561773e-04
    38   -5.437954446332e-04
    39   -2.576201144065e-02
    40   -1.152343563017e+00
    41    2.398902379786e-03
    42    1.354634401781e-02
    43    1.192068181114e-03
    44    2.588095290694e-02
    45    1.222652065973e+00
    46    1.428382284342e-02
    47    3.857783635030e-03
    48    5.806489212792e-04
Sym=X
Ene= 0.239363
Spin=Alpha
Occup=0
     1   -1.605840350180e-02
     2   -1.055601224744e+00
     3    1.653598170626e-02
     4    9.097870717364e-03
     5    1.469625664888e-03
     6   -8.645479482286e-02
     7    7.950654242772e-02
     8    1.594065312638e+00
     9    5.388543676511e-02
    10   -6.006113226791e-02
    11    2.384648461573e-03
    12    2.106927942415e-01
    13   -2.336887962695e-01
    14    1.660499036165e-02
    15   -2.241646893802e-02
    16    3.606141518081e-03
    17    2.061523189877e-03
    18   -5.649857905082e-04
    19    1.287321932797e-02
    20   -1.726666652533e-02
    21   -1.118756956402e+00
    22   -8.504384246074e-03
    23   -1.769366818596e-02
    24   -1.322872097315e-03
    25    8.640539242012e-02
    26   -7.900348800941e-02
    27   -1.595967911642e+00
    28    5.438691017006e-02
    29   -6.002446389996e-02
    30   -1.583794942333e-02
    31    2.161364126917e-01
    32   -2.339729065477e-01
    33   -5.990976694585e-02
    34    2.248641849162e-02
    35   -1.878540330459e-03
    36   -3.746971500048e-03
    37    4.685646586283e-04
    38   -1.276825348209e-02
    39    1.635106843977e-02
    40    1.120780218020e+00
    41   -8.564585336792e-03
    42   -1.758877230681e-02
    43   -2.525953232172e-03
    44    1.546693360808e-02
    45    1.057919029310e+00
    46    1.661717296145e-02
    47    9.268423748108e-03
    48    2.531240533516e-04
Sym=X
Ene= 0.303258
Spin=Alpha
Occup=0
     1   -2.126094487411e-02
     2    1.690671882909e+00
     3   -2.285477833673e-02
     4    2.642751874148e-04
     5   -1.842822627378e-03
     6   -1.499951437377e-04
     7    2.288054360986e-04
     8   -2.639903531369e-03
     9   -1.340840694623e-01
    10   -1.394050948988e-01
    11   -1.457509844798e-02
    12   -1.140680761039e+00
    13   -1.192503551040e+00
    14   -1.244056835759e-01
    15   -2.261368730770e-04
    16   -2.368405444414e-03
    17    1.051180904780e-03
    18   -3.264447642826e-02
    19   -1.634095807331e-03
    20    2.001593315377e-02
    21   -1.685633216616e+00
    22    1.450391222410e-03
    23   -2.286997148164e-02
    24   -5.058900970679e-04
    25    3.180918644181e-05
    26    3.802161783871e-04
    27   -1.706697659434e-02
    28    1.350823980192e-01
    29    1.405394725624e-01
    30    1.476354574945e-02
    31    1.139072678752e+00
    32    1.193547864016e+00
    33    1.245213605660e-01
    34    6.162192258717e-04
    35    6.591618182491e-04
    36    4.187948275501e-03
    37   -3.225135616081e-02
    38   -2.145974986836e-03
    39    1.840786813543e-02
    40   -1.682958003106e+00
    41   -1.671420045537e-03
    42    2.278806716198e-02
    43    1.434651633555e-03
    44   -2.033934417019e-02
    45    1.700200474835e+00
    46    2.305014658463e-02
    47   -2.522366075499e-04
    48    9.355452301305e-04
Sym=X
Ene= 0.461774
Spin=Alpha
Occup=0
     1   -1.141881252886e-01
     2   -7.150758073757e-01
     3   -1.552219262482e-02
     4   -1.055431015009e-02
     5   -1.399404051498e-03
     6    6.080812775869e-02
     7    1.688319392749e-02
     8   -3.584020803515e+00
     9    1.034988865834e-01
    10   -9.882378017286e-02
    11   -6.354887789820e-03
    12    2.420011143589e+00
    13   -2.301253337136e+00
    14    9.097481421400e-02
    15    5.374934424351e-02
    16   -3.401468999199e-03
    17   -4.611197181637e-03
    18   -6.002094800842e-04
    19    1.796530376574e-02
    20   -1.229870493108e-01
    21   -6.987503788520e-01
    22    8.528085284581e-03
    23    1.646609089609e-02
    24    1.293472342336e-03
    25   -6.110660947765e-02
    26   -1.630854203091e-02
    27    3.588321531480e+00
    28    1.060576815638e-01
    29   -1.000275847445e-01
    30   -1.713921609604e-02
    31    2.421464649861e+00
    32   -2.288861078974e+00
    33    4.229606317726e-02
    34   -5.236132171029e-02
    35    4.305024531740e-03
    36    3.541964945963e-03
    37    3.133661952455e-04
    38   -1.929669999027e-02
    39    1.169094371962e-01
    40    6.960031225681e-01
    41    8.187192479650e-03
    42    1.625514922012e-02
    43    8.772234363917e-04
    44    1.075982610902e-01
    45    7.252514709335e-01
    46   -1.520084593476e-02
    47   -1.007189295447e-02
    48   -1.791371142839e-03
Sym=X
Ene= 0.577572
Spin=Alpha
Occup=0
     1    2.450629978136e-01
     2    4.374112458496e-02
     3   -1.870063199828e-02
     4    2.557599915440e-02
     5    3.308887705699e-04
     6   -4.379463159411e-03
     7   -1.577172508896e-01
     8   -4.670316786915e-01
     9    2.982722935495e-01
    10   -2.894503642466e-01
    11    6.867167083143e-03
    12   -7.174012416560e-01
    13    6.969180395202e-01
    14    6.394827184001e-03
    15   -5.680307686103e-03
    16    3.663526714403e-03
    17    3.886580157258e-03
    18   -5.414273191720e-03
    19    6.019592174418e-02
    20    2.569252486727e-01
    21    2.585058481319e-02
    22   -2.643462038122e-02
    23    1.629735551181e-02
    24   -5.907046613015e-04
    25   -5.807669095592e-03
    26   -1.582316736520e-01
    27   -4.050143044334e-01
    28   -2.961436390923e-01
    29    2.865643883942e-01
    30   -9.061352717817e-03
    31    7.641174438932e-01
    32   -7.323390152317e-01
    33   -1.578698879253e-02
    34   -5.664290730118e-03
    35    3.521579327104e-03
    36    4.062974272631e-03
    37   -4.713040109528e-03
    38    6.023328704373e-02
    39    2.514064840545e-01
    40    4.270956758802e-02
    41    2.742339525844e-02
    42   -1.705210657701e-02
    43   -4.182697968038e-04
    44    2.468496152013e-01
    45    6.225619478768e-02
    46    1.844683241887e-02
    47   -2.550210419421e-02
    48   -1.399789748346e-03
Sym=X
Ene= 0.615014
Spin=Alpha
Occup=0
     1   -5.247781961489e-01
     2    1.968343345712e-01
     3   -6.162896925663e-02
     4    3.738536695309e-02
     5   -1.879986836405e-03
     6   -8.476793488471e-04
     7    3.409115241549e-04
     8   -3.334830967283e-02
     9   -4.068646337843e-02
    10   -3.746034271928e-02
    11   -4.683268927732e-03
    12    3.167576648850e-01
    13    2.653581998404e-01
    14    3.233306251373e-02
    15    2.621319520213e-03
    16   -9.451272516133e-03
    17    6.182032226854e-03
    18   -1.476440238887e-01
    19   -6.196746049278e-03
    20    5.034848853246e-01
    21   -2.067402475991e-01
    22    4.204417304655e-02
    23   -5.811518446411e-02
    24   -2.727308733843e-04
    25    6.725797193663e-04
    26    4.022122683392e-04
    27    3.298311034400e-02
    28   -4.152609013192e-02
    29   -3.941823292299e-02
    30   -4.875636563563e-03
    31    3.193266141387e-01
    32    2.748853544552e-01
    33    3.236804300333e-02
    34   -2.879938788989e-03
    35    1.217200252745e-03
    36   -1.501895403058e-02
    37    1.492898830334e-01
    38    6.248757930072e-03
    39   -5.151191519791e-01
    40    2.181719635871e-01
    41    4.113586571543e-02
    42   -5.832331758351e-02
    43   -3.202470235858e-03
    44    5.237487504819e-01
    45   -1.989425126768e-01
    46   -6.165550899903e-02
    47    3.705187589827e-02
    48    9.008099066302e-04
Sym=X
Ene= 0.689380
Spin=Alpha
Occup=0
     1    2.960113572633e-02
     2    1.726790767192e-02
     3    3.766383211419e-03
     4    4.490253849501e-03
     5   -2.068624460936e-02
     6    1.941072548156e-03
     7    9.520589571281e-03
     8    1.630656585367e-02
     9    3.087876798310e-02
    10    4.056861146903e-02
    11   -6.705305375436e-01
    12   -8.230488682718e-02
    13    1.429676628605e-02
    14    6.131005383319e-01
    15   -1.909908068281e-03
    16    8.319525221603e-02
    17   -7.736010726806e-02
    18   -8.953409930991e-03
    19    8.260866085448e-03
    20    2.933142522839e-02
    21    1.715006567266e-02
    22   -2.183664496035e-03
    23   -1.656372172801e-03
    24   -2.123938828798e-02
    25    5.792464169009e-06
    26    2.809062257504e-02
    27   -3.960173262561e-02
    28    3.908686390466e-02
    29    3.291440632906e-02
    30   -6.686905886813e-01
    31   -9.032152555407e-02
    32    2.099793716824e-02
    33    6.115491946370e-01
    34   -1.067356244482e-02
    35   -8.200553402154e-02
    36    7.892578814728e-02
    37    8.814828574133e-03
    38   -3.646478003706e-03
    39   -2.268649425766e-03
    40   -3.890206434647e-02
    41    1.281504094708e-05
    42    7.882529613653e-03
    43   -1.993119911904e-02
    44   -2.677373636867e-03
    45   -3.956645584676e-02
    46   -5.788325211217e-03
    47    1.876455236404e-03
    48   -2.149020712753e-02
Sym=X
Ene= 0.709647
Spin=Alpha
Occup=0
     1   -4.766126378917e-01
     2    1.649383422433e-01
     3   -8.133818982327e-02
     4   -4.442864195818e-02
     5   -9.882875117980e-03
     6   -4.848163941553e-02
     7   -3.179470363431e-01
     8    5.166163901829e-01
     9    2.042085278169e-01
    10   -1.888194426128e-01
    11   -2.016487831289e-02
    12   -1.054232894938e-01
    13    8.192997832674e-02
    14   -1.563248553876e-02
    15    1.955281542441e-01
    16   -2.392663213968e-02
    17   -2.092729210300e-02
    18    3.525528160965e-03
    19   -7.737575140365e-02
    20   -4.833342944175e-01
    21    1.523033718631e-01
    22    4.110769202309e-02
    23    8.241092644806e-02
    24    3.506005626732e-03
    25   -4.601681691480e-02
    26   -3.190219667321e-01
    27    4.507368942294e-01
    28   -2.028421890249e-01
    29    1.957141109338e-01
    30   -2.466074219996e-02
    31    5.305933903340e-02
    32   -5.333763876722e-02
    33    6.658393062917e-02
    34    1.920868528243e-01
    35   -2.320493742467e-02
    36   -2.094658282051e-02
    37    2.482786976738e-03
    38   -7.615043937021e-02
    39   -4.705943745740e-01
    40    1.370275654372e-01
    41   -4.134523059811e-02
    42   -8.009077982333e-02
    43   -5.235420522773e-03
    44   -4.712234027368e-01
    45    1.373007011759e-01
    46    8.005306831795e-02
    47    4.390646748543e-02
    48    7.861350061621e-03
Sym=X
Ene= 0.784803
Spin=Alpha
Occup=0
     1    5.212410963414e-01
     2   -4.658408436085e-01
     3    1.089781588524e-01
     4    2.548060056341e-02
     5    8.536461907902e-03
     6    9.038794298486e-02
     7   -2.168180975625e-01
     8   -6.381172696027e-01
     9    1.089492648868e-01
    10   -1.076314090817e-01
    11    4.761800817069e-02
    12    3.224445853009e-01
    13   -2.889723214716e-01
    14   -6.693289389836e-02
    15   -2.044726268216e-01
    16    2.138492860565e-02
    17    1.758831289280e-02
    18   -2.744541753993e-03
    19    8.821002785307e-03
    20    5.332556450895e-01
    21   -4.686614432364e-01
    22   -2.009880406420e-02
    23   -1.123265770985e-01
    24   -5.628231844446e-03
    25   -9.144270931640e-02
    26    2.140075967676e-01
    27    6.530403799875e-01
    28    1.153279056016e-01
    29   -9.754385135888e-02
    30   -2.601239861986e-02
    31    2.975146984933e-01
    32   -3.019301228191e-01
    33    7.789700442745e-02
    34    2.083901281253e-01
    35   -1.146603584286e-02
    36   -2.869599712860e-02
    37    2.859935009758e-03
    38   -9.470792471784e-03
    39   -5.491136919243e-01
    40    4.816230974573e-01
    41   -2.131322183373e-02
    42   -1.143347629593e-01
    43   -8.028918383228e-03
    44   -5.303724845880e-01
    45    4.540568140463e-01
    46    1.090719493162e-01
    47    2.724700339892e-02
    48    6.860757518129e-03
Sym=X
Ene= 0.807832
Spin=Alpha
Occup=0
     1    2.314668311629e-02
     2   -2.446097621558e-02
     3    6.399985979670e-03
     4    1.717497343999e-03
     5   -3.338396064014e-02
     6    5.164531217310e-03
     7   -2.524821728649e-02
     8    3.136886721143e-04
     9    5.948833703813e-02
    10    2.219312539245e-02
    11   -7.610087447394e-01
    12   -6.221556774355e-02
    13   -5.544196142537e-02
    14    1.124085051240e+00
    15   -1.573410838497e-02
    16   -6.396703806100e-02
    17    6.264334073675e-02
    18    6.995596459963e-03
    19   -5.835587828532e-03
    20    2.401764457233e-02
    21   -2.340723994416e-02
    22    2.189719136441e-03
    23   -2.708412266593e-03
    24   -3.483425045047e-02
    25   -3.762182123206e-03
    26   -6.360845252781e-03
    27    1.696853974680e-02
    28   -3.060592773275e-02
    29   -4.964206190704e-02
    30    7.628171730922e-01
    31    7.553404900856e-02
    32    4.305448150798e-02
    33   -1.125017733690e+00
    34    1.115164073348e-02
    35   -6.582582781186e-02
    36    6.016189549566e-02
    37    6.949038571277e-03
    38   -5.826929563732e-05
    39   -2.398892544141e-02
    40    3.392972944526e-02
    41    8.361260942520e-04
    42   -1.411716134222e-02
    43    3.339676820144e-02
    44   -2.329001867048e-02
    45    3.147777081134e-02
    46    1.015010650294e-02
    47   -3.877706957854e-03
    48    3.447276095080e-02
Sym=X
Ene= 0.862044
Spin=Alpha
Occup=0
     1    1.613115678089e-02
     2   -1.088934639337e+00
     3    1.483287797822e-01
     4    5.650778852286e-02
     5    8.553072255746e-03
     6    7.460933044237e-04
     7   -5.253611685728e-03
     8    7.956132645630e-03
     9   -4.013639734716e-01
    10   -4.292396372952e-01
    11   -4.434345259614e-02
    12    9.327580385929e-01
    13    9.928524447897e-01
    14    1.023863702751e-01
    15   -2.179823325704e-03
    16    1.044107675784e-02
    17   -1.511337246039e-02
    18    2.356301016123e-01
    19    8.491197439952e-03
    20   -1.249338000785e-02
    21    1.096687193895e+00
    22    5.052553280322e-02
    23    1.501458776783e-01
    24    1.308467241892e-02
    25   -1.030280452545e-03
    26   -9.580621330837e-04
    27   -2.510344675140e-03
    28   -4.057894907153e-01
    29   -4.357415722924e-01
    30   -4.534583547972e-02
    31    9.508843040463e-01
    32    1.016612698069e+00
    33    1.062073316244e-01
    34    3.832756455547e-03
    35   -9.125725310360e-03
    36    1.640179144300e-02
    37   -2.359883473577e-01
    38   -9.202950615860e-03
    39    8.528051940904e-03
    40   -1.108221411251e+00
    41    4.870273281199e-02
    42    1.513661705935e-01
    43    1.614937620104e-02
    44   -1.363588321212e-02
    45    1.099023225393e+00
    46    1.501302784482e-01
    47    5.512812188688e-02
    48    5.658298306720e-03
Sym=X
Ene= 0.934958
Spin=Alpha
Occup=0
     1    1.071494679050e-01
     2   -1.291200978053e+00
     3    1.802951278915e-01
     4   -4.946352417263e-03
     5    1.491523215261e-02
     6   -4.937595812932e-04
     7    1.031094676734e-02
     8   -2.035758282769e-02
     9   -4.796603153223e-01
    10   -4.979116901502e-01
    11   -5.188943616498e-02
    12    1.494475874871e+00
    13    1.544513809767e+00
    14    1.619951991603e-01
    15    3.894791381594e-03
    16    1.367677067385e-02
    17    1.555884791413e-03
    18    1.193346053186e-01
    19    3.325965484745e-03
    20   -1.137003268914e-01
    21    1.291539535439e+00
    22   -1.131531434818e-02
    23    1.839404823044e-01
    24    3.630047709866e-03
    25    8.677421246540e-04
    26    1.324476099244e-02
    27   -7.683779630083e-03
    28    4.647613017908e-01
    29    5.028146964405e-01
    30    5.159918964134e-02
    31   -1.454814010235e+00
    32   -1.553411527939e+00
    33   -1.609264640657e-01
    34   -1.904268160859e-03
    35    4.412553147531e-03
    36   -8.629595939156e-03
    37    1.179190624936e-01
    38   -3.284216673224e-04
    39   -1.118826827780e-01
    40    1.287470359935e+00
    41    1.217692578259e-02
    42   -1.823480348871e-01
    43   -8.673368612551e-03
    44    1.105299503094e-01
    45   -1.266982929644e+00
    46   -1.789865376273e-01
    47    8.222247157866e-03
    48   -1.003126351570e-02
Sym=X
Ene= 0.972047
Spin=Alpha
Occup=0
     1   -6.605423747598e-02
     2    9.146621294260e-01
     3   -8.966388126412e-02
     4   -9.851910036674e-02
     5   -7.748505589213e-03
     6    2.527897450120e-02
     7    2.515186130624e-01
     8    5.213709547232e-01
     9    4.768981749475e-01
    10   -4.592301619355e-01
    11    1.331538004115e-02
    12   -1.476992990286e+00
    13    1.426030862742e+00
    14   -4.536238090796e-02
    15   -5.353254848258e-02
    16   -1.366481616959e-03
    17   -2.036109632746e-02
    18    1.283766535056e-02
    19   -3.016645115266e-01
    20   -6.152995585100e-02
    21    9.194975763452e-01
    22    9.522826180872e-02
    23    9.392475396864e-02
    24    1.230059809798e-02
    25   -2.525780663810e-02
    26   -2.363078493167e-01
    27   -5.480353838590e-01
    28    4.855884109470e-01
    29   -4.473599526251e-01
    30   -1.303385601253e-02
    31   -1.511704191193e+00
    32    1.386863797330e+00
    33    2.625317152996e-02
    34    5.383871669858e-02
    35   -2.598373860670e-04
    36    2.166122228828e-02
    37   -9.963583480700e-03
    38    2.985289584586e-01
    39    6.054981418074e-02
    40   -8.822336412723e-01
    41    9.383848622010e-02
    42    8.859919728759e-02
    43    1.737487622048e-02
    44    6.595602969087e-02
    45   -9.342548949388e-01
    46   -9.207016594554e-02
    47   -9.792301815943e-02
    48   -2.553259344315e-03
[5D]

======= END OF MOLDEN-FORMATTED INPUT FILE =======


        *************************************************************
        *                                                           *
        *  Thank you very much for using Q-Chem.  Have a nice day.  *
        *                                                           *
        *************************************************************


