                  Welcome to Q-Chem
     A Quantum Leap Into The Future Of Chemistry


 Q-Chem 5.4 (devel), Q-Chem, Inc., Pleasanton, CA (2021)

 E. Epifanovsky,  A. T. B. Gilbert,  Xintian Feng,  Joonho Lee,  Yuezhi Mao,  
 N. Mardirossian,  P. Pokhilko,  A. White,  M. Wormit,  M. P. Coons,  
 A. L. Dempwolff,  Zhengting Gan,  D. Hait,  P. R. Horn,  L. D. Jacobson,  
 I. Kaliman,  J. Kussmann,  A. W. Lange,  Ka Un Lao,  D. S. Levine,  Jie Liu,  
 S. C. McKenzie,  A. F. Morrison,  K. Nanda,  F. Plasser,  D. R. Rehn,  
 M. L. Vidal,  Zhi-Qiang You,  Ying Zhu,  B. Alam,  B. Albrecht,  
 A. Aldossary,  E. Alguire,  J. H. Andersen,  D. Barton,  K. Begam,  A. Behn,  
 Y. A. Bernard,  E. J. Berquist,  H. Burton,  A. Carreras,  K. Carter-Fenk,  
 R. Chakraborty,  A. D. Chien,  K. D. Closser,  V. Cofer-Shabica,  
 S. Dasgupta,  Jia Deng,  M. de Wergifosse,  M. Diedenhofen,  Hainam Do,  
 S. Ehlert,  Po-Tung Fang,  S. Fatehi,  Qingguo Feng,  T. Friedhoff,  
 J. Gayvert,  Qinghui Ge,  G. Gidofalvi,  M. Goldey,  J. Gomes,  
 C. Gonzalez-Espinoza,  S. Gulania,  A. Gunina,  M. W. D. Hanson-Heine,  
 P. H. P. Harbach,  A. W. Hauser,  M. F. Herbst,  M. Hernandez Vera,  
 M. Hodecker,  Z. C. Holden,  S. Houck,  Xunkun Huang,  Kerwin Hui,  
 B. C. Huynh,  M. Ivanov,  Hyunjun Ji,  Hanjie Jiang,  B. Kaduk,  S. Kaehler,  
 K. Khistyaev,  Jaehoon Kim,  P. Klunzinger,  Z. Koczor-Benda,  
 Joong Hoon Koh,  D. Kosenkov,  L. Koulias,  T. Kowalczyk,  C. M. Krauter,  
 K. Kue,  A. Kunitsa,  T. Kus,  A. Landau,  K. V. Lawler,  D. Lefrancois,  
 S. Lehtola,  Rain Li,  Yi-Pei Li,  Jiashu Liang,  M. Liebenthal,  
 Hung-Hsuan Lin,  You-Sheng Lin,  Fenglai Liu,  Kuan-Yu Liu,  
 M. Loipersberger,  A. Luenser,  A. Manjanath,  P. Manohar,  E. Mansoor,  
 S. F. Manzer,  Shan-Ping Mao,  A. V. Marenich,  T. Markovich,  S. Mason,  
 S. A. Maurer,  P. F. McLaughlin,  M. F. S. J. Menger,  J.-M. Mewes,  
 S. A. Mewes,  P. Morgante,  J. W. Mullinax,  K. J. Oosterbaan,  G. Paran,  
 Alexander C. Paul,  Suranjan K. Paul,  F. Pavosevic,  Zheng Pei,  S. Prager,  
 E. I. Proynov,  E. Ramos,  B. Rana,  A. E. Rask,  A. Rettig,  R. M. Richard,  
 F. Rob,  E. Rossomme,  T. Scheele,  M. Scheurer,  M. Schneider,  
 N. Sergueev,  S. M. Sharada,  W. Skomorowski,  D. W. Small,  C. J. Stein,  
 Yu-Chuan Su,  E. J. Sundstrom,  Zhen Tao,  J. Thirman,  T. Tsuchimochi,  
 N. M. Tubman,  S. P. Veccham,  O. Vydrov,  J. Wenzel,  J. Witte,  A. Yamada,  
 Kun Yao,  S. Yeganeh,  S. R. Yost,  A. Zech,  Igor Ying Zhang,  Xing Zhang,  
 Yu Zhang,  D. Zuev,  A. Aspuru-Guzik,  A. T. Bell,  N. A. Besley,  
 K. B. Bravaya,  B. R. Brooks,  D. Casanova,  Jeng-Da Chai,  S. Coriani,  
 C. J. Cramer,  A. E. DePrince, III,  R. A. DiStasio Jr.,  A. Dreuw,  
 B. D. Dunietz,  T. R. Furlani,  W. A. Goddard III,  S. Grimme,  
 S. Hammes-Schiffer,  T. Head-Gordon,  W. J. Hehre,  Chao-Ping Hsu,  
 T.-C. Jagau,  Yousung Jung,  A. Klamt,  Jing Kong,  D. S. Lambrecht,  
 WanZhen Liang,  N. J. Mayhall,  C. W. McCurdy,  J. B. Neaton,  
 C. Ochsenfeld,  J. A. Parkhill,  R. Peverati,  V. A. Rassolov,  Yihan Shao,  
 L. V. Slipchenko,  T. Stauch,  R. P. Steele,  J. E. Subotnik,  
 A. J. W. Thom,  A. Tkatchenko,  D. G. Truhlar,  T. Van Voorhis,  
 T. A. Wesolowski,  K. B. Whaley,  H. L. Woodcock III,  P. M. Zimmerman,  
 S. Faraji,  P. M. W. Gill,  M. Head-Gordon,  J. M. Herbert,  A. I. Krylov

 Additional authors for Version 5.4.1: 
 S. Kotaru,  Shaozhi Li,  Xiangyuan Li,  F. Matz,  A. Molle,  Haisheng Ren,  
 Yingli Su,  Hung-Yi Tsai,  C. Utku,  Fang Wang

 Contributors to earlier versions of Q-Chem not listed above: 
 R. D. Adamson,  B. Austin,  R. Baer,  J. Baker,  G. J. O. Beran,  
 K. Brandhorst,  S. T. Brown,  E. F. C. Byrd,  A. K. Chakraborty,  
 G. K. L. Chan,  Chun-Min Chang,  Yunqing Chen,  C.-L. Cheng,  
 Siu Hung Chien,  D. M. Chipman,  D. L. Crittenden,  H. Dachsel,  
 R. J. Doerksen,  A. D. Dutoi,  R. G. Edgar,  J. Fosso-Tande,  
 L. Fusti-Molnar,  D. Ghosh,  A. Ghysels,  A. Golubeva-Zadorozhnaya,  
 J. Gonthier,  M. S. Gordon,  S. R. Gwaltney,  G. Hawkins,  J. E. Herr,  
 A. Heyden,  S. Hirata,  E. G. Hohenstein,  G. Kedziora,  F. J. Keil,  
 C. Kelley,  Jihan Kim,  R. A. King,  R. Z. Khaliullin,  P. P. Korambath,  
 W. Kurlancheek,  A. Laurent,  A. M. Lee,  M. S. Lee,  S. V. Levchenko,  
 Ching Yeh Lin,  D. Liotard,  E. Livshits,  R. C. Lochan,  I. Lotan,  
 L. A. Martinez-Martinez,  P. E. Maslen,  N. Nair,  D. P. O'Neill,  
 D. Neuhauser,  E. Neuscamman,  C. M. Oana,  R. Olivares-Amaya,  R. Olson,  
 T. M. Perrine,  B. Peters,  P. A. Pieniazek,  A. Prociuk,  Y. M. Rhee,  
 J. Ritchie,  M. A. Rohrdanz,  E. Rosta,  N. J. Russ,  H. F. Schaefer III,  
 M. W. Schmidt,  N. E. Schultz,  S. Sharma,  N. Shenvi,  C. D. Sherrill,  
 A. C. Simmonett,  A. Sodt,  T. Stein,  D. Stuck,  K. S. Thanthiriwatte,  
 V. Vanovschi,  L. Vogt,  Tao Wang,  A. Warshel,  M. A. Watson,  
 C. F. Williams,  Q. Wu,  X. Xu,  Jun Yang,  W. Zhang,  Yan Zhao

 Please cite Q-Chem as follows:
 Y. Shao et al., Mol. Phys. 113, 184-215 (2015)
 DOI: 10.1080/00268976.2014.952696

 Q-Chem 5.4.1 for Intel X86 EM64T Linux

 Parts of Q-Chem use Armadillo 9.800.1 (Horizon Scraper).
 http://arma.sourceforge.net/

 Q-Chem begins on Thu Nov 17 15:42:27 2022  

 Host: cpu197.baobab
0

     Scratch files written to /scratch/fum/qchem4515//
 Processing $rem in /home/share/wesolowski/qc5.aug2021.FDE/config/preferences:
 Processing $rem in /home/fum/.qchemrc:

 Checking the input file for inconsistencies... 	...done.

--------------------------------------------------------------
User input:
--------------------------------------------------------------
$comment
generated from CCJob.Templates
$end

$rem
sym_ignore = true
method = adc(2)
ee_states = 10
basis = cc-pVDZ
mem_static = 1024
mem_total = 40000
adc_davidson_maxiter = 900
adc_davidson_conv = 6
adc_print = 3
adc_prop_es = true
adc_prop_es2es = true
adc_prop_tpa = true
molden_format = True
state_analysis = true
print_orbitals = 15
gen_scfman = false
fde_export_density = true
fde_details = 3
$end

$molecule
0 1
H -0.0348278765 -0.2442097827 0.0636489606
C -1.0765972949 -0.5242748755 -0.0023551776
H -1.313264467 -1.5767591607 -0.08572769259999999
C -2.043634118 0.3926884087 0.0061254933
H -1.8137616575 1.4459188338 0.0804456828
H -3.085977293 0.114931858 -0.0593381042                     
$end
--------------------------------------------------------------
 ----------------------------------------------------------------
             Standard Nuclear Orientation (Angstroms)
    I     Atom           X                Y                Z
 ----------------------------------------------------------------
    1      H      -0.0348278765    -0.2442097827     0.0636489606
    2      C      -1.0765972949    -0.5242748755    -0.0023551776
    3      H      -1.3132644670    -1.5767591607    -0.0857276926
    4      C      -2.0436341180     0.3926884087     0.0061254933
    5      H      -1.8137616575     1.4459188338     0.0804456828
    6      H      -3.0859772930     0.1149318580    -0.0593381042
 ----------------------------------------------------------------
 Nuclear Repulsion Energy =          33.42123039 hartrees
 There are        8 alpha and        8 beta electrons
 Requested basis set is cc-pVDZ
 There are 24 shells and 48 basis functions
 Total memory of 40000 MB is distributed as follows: 
   MEM_STATIC is set to 1024 MB
   QALLOC/CCMAN JOB total memory use is  38976 MB
 Warning: actual memory use might exceed 40000 MB

 Total QAlloc Memory Limit  40000 MB
 Mega-Array Size      1001 MB
 MEM_STATIC part      1024 MB

                       Distance Matrix (Angstroms)
             H (  1)   C (  2)   H (  3)   C (  4)   H (  5)
   C (  2)  1.080776
   H (  3)  1.852674  1.081982
   C (  4)  2.108139  1.332687  2.102522
   H (  5)  2.453859  2.105215  3.068337  1.080583
   H (  6)  3.074674  2.109370  2.450515  1.080700  1.846510

 A cutoff of  1.0D-11 yielded    300 shell pairs
 There are      1220 function pairs (      1329 Cartesian)
 Smallest overlap matrix eigenvalue = 4.80E-03

 Scale SEOQF with 1.000000e-01/1.000000e-01/1.000000e+00

 Standard Electronic Orientation quadrupole field applied
 Nucleus-field energy     =     0.0000000022 hartrees
 Guess from superposition of atomic densities
 Warning:  Energy on first SCF cycle will be non-variational
 SAD guess density has 16.000000 electrons
 A restricted Hartree-Fock SCF calculation will be
 performed using Pulay DIIS extrapolation
 SCF converges when DIIS error is below 1.0E-08
 using 10 threads for integral computing
 -------------------------------------------------------
 OpenMP Integral computing Module                
 Release: version 1.0, May 2013, Q-Chem Inc. Pittsburgh 
 -------------------------------------------------------
 ---------------------------------------
  Cycle       Energy         DIIS Error
 ---------------------------------------
    1     -78.4383264398      1.01E-01
    2     -78.0176871470      7.21E-03
    3     -78.0383173363      1.84E-03
    4     -78.0398002174      5.73E-04
    5     -78.0399218402      5.80E-05
    6     -78.0399237162      9.42E-06
    7     -78.0399237771      2.44E-06
    8     -78.0399237801      1.03E-06
    9     -78.0399237805      9.24E-08
   10     -78.0399237805      1.32E-08
   11     -78.0399237805      3.77E-09 Convergence criterion met
 ---------------------------------------
 SCF time:  CPU 1.52 s  wall 2.13 s
 SCF   energy in the final basis set = -78.03992378
 Total energy in the final basis set = -78.03992378
Exporting Density Matrix to file 'Densmat_SCF.txt'.
Export successful
================================================================================
|                                                                              |
|                                 A D C  M A N                                 |
|                                                                              |
 ------------------------------------------------------------------------------ 
|                                                                              |
| Components:                                                                  |
|                                                                              |
| - libvmm - 1.3-trunk                                                         |
|   Authors:                                                                   |
|   Evgeny Epifanovsky, Ilya Kaliman                                           |
|                                                                              |
| - libtensor - 2.5-trunk                                                      |
|   Authors:                                                                   |
|   Evgeny Epifanovsky, Michael Wormit, Dmitry Zuev, Sam Manzer,               |
|   Ilya Kaliman                                                               |
|                                                                              |
| - libwfa - 1.1-trunk                                                         |
|   Authors:                                                                   |
|   Felix Plasser, Stefanie Mewes (Baeppler), Benjamin Thomitzni,              |
|   Michael Wormit, Feng Chen, Anna I. Krylov, Pavel Pokhilko                  |
|                                                                              |
| - libadc - 1.1-trunk                                                         |
|   Authors:                                                                   |
|   Michael Wormit, Adrian L. Dempwolff, Philipp H. P. Harbach,                |
|   Caroline Krauter, Dirk Rehn, Matthias Schneider, Jan Wenzel                |
|                                                                              |
| - adcman - 2.6-trunk                                                         |
|   Authors:                                                                   |
|   Michael Wormit, Adrian L. Dempwolff, Philipp H. P. Harbach,                |
|   Caroline Krauter, Daniel Lefrancois, Jan-Michael Mewes, Dirk Rehn,         |
|   Matthias Schneider, Jan Wenzel, Andreas Dreuw                              |
|                                                                              |
| Authors of earlier versions of ADCMAN:                                       |
| Andreas Dreuw, Jan Hendrik Starcke, Dirk Rehn, Michael Wormit                |
|                                                                              |
================================================================================

 Created directory /scratch/fum/qchem4515/plots
  Import QC data ...  CPU 0.00 s  wall 0.00 s

 Alpha MOs, Restricted
 -- Occupied --                  
-11.235 -11.233  -1.032  -0.790  -0.641  -0.582  -0.505  -0.374
  1 A     2 A     3 A     4 A     5 A     6 A     7 A     8 A                  
 -- Virtual --                   
  0.168   0.204   0.233   0.239   0.303   0.462   0.577   0.615
  9 A    10 A    11 A    12 A    13 A    14 A    15 A    16 A                  
  0.689   0.709   0.784   0.808   0.862   0.936   0.972   1.010
 17 A    18 A    19 A    20 A    21 A    22 A    23 A    24 A                  
  1.130   1.235   1.254   1.266   1.293   1.601   1.726   1.750
 25 A    26 A    27 A    28 A    29 A    30 A    31 A    32 A                  
  1.819   1.859   1.867   1.921   1.977   1.978   2.221   2.257
 33 A    34 A    35 A    36 A    37 A    38 A    39 A    40 A                  
  2.376   2.454   2.506   2.633   2.721   2.821   3.140   3.398
 41 A    42 A    43 A    44 A    45 A    46 A    47 A    48 A                  

 Beta MOs, Restricted
 -- Occupied --                  
-11.235 -11.233  -1.032  -0.790  -0.641  -0.582  -0.505  -0.374
  1 A     2 A     3 A     4 A     5 A     6 A     7 A     8 A                  
 -- Virtual --                   
  0.168   0.204   0.233   0.239   0.303   0.462   0.577   0.615
  9 A    10 A    11 A    12 A    13 A    14 A    15 A    16 A                  
  0.689   0.709   0.784   0.808   0.862   0.936   0.972   1.010
 17 A    18 A    19 A    20 A    21 A    22 A    23 A    24 A                  
  1.130   1.235   1.254   1.266   1.293   1.601   1.726   1.750
 25 A    26 A    27 A    28 A    29 A    30 A    31 A    32 A                  
  1.819   1.859   1.867   1.921   1.977   1.978   2.221   2.257
 33 A    34 A    35 A    36 A    37 A    38 A    39 A    40 A                  
  2.376   2.454   2.506   2.633   2.721   2.821   3.140   3.398
 41 A    42 A    43 A    44 A    45 A    46 A    47 A    48 A                  
  Import AO data ...  CPU 0.00 s  wall 0.01 s
  Using point group: C1
  Irreducible representations in point group: A
  Molecular orbitals: 
  Occupied MOs:
  Block   0:   1 (  A) A   2 (  A) A   3 (  A) A   4 (  A) A   5 (  A) A
                  -11.24      -11.23      -1.032     -0.7897     -0.6411
               6 (  A) A   7 (  A) A   8 (  A) A
                 -0.5819     -0.5046      -0.374
  Block   1:   1 (  A) B   2 (  A) B   3 (  A) B   4 (  A) B   5 (  A) B
                  -11.24      -11.23      -1.032     -0.7897     -0.6411
               6 (  A) B   7 (  A) B   8 (  A) B
                 -0.5819     -0.5046      -0.374
  Virtual MOs:
  Block   0:   9 (  A) A  10 (  A) A  11 (  A) A  12 (  A) A  13 (  A) A
                  0.1684      0.2036      0.2329      0.2394      0.3033
              14 (  A) A  15 (  A) A  16 (  A) A  17 (  A) A  18 (  A) A
                   0.462      0.5775      0.6152      0.6891      0.7088
              19 (  A) A  20 (  A) A  21 (  A) A  22 (  A) A
                  0.7844       0.808      0.8622      0.9358
  Block   1:  23 (  A) A  24 (  A) A  25 (  A) A  26 (  A) A  27 (  A) A
                  0.9724        1.01        1.13       1.235       1.254
              28 (  A) A  29 (  A) A  30 (  A) A  31 (  A) A  32 (  A) A
                   1.266       1.293       1.601       1.726        1.75
              33 (  A) A  34 (  A) A  35 (  A) A  36 (  A) A
                   1.819       1.859       1.867       1.921
  Block   2:  37 (  A) A  38 (  A) A  39 (  A) A  40 (  A) A  41 (  A) A
                   1.977       1.978       2.221       2.257       2.376
              42 (  A) A  43 (  A) A  44 (  A) A  45 (  A) A  46 (  A) A
                   2.454       2.506       2.633       2.721       2.821
              47 (  A) A  48 (  A) A
                    3.14       3.398
  Block   3:   9 (  A) B  10 (  A) B  11 (  A) B  12 (  A) B  13 (  A) B
                  0.1684      0.2036      0.2329      0.2394      0.3033
              14 (  A) B  15 (  A) B  16 (  A) B  17 (  A) B  18 (  A) B
                   0.462      0.5775      0.6152      0.6891      0.7088
              19 (  A) B  20 (  A) B  21 (  A) B  22 (  A) B
                  0.7844       0.808      0.8622      0.9358
  Block   4:  23 (  A) B  24 (  A) B  25 (  A) B  26 (  A) B  27 (  A) B
                  0.9724        1.01        1.13       1.235       1.254
              28 (  A) B  29 (  A) B  30 (  A) B  31 (  A) B  32 (  A) B
                   1.266       1.293       1.601       1.726        1.75
              33 (  A) B  34 (  A) B  35 (  A) B  36 (  A) B
                   1.819       1.859       1.867       1.921
  Block   5:  37 (  A) B  38 (  A) B  39 (  A) B  40 (  A) B  41 (  A) B
                   1.977       1.978       2.221       2.257       2.376
              42 (  A) B  43 (  A) B  44 (  A) B  45 (  A) B  46 (  A) B
                   2.454       2.506       2.633       2.721       2.821
              47 (  A) B  48 (  A) B
                    3.14       3.398
  Import MO data ...  CPU 0.01 s  wall 0.02 s
  Import HF data ...  CPU 0.08 s  wall 0.04 s
  Import 2e integrals ...  CPU 0.67 s  wall 0.13 s

--------------------------------------------------------------------------------
                                   HF Summary                                   
--------------------------------------------------------------------------------
  Energy:                                                  -78.0399237805 a.u.
  Dip. moment [a.u.]:                  [  -0.000614,    0.001020,   -0.002262]
  Total dipole [Debye]:                                               0.006497
  <r^2> [a.u.]:                        [ 175.320665,   34.920621,   11.631276]
  Total <r^2> [a.u.]:                                               221.872563
--------------------------------------------------------------------------------
  HF properties ...  CPU 0.01 s  wall 0.02 s
  MP(1) calculation ...  CPU 0.01 s  wall 0.01 s
  N^6 prerequesite intermediates ...  CPU 0.51 s  wall 0.09 s
  Difference density matrix of state mp2_gs printed to ASCII file 'State_mp2_gs_Difference.txt'
Exporting MP density matrix to file 'Densmat_MP.txt'.
Export successful
  Total density matrix of state mp2_gs printed to ASCII file 'State_mp2_gs_Total.txt'
Exporting MP density matrix to file 'Densmat_MP.txt'.
Export successful

--------------------------------------------------------------------------------
                                 MP(2) Summary                                  
--------------------------------------------------------------------------------
  MP energy contribution:                                   -0.2797154189 a.u.
  Total energy:                                            -78.3196391995 a.u.
  Dip. moment [a.u.]:                  [  -0.000610,    0.000893,   -0.002240]
  Total dipole [Debye]:                                               0.006322
  <r^2> [a.u.]:                        [ 175.367302,   34.961030,   11.463141]
  Total <r^2> [a.u.]:                                               221.791472

  Density matrix analysis:
  ------------------------
  NOs
    Occupation of frontier NOs:
       0.0453   1.9383
    Number of electrons: 16.000000
    Number of unpaired electrons: n_u =  0.40347, n_u,nl =  0.04509
    NO participation ratio (PR_NO): 13.858105
  
  
  Mulliken Population Analysis
  Atom      Charge (e)              h+              e-           Del q
  --------------------------------------------------------------------
   1 H        0.050987        0.014028       -0.011205        0.002823
   2 C       -0.101076        0.093278       -0.098866       -0.005588
   3 H        0.050734        0.014062       -0.011195        0.002868
   4 C       -0.101338        0.092968       -0.098901       -0.005933
   5 H        0.050132        0.014123       -0.011184        0.002938
   6 H        0.050561        0.014084       -0.011192        0.002892
  --------------------------------------------------------------------
  Sum:       -0.000000        0.242543       -0.242543       -0.000000
  
  Multipole moment analysis of the density matrix
    Molecular charge:                      0.000000
    Number of electrons:                   16.000000
      Center of electronic charge [Ang]: [ -1.560556,  -0.065632,   0.001427]
    Total nuclear charge:                  16.000000
      Center of nuclear charge [Ang]:    [ -1.560576,  -0.065602,   0.001353]
    Dipole moment [D]:                     0.006322
      Cartesian components [D]:          [ -0.001550,   0.002269,  -0.005693]
    RMS size of the density [Ang]:         1.200875
      Cartesian components [Ang]:        [  0.796182,   0.779470,   0.447910]
  
  Exciton analysis of the difference density matrix
    <r_h> [Ang]:                  [ -1.560398,  -0.066043,   0.001777]
    <r_e> [Ang]:                  [ -1.560408,  -0.065765,   0.001729]
    |<r_e - r_h>| [Ang]:            0.000282
    Hole size [Ang]:                1.393778
      Cartesian components [Ang]: [  0.846646,   0.834287,   0.727855]
    Electron size [Ang]:            1.359779
      Cartesian components [Ang]: [  0.877851,   0.861815,   0.579354]
--------------------------------------------------------------------------------
  MP(2) calculation ...  CPU 0.13 s  wall 0.11 s
  Start ADC(2)-s ...  CPU 0.01 s  wall 0.01 s
  ADC(2) intermediates ...  CPU 0.02 s  wall 0.01 s
  Starting Davidson for singlet states of irrep A ... 
--------------------------------------------------------------------------------
   It NVec Conv  Avg. Norm  Max. Norm  Conv. states           Remark
--------------------------------------------------------------------------------
        10    0  1.330e-01  4.687e-01  0.4119 n n n n n n n n Guess.
    1   20    0  2.305e-02  1.109e-01  0.3262 n n n n n n n n 
    2   30    0  5.896e-03  2.553e-02  0.3215 n n n n n n n n 
    3   40    0  2.047e-03  1.275e-02  0.3211 n n n n n n n n 
    4   50    0  5.492e-04  3.379e-03  0.3211 n n n n n n n n 
    5   20    0  2.638e-04  1.751e-03  0.3211 n n n n n n n n Subspace collapsed.
    6   30    0  1.598e-04  1.263e-03  0.3211 n n n n n n n n 
    7   40    0  1.312e-04  9.987e-04  0.3211 n n n n n n n n 
    8   50    0  1.292e-04  1.199e-03  0.3211 n n n n n n n n 
    9   20    1  5.785e-05  4.869e-04  0.3211 n y n n n n n n Subspace collapsed.
   10   30    3  4.823e-05  4.178e-04  0.3211 n y y y n n n n 
   11   40    4  2.921e-05  2.681e-04  0.3211 n y y y y n n n 
   12   50    6  3.444e-05  3.370e-04  0.3211 y y y y y y n n 
   13   20    6  2.103e-05  2.063e-04  0.3211 y y y y y y n n Subspace collapsed.
   14   30    6  2.599e-05  2.561e-04  0.3211 y y y y y y n n 
   15   40    6  2.276e-05  2.255e-04  0.3211 y y y y y y n n 
   16   50    6  2.856e-05  2.843e-04  0.3211 y y y y y y n n 
   17   20    6  1.256e-05  1.250e-04  0.3211 y y y y y y n n Subspace collapsed.
   18   30    7  1.337e-05  1.332e-04  0.3211 y y y y y y y n 
   19   40    7  7.713e-06  7.689e-05  0.3211 y y y y y y y n 
   20   50    7  1.294e-05  1.292e-04  0.3211 y y y y y y y n 
   21   20    8  5.054e-06  5.045e-05  0.3211 y y y y y y y y Subspace collapsed.
   22   30    8  6.981e-06  6.971e-05  0.3211 y y y y y y y y 
   23   40    8  5.706e-06  5.701e-05  0.3211 y y y y y y y y 
   24   41    8  5.828e-06  5.823e-05  0.3211 y y y y y y y y 
   25   50    8  7.867e-06  7.863e-05  0.3211 y y y y y y y y 
   26   17    8  3.569e-06  3.567e-05  0.3211 y y y y y y y y Subspace collapsed.
   27   24    8  3.500e-06  3.498e-05  0.3211 y y y y y y y y 
   28   31    9  2.055e-06  2.055e-05  0.3211 y y y y y y y y 
   29   36    9  2.986e-06  2.985e-05  0.3211 y y y y y y y y 
   30   41    9  3.258e-06  3.258e-05  0.3211 y y y y y y y y 
   31   45    9  2.487e-06  2.487e-05  0.3211 y y y y y y y y 
   32   49    9  1.135e-06  1.135e-05  0.3211 y y y y y y y y 
   33   50    9  1.128e-06  1.128e-05  0.3211 y y y y y y y y 
   34   14    9  4.898e-07  4.898e-06  0.3211 y y y y y y y y Subspace collapsed.
   35   18    9  3.337e-07  3.337e-06  0.3211 y y y y y y y y 
   36   22    9  2.069e-07  2.069e-06  0.3211 y y y y y y y y 
   37   26    9  1.298e-07  1.298e-06  0.3211 y y y y y y y y 
   38   30   10  8.303e-08  8.302e-07  0.3211 y y y y y y y y Converged.
--------------------------------------------------------------------------------
  Davidson Summary: 
 ------------------------------------------------------------
  State  0: excitation energy =   0.3211 a.u.   (converged)
  State  1: excitation energy =   0.3327 a.u.   (converged)
  State  2: excitation energy =   0.3370 a.u.   (converged)
  State  3: excitation energy =   0.3613 a.u.   (converged)
  State  4: excitation energy =   0.3753 a.u.   (converged)
  State  5: excitation energy =   0.3872 a.u.   (converged)
  State  6: excitation energy =   0.4246 a.u.   (converged)
  State  7: excitation energy =   0.4470 a.u.   (converged)
  State  8: excitation energy =   0.4563 a.u.   (converged)
  State  9: excitation energy =   0.4647 a.u.   (converged)
 ------------------------------------------------------------

  Singlet states of irrep A ...  CPU 91.38 s  wall 32.03 s
  TDMs ...  CPU 0.68 s  wall 0.28 s
  SDMs ...  CPU 1.50 s  wall 0.52 s
  Starting TPA DIIS iterations ... 
------------------------------------ 
   It     Res. Norm  Remark
------------------------------------
                       Guess.
    1     4.405e+00  
    2     5.840e+00  
    3     1.077e+00  
    4     2.566e-01  
    5     6.574e-02  
    6     2.674e-02  
    7     8.238e-03  
    8     1.439e-03  
    9     5.330e-04  
   10     9.173e-05  
   11     2.866e-05  
   12     5.699e-06  
   13     2.180e-06  
   14     1.082e-06  
   15     2.653e-07  Converged.
   ... Converged in 15 steps (norm: 2.65326e-07)
------------------------------------
  Starting TPA DIIS iterations ... 
------------------------------------ 
   It     Res. Norm  Remark
------------------------------------
                       Guess.
    1     4.184e+00  
    2     5.541e+00  
    3     1.030e+00  
    4     2.557e-01  
    5     6.534e-02  
    6     2.675e-02  
    7     8.116e-03  
    8     1.461e-03  
    9     5.387e-04  
   10     9.266e-05  
   11     2.909e-05  
   12     5.983e-06  
   13     2.028e-06  
   14     1.218e-06  
   15     2.613e-07  Converged.
   ... Converged in 15 steps (norm: 2.61291e-07)
------------------------------------
  Starting TPA DIIS iterations ... 
------------------------------------ 
   It     Res. Norm  Remark
------------------------------------
                       Guess.
    1     6.874e-01  
    2     4.818e-01  
    3     1.700e-01  
    4     4.794e-02  
    5     1.805e-02  
    6     7.082e-03  
    7     1.042e-03  
    8     4.488e-04  
    9     1.240e-04  
   10     2.965e-05  
   11     5.113e-06  
   12     1.521e-06  
   13     6.990e-07  Converged.
   ... Converged in 13 steps (norm: 6.99021e-07)
------------------------------------
  Starting TPA DIIS iterations ... 
------------------------------------ 
   It     Res. Norm  Remark
------------------------------------
                       Guess.
    1     4.692e+00  
    2     6.356e+00  
    3     1.158e+00  
    4     2.852e-01  
    5     7.407e-02  
    6     3.038e-02  
    7     9.343e-03  
    8     1.630e-03  
    9     6.080e-04  
   10     1.055e-04  
   11     3.329e-05  
   12     6.858e-06  
   13     2.661e-06  
   14     1.353e-06  
   15     3.183e-07  Converged.
   ... Converged in 15 steps (norm: 3.18264e-07)
------------------------------------
  Starting TPA DIIS iterations ... 
------------------------------------ 
   It     Res. Norm  Remark
------------------------------------
                       Guess.
    1     4.456e+00  
    2     6.030e+00  
    3     1.107e+00  
    4     2.839e-01  
    5     7.363e-02  
    6     3.042e-02  
    7     9.208e-03  
    8     1.656e-03  
    9     6.149e-04  
   10     1.067e-04  
   11     3.383e-05  
   12     7.245e-06  
   13     2.490e-06  
   14     1.548e-06  
   15     3.271e-07  Converged.
   ... Converged in 15 steps (norm: 3.27063e-07)
------------------------------------
  Starting TPA DIIS iterations ... 
------------------------------------ 
   It     Res. Norm  Remark
------------------------------------
                       Guess.
    1     6.994e-01  
    2     4.990e-01  
    3     1.798e-01  
    4     5.370e-02  
    5     1.970e-02  
    6     7.695e-03  
    7     1.176e-03  
    8     5.289e-04  
    9     1.498e-04  
   10     3.396e-05  
   11     5.790e-06  
   12     1.788e-06  
   13     8.734e-07  Converged.
   ... Converged in 13 steps (norm: 8.73411e-07)
------------------------------------
  Starting TPA DIIS iterations ... 
------------------------------------ 
   It     Res. Norm  Remark
------------------------------------
                       Guess.
    1     4.805e+00  
    2     6.561e+00  
    3     1.190e+00  
    4     2.967e-01  
    5     7.743e-02  
    6     3.186e-02  
    7     9.789e-03  
    8     1.707e-03  
    9     6.384e-04  
   10     1.110e-04  
   11     3.520e-05  
   12     7.349e-06  
   13     2.866e-06  
   14     1.471e-06  
   15     3.403e-07  Converged.
   ... Converged in 15 steps (norm: 3.4029e-07)
------------------------------------
  Starting TPA DIIS iterations ... 
------------------------------------ 
   It     Res. Norm  Remark
------------------------------------
                       Guess.
    1     4.563e+00  
    2     6.224e+00  
    3     1.137e+00  
    4     2.953e-01  
    5     7.698e-02  
    6     3.191e-02  
    7     9.649e-03  
    8     1.735e-03  
    9     6.458e-04  
   10     1.124e-04  
   11     3.578e-05  
   12     7.784e-06  
   13     2.691e-06  
   14     1.692e-06  
   15     3.561e-07  Converged.
   ... Converged in 15 steps (norm: 3.56071e-07)
------------------------------------
  Starting TPA DIIS iterations ... 
------------------------------------ 
   It     Res. Norm  Remark
------------------------------------
                       Guess.
    1     7.038e-01  
    2     5.056e-01  
    3     1.836e-01  
    4     5.607e-02  
    5     2.032e-02  
    6     7.940e-03  
    7     1.231e-03  
    8     5.623e-04  
    9     1.605e-04  
   10     3.539e-05  
   11     6.059e-06  
   12     1.900e-06  
   13     9.501e-07  Converged.
   ... Converged in 13 steps (norm: 9.50141e-07)
------------------------------------
  Starting TPA DIIS iterations ... 
------------------------------------ 
   It     Res. Norm  Remark
------------------------------------
                       Guess.
    1     5.544e+00  
    2     7.940e+00  
    3     1.397e+00  
    4     3.768e-01  
    5     1.008e-01  
    6     4.223e-02  
    7     1.289e-02  
    8     2.238e-03  
    9     8.514e-04  
   10     1.506e-04  
   11     4.893e-05  
   12     1.111e-05  
   13     4.453e-06  
   14     2.416e-06  
   15     5.038e-07  Converged.
   ... Converged in 15 steps (norm: 5.03752e-07)
------------------------------------
  Starting TPA DIIS iterations ... 
------------------------------------ 
   It     Res. Norm  Remark
------------------------------------
                       Guess.
    1     5.263e+00  
    2     7.531e+00  
    3     1.334e+00  
    4     3.743e-01  
    5     1.002e-01  
    6     4.236e-02  
    7     1.272e-02  
    8     2.282e-03  
    9     8.627e-04  
   10     1.528e-04  
   11     4.996e-05  
   12     1.197e-05  
   13     4.320e-06  
   14     2.882e-06  
   15     5.991e-07  Converged.
   ... Converged in 15 steps (norm: 5.99145e-07)
------------------------------------
  Starting TPA DIIS iterations ... 
------------------------------------ 
   It     Res. Norm  Remark
------------------------------------
                       Guess.
    1     7.305e-01  
    2     5.464e-01  
    3     2.077e-01  
    4     7.319e-02  
    5     2.422e-02  
    6     9.631e-03  
    7     1.631e-03  
    8     8.006e-04  
    9     2.358e-04  
   10     4.121e-05  
   11     7.895e-06  
   12     2.726e-06  
   13     1.583e-06  
   14     5.931e-07  Converged.
   ... Converged in 14 steps (norm: 5.9306e-07)
------------------------------------
  Starting TPA DIIS iterations ... 
------------------------------------ 
   It     Res. Norm  Remark
------------------------------------
                       Guess.
    1     6.055e+00  
    2     8.925e+00  
    3     1.539e+00  
    4     4.362e-01  
    5     1.181e-01  
    6     5.001e-02  
    7     1.520e-02  
    8     2.632e-03  
    9     1.011e-03  
   10     1.805e-04  
   11     5.960e-05  
   12     1.430e-05  
   13     5.801e-06  
   14     3.263e-06  
   15     6.393e-07  Converged.
   ... Converged in 15 steps (norm: 6.39256e-07)
------------------------------------
  Starting TPA DIIS iterations ... 
------------------------------------ 
   It     Res. Norm  Remark
------------------------------------
                       Guess.
    1     5.747e+00  
    2     8.466e+00  
    3     1.470e+00  
    4     4.328e-01  
    5     1.175e-01  
    6     5.022e-02  
    7     1.500e-02  
    8     2.687e-03  
    9     1.026e-03  
   10     1.837e-04  
   11     6.109e-05  
   12     1.557e-05  
   13     5.809e-06  
   14     3.973e-06  
   15     8.300e-07  Converged.
   ... Converged in 15 steps (norm: 8.29995e-07)
------------------------------------
  Starting TPA DIIS iterations ... 
------------------------------------ 
   It     Res. Norm  Remark
------------------------------------
                       Guess.
    1     7.467e-01  
    2     5.726e-01  
    3     2.238e-01  
    4     8.658e-02  
    5     2.677e-02  
    6     1.089e-02  
    7     1.945e-03  
    8     9.731e-04  
    9     2.893e-04  
   10     4.264e-05  
   11     9.265e-06  
   12     3.390e-06  
   13     2.165e-06  
   14     7.681e-07  Converged.
   ... Converged in 14 steps (norm: 7.6814e-07)
------------------------------------
  Starting TPA DIIS iterations ... 
------------------------------------ 
   It     Res. Norm  Remark
------------------------------------
                       Guess.
    1     6.555e+00  
    2     9.915e+00  
    3     1.677e+00  
    4     4.973e-01  
    5     1.359e-01  
    6     5.809e-02  
    7     1.757e-02  
    8     3.035e-03  
    9     1.177e-03  
   10     2.119e-04  
   11     7.092e-05  
   12     1.790e-05  
   13     7.323e-06  
   14     4.265e-06  
   15     7.950e-07  Converged.
   ... Converged in 15 steps (norm: 7.94987e-07)
------------------------------------
  Starting TPA DIIS iterations ... 
------------------------------------ 
   It     Res. Norm  Remark
------------------------------------
                       Guess.
    1     6.220e+00  
    2     9.404e+00  
    3     1.601e+00  
    4     4.930e-01  
    5     1.352e-01  
    6     5.839e-02  
    7     1.734e-02  
    8     3.103e-03  
    9     1.195e-03  
   10     2.160e-04  
   11     7.300e-05  
   12     1.970e-05  
   13     7.610e-06  
   14     5.281e-06  
   15     1.116e-06  
   16     8.187e-07  Converged.
   ... Converged in 16 steps (norm: 8.18709e-07)
------------------------------------
  Starting TPA DIIS iterations ... 
------------------------------------ 
   It     Res. Norm  Remark
------------------------------------
                       Guess.
    1     7.611e-01  
    2     5.969e-01  
    3     2.391e-01  
    4     1.009e-01  
    5     2.924e-02  
    6     1.220e-02  
    7     2.281e-03  
    8     1.137e-03  
    9     3.408e-04  
   10     4.336e-05  
   11     1.071e-05  
   12     4.116e-06  
   13     2.856e-06  
   14     9.652e-07  Converged.
   ... Converged in 14 steps (norm: 9.652e-07)
------------------------------------
  Starting TPA DIIS iterations ... 
------------------------------------ 
   It     Res. Norm  Remark
------------------------------------
                       Guess.
    1     8.659e+00  
    2     1.432e+01  
    3     2.250e+00  
    4     7.820e-01  
    5     2.189e-01  
    6     9.653e-02  
    7     2.862e-02  
    8     4.905e-03  
    9     1.962e-03  
   10     3.633e-04  
   11     1.266e-04  
   12     3.889e-05  
   13     1.591e-05  
   14     1.080e-05  
   15     1.798e-06  
   16     1.603e-06  
   17     3.508e-07  Converged.
   ... Converged in 17 steps (norm: 3.50805e-07)
------------------------------------
  Starting TPA DIIS iterations ... 
------------------------------------ 
   It     Res. Norm  Remark
------------------------------------
                       Guess.
    1     8.213e+00  
    2     1.358e+01  
    3     2.146e+00  
    4     7.723e-01  
    5     2.181e-01  
    6     9.731e-02  
    7     2.828e-02  
    8     5.042e-03  
    9     2.002e-03  
   10     3.738e-04  
   11     1.334e-04  
   12     4.442e-05  
   13     2.002e-05  
   14     1.380e-05  
   15     3.165e-06  
   16     1.924e-06  
   17     4.703e-07  Converged.
   ... Converged in 17 steps (norm: 4.70348e-07)
------------------------------------
  Starting TPA DIIS iterations ... 
------------------------------------ 
   It     Res. Norm  Remark
------------------------------------
                       Guess.
    1     8.105e-01  
    2     6.880e-01  
    3     2.994e-01  
    4     1.730e-01  
    5     4.020e-02  
    6     1.829e-02  
    7     3.958e-03  
    8     1.663e-03  
    9     5.392e-04  
   10     5.268e-05  
   11     1.794e-05  
   12     7.971e-06  
   13     7.062e-06  
   14     2.094e-06  
   15     7.639e-07  Converged.
   ... Converged in 15 steps (norm: 7.63854e-07)
------------------------------------
  Starting TPA DIIS iterations ... 
------------------------------------ 
   It     Res. Norm  Remark
------------------------------------
                       Guess.
    1     1.048e+01  
    2     1.842e+01  
    3     2.733e+00  
    4     1.057e+00  
    5     2.998e-01  
    6     1.349e-01  
    7     3.939e-02  
    8     6.715e-03  
    9     2.741e-03  
   10     5.175e-04  
   11     1.836e-04  
   12     6.562e-05  
   13     2.639e-05  
   14     2.036e-05  
   15     3.247e-06  
   16     3.122e-06  
   17     5.841e-07  Converged.
   ... Converged in 17 steps (norm: 5.84136e-07)
------------------------------------
  Starting TPA DIIS iterations ... 
------------------------------------ 
   It     Res. Norm  Remark
------------------------------------
                       Guess.
    1     9.943e+00  
    2     1.747e+01  
    3     2.606e+00  
    4     1.041e+00  
    5     2.988e-01  
    6     1.362e-01  
    7     3.894e-02  
    8     6.931e-03  
    9     2.812e-03  
   10     5.367e-04  
   11     1.986e-04  
   12     7.656e-05  
   13     3.906e-05  
   14     2.569e-05  
   15     6.297e-06  
   16     3.173e-06  
   17     8.401e-07  Converged.
   ... Converged in 17 steps (norm: 8.40057e-07)
------------------------------------
  Starting TPA DIIS iterations ... 
------------------------------------ 
   It     Res. Norm  Remark
------------------------------------
                       Guess.
    1     8.434e-01  
    2     7.563e-01  
    3     3.475e-01  
    4     2.474e-01  
    5     5.070e-02  
    6     2.394e-02  
    7     5.657e-03  
    8     1.883e-03  
    9     6.922e-04  
   10     7.090e-05  
   11     2.564e-05  
   12     1.230e-05  
   13     1.222e-05  
   14     3.491e-06  
   15     1.460e-06  
   16     9.904e-07  Converged.
   ... Converged in 16 steps (norm: 9.9044e-07)
------------------------------------
  Starting TPA DIIS iterations ... 
------------------------------------ 
   It     Res. Norm  Remark
------------------------------------
                       Guess.
    1     1.142e+01  
    2     2.062e+01  
    3     2.977e+00  
    4     1.206e+00  
    5     3.441e-01  
    6     1.561e-01  
    7     4.527e-02  
    8     7.702e-03  
    9     3.172e-03  
   10     6.042e-04  
   11     2.157e-04  
   12     8.273e-05  
   13     3.314e-05  
   14     2.693e-05  
   15     4.285e-06  
   16     4.149e-06  
   17     7.380e-07  Converged.
   ... Converged in 17 steps (norm: 7.3804e-07)
------------------------------------
  Starting TPA DIIS iterations ... 
------------------------------------ 
   It     Res. Norm  Remark
------------------------------------
                       Guess.
    1     1.083e+01  
    2     1.955e+01  
    3     2.838e+00  
    4     1.186e+00  
    5     3.430e-01  
    6     1.578e-01  
    7     4.477e-02  
    8     7.967e-03  
    9     3.263e-03  
   10     6.291e-04  
   11     2.368e-04  
   12     9.723e-05  
   13     5.223e-05  
   14     3.348e-05  
   15     8.330e-06  
   16     3.903e-06  
   17     1.040e-06  
   18     3.979e-07  Converged.
   ... Converged in 18 steps (norm: 3.97913e-07)
------------------------------------
  Starting TPA DIIS iterations ... 
------------------------------------ 
   It     Res. Norm  Remark
------------------------------------
                       Guess.
    1     8.578e-01  
    2     7.886e-01  
    3     3.710e-01  
    4     2.880e-01  
    5     5.638e-02  
    6     2.680e-02  
    7     6.582e-03  
    8     1.943e-03  
    9     7.666e-04  
   10     8.193e-05  
   11     3.008e-05  
   12     1.487e-05  
   13     1.535e-05  
   14     4.366e-06  
   15     1.990e-06  
   16     1.293e-06  
   17     6.567e-07  Converged.
   ... Converged in 17 steps (norm: 6.56718e-07)
------------------------------------
  Starting TPA DIIS iterations ... 
------------------------------------ 
   It     Res. Norm  Remark
------------------------------------
                       Guess.
    1     1.239e+01  
    2     2.294e+01  
    3     3.226e+00  
    4     1.363e+00  
    5     3.914e-01  
    6     1.790e-01  
    7     5.156e-02  
    8     8.754e-03  
    9     3.635e-03  
   10     6.983e-04  
   11     2.509e-04  
   12     1.029e-04  
   13     4.131e-05  
   14     3.489e-05  
   15     5.633e-06  
   16     5.415e-06  
   17     9.286e-07  Converged.
   ... Converged in 17 steps (norm: 9.28562e-07)
------------------------------------
  Starting TPA DIIS iterations ... 
------------------------------------ 
   It     Res. Norm  Remark
------------------------------------
                       Guess.
    1     1.175e+01  
    2     2.176e+01  
    3     3.074e+00  
    4     1.339e+00  
    5     3.901e-01  
    6     1.810e-01  
    7     5.099e-02  
    8     9.076e-03  
    9     3.751e-03  
   10     7.302e-04  
   11     2.799e-04  
   12     1.215e-04  
   13     6.806e-05  
   14     4.263e-05  
   15     1.061e-05  
   16     4.738e-06  
   17     1.240e-06  
   18     4.974e-07  Converged.
   ... Converged in 18 steps (norm: 4.97438e-07)
------------------------------------
  Starting TPA DIIS iterations ... 
------------------------------------ 
   It     Res. Norm  Remark
------------------------------------
                       Guess.
    1     8.714e-01  
    2     8.201e-01  
    3     3.943e-01  
    4     3.306e-01  
    5     6.238e-02  
    6     2.966e-02  
    7     7.558e-03  
    8     1.987e-03  
    9     8.412e-04  
   10     9.379e-05  
   11     3.500e-05  
   12     1.780e-05  
   13     1.891e-05  
   14     5.384e-06  
   15     2.667e-06  
   16     1.646e-06  
   17     8.792e-07  Converged.
   ... Converged in 17 steps (norm: 8.79206e-07)
------------------------------------
  Two-photon absorbption ...  CPU 76.42 s  wall 18.87 s
  Transition density matrix of state singlet_A_1 printed to ASCII file 'State_singlet_A_1_Transition.txt'
  Transition density matrix of state singlet_A_2 printed to ASCII file 'State_singlet_A_2_Transition.txt'
  Transition density matrix of state singlet_A_3 printed to ASCII file 'State_singlet_A_3_Transition.txt'
  Transition density matrix of state singlet_A_4 printed to ASCII file 'State_singlet_A_4_Transition.txt'
  Transition density matrix of state singlet_A_5 printed to ASCII file 'State_singlet_A_5_Transition.txt'
  Transition density matrix of state singlet_A_6 printed to ASCII file 'State_singlet_A_6_Transition.txt'
  Transition density matrix of state singlet_A_7 printed to ASCII file 'State_singlet_A_7_Transition.txt'
  Transition density matrix of state singlet_A_8 printed to ASCII file 'State_singlet_A_8_Transition.txt'
  Transition density matrix of state singlet_A_9 printed to ASCII file 'State_singlet_A_9_Transition.txt'
  Transition density matrix of state singlet_A_10 printed to ASCII file 'State_singlet_A_10_Transition.txt'
  Transition properties ...  CPU 0.16 s  wall 0.38 s
  Difference density matrix of state singlet_A_1 printed to ASCII file 'State_singlet_A_1_Difference.txt'
  Total density matrix of state singlet_A_1 printed to ASCII file 'State_singlet_A_1_Total.txt'
  Difference density matrix of state singlet_A_2 printed to ASCII file 'State_singlet_A_2_Difference.txt'
  Total density matrix of state singlet_A_2 printed to ASCII file 'State_singlet_A_2_Total.txt'
  Difference density matrix of state singlet_A_3 printed to ASCII file 'State_singlet_A_3_Difference.txt'
  Total density matrix of state singlet_A_3 printed to ASCII file 'State_singlet_A_3_Total.txt'
  Difference density matrix of state singlet_A_4 printed to ASCII file 'State_singlet_A_4_Difference.txt'
  Total density matrix of state singlet_A_4 printed to ASCII file 'State_singlet_A_4_Total.txt'
  Difference density matrix of state singlet_A_5 printed to ASCII file 'State_singlet_A_5_Difference.txt'
  Total density matrix of state singlet_A_5 printed to ASCII file 'State_singlet_A_5_Total.txt'
  Difference density matrix of state singlet_A_6 printed to ASCII file 'State_singlet_A_6_Difference.txt'
  Total density matrix of state singlet_A_6 printed to ASCII file 'State_singlet_A_6_Total.txt'
  Difference density matrix of state singlet_A_7 printed to ASCII file 'State_singlet_A_7_Difference.txt'
  Total density matrix of state singlet_A_7 printed to ASCII file 'State_singlet_A_7_Total.txt'
  Difference density matrix of state singlet_A_8 printed to ASCII file 'State_singlet_A_8_Difference.txt'
  Total density matrix of state singlet_A_8 printed to ASCII file 'State_singlet_A_8_Total.txt'
  Difference density matrix of state singlet_A_9 printed to ASCII file 'State_singlet_A_9_Difference.txt'
  Total density matrix of state singlet_A_9 printed to ASCII file 'State_singlet_A_9_Total.txt'
  Difference density matrix of state singlet_A_10 printed to ASCII file 'State_singlet_A_10_Difference.txt'
  Total density matrix of state singlet_A_10 printed to ASCII file 'State_singlet_A_10_Total.txt'
  Properties ...  CPU 0.31 s  wall 0.64 s
  ISR TDMS ...  CPU 9.18 s  wall 3.20 s
  ISR transition properties ...  CPU 0.17 s  wall 0.08 s
  Sum-over-states TPA ...  CPU 0.00 s  wall 0.00 s

--------------------------------------------------------------------------------
                   State-averaged natural transition orbitals
--------------------------------------------------------------------------------
--------------------------------------------------------------------------------
  SA-NTO decomposition ...  CPU 0.01 s  wall 0.02 s

--------------------------------------------------------------------------------
                             Excited State Summary
--------------------------------------------------------------------------------
--------------------------------------------------------------------------------

  Excited state 1 (singlet, A)                                     [converged]
  ----------------------------------------------------------------------------
  Term symbol:  2 (1) A                                     R^2 =  3.21310e-13

  Total energy:                                            -77.9985734915 a.u.
  Excitation energy:                                               8.736642 eV

  Osc. strength:                                                      0.445002
  Trans. dip. moment [a.u.]:           [  -1.044771,    0.993680,    0.008732]
  <i|r^2|0> [a.u.]:                    [  -6.159442,    0.252338,   -0.005695]
  Two-photon absorption cross-section (SoS) [a.u.]:                   0.000574
  Two-photon absorption matrix (SoS) [a.u.]:
                                       |   -0.004928    0.002717   -0.001662 |
                                       |    0.002717   -0.001202    0.001590 |
                                       |   -0.001662    0.001590   -0.005259 |
  Two-photon absorption cross-section [a.u.]:                         0.005686
  Two-photon absorption matrix [a.u.]:
                                       |   -0.001047    0.001426    0.013981 |
                                       |    0.001426    0.003354    0.022493 |
                                       |    0.013981    0.022493   -0.000157 |

  Dip. moment [a.u.]:                  [  -0.000499,    0.000799,   -0.002796]
  Total dipole [Debye]:                                               0.007498
  <r^2> [a.u.]:                        [ 176.119878,   35.648204,   11.874765]
  Total <r^2> [a.u.]:                                               223.642847

  V1^2 = 0.9714, V2^2 = 0.0286

  Important amplitudes:
      occ i     occ j     vir a      vir b          v   
    -----------------------------------------------------
     8 (A) A              9 (A) A                -0.6807
     6 (A) A             14 (A) A                 0.0623
     4 (A) A             10 (A) A                 0.0606
     7 (A) A             16 (A) A                -0.0569
     5 (A) A             13 (A) A                 0.0513
     6 (A) A             23 (A) A                 0.0486
     8 (A) A             20 (A) A                -0.0349
     6 (A) A             19 (A) A                 0.0308
     3 (A) A             12 (A) A                -0.0281
     7 (A) A              9 (A) A                -0.0216
     5 (A) A             22 (A) A                -0.0215
     7 (A) A             11 (A) A                -0.0209
     4 (A) A             24 (A) A                 0.0187
     3 (A) A             26 (A) A                 0.0185
     8 (A) A   8 (A) B   17 (A) A   20 (A) B      0.0184
     8 (A) A   8 (A) B    9 (A) A   28 (A) B      0.0167
     6 (A) A             26 (A) A                 0.0163
     7 (A) A             21 (A) A                -0.0148
     3 (A) A             14 (A) A                 0.0139
     6 (A) A             12 (A) A                 0.0132
     3 (A) A   4 (A) B    9 (A) A    9 (A) B     -0.0129
     3 (A) A             19 (A) A                 0.0119
     8 (A) A   8 (A) B   18 (A) A   19 (A) B     -0.0113
     7 (A) A             32 (A) A                -0.0096
     7 (A) A             36 (A) A                -0.0086
     3 (A) A             23 (A) A                 0.0080
     8 (A) A   8 (A) B   25 (A) A   29 (A) B     -0.0076
     6 (A) A             35 (A) A                 0.0072
     6 (A) A             40 (A) A                 0.0068
     3 (A) A   6 (A) B    9 (A) A   28 (A) B      0.0064
     6 (A) A   8 (A) A   19 (A) A   28 (A) A      0.0060
     5 (A) A   7 (A) B    9 (A) A    9 (A) B      0.0060
     5 (A) A   8 (A) B   11 (A) A   20 (A) B      0.0059
     7 (A) A   8 (A) B   13 (A) A   20 (A) B     -0.0059
     5 (A) A   8 (A) B   16 (A) A    9 (A) B      0.0059
     5 (A) A   8 (A) B   11 (A) A    9 (A) B     -0.0059
     3 (A) A   5 (A) B    9 (A) A   25 (A) B      0.0058
     3 (A) A             40 (A) A                 0.0057
     7 (A) A   8 (A) B   22 (A) A   20 (A) B      0.0057
     6 (A) A   8 (A) A    9 (A) A   18 (A) A      0.0057
    -----------------------------------------------------

  Density matrix analysis:
  ------------------------
  NOs
    Occupation of frontier NOs:
       0.9496   1.0217
    Number of electrons: 16.000000
    Number of unpaired electrons: n_u =  2.31348, n_u,nl =  2.03265
    NO participation ratio (PR_NO):  2.863882
  
  
  Mulliken Population Analysis
  Atom      Charge (e)              h+              e-           Del q
  --------------------------------------------------------------------
   1 H        0.058854        0.020417       -0.012550        0.007867
   2 C       -0.116545        0.490581       -0.506049       -0.015468
   3 H        0.058430        0.020295       -0.012600        0.007696
   4 C       -0.117152        0.490406       -0.506220       -0.015814
   5 H        0.057937        0.020359       -0.012553        0.007805
   6 H        0.058476        0.020425       -0.012510        0.007915
  --------------------------------------------------------------------
  Sum:       -0.000000        1.062482       -1.062482       -0.000000
  
  Multipole moment analysis of the density matrix
    Molecular charge:                      -0.000000
    Number of electrons:                   16.000000
      Center of electronic charge [Ang]: [ -1.560560,  -0.065629,   0.001446]
    Total nuclear charge:                  16.000000
      Center of nuclear charge [Ang]:    [ -1.560576,  -0.065602,   0.001353]
    Dipole moment [D]:                     0.007498
      Cartesian components [D]:          [ -0.001268,   0.002032,  -0.007106]
    RMS size of the density [Ang]:         1.214287
      Cartesian components [Ang]:        [  0.804404,   0.787147,   0.455881]
  
  Exciton analysis of the difference density matrix
    <r_h> [Ang]:                  [ -1.560244,  -0.065831,   0.002583]
    <r_e> [Ang]:                  [ -1.560299,  -0.065785,   0.002860]
    |<r_e - r_h>| [Ang]:            0.000286
    Hole size [Ang]:                1.285735
      Cartesian components [Ang]: [  0.728825,   0.713265,   0.783059]
    Electron size [Ang]:            1.463180
      Cartesian components [Ang]: [  0.854027,   0.830582,   0.849511]

  Transition density matrix analysis:
  -----------------------------------
  
  CT numbers (Mulliken)
    omega =     0.9535
    <Phe> =    -0.1605
  
  Exciton analysis of the transition density matrix
    Trans. dipole moment [D]:             1.832449
      Cartesian components [D]:         [ -1.327771,   1.262841,   0.011098]
    <r_h> [Ang]:                        [ -1.560090,  -0.065928,   0.002346]
    <r_e> [Ang]:                        [ -1.560339,  -0.065801,   0.003030]
    |<r_e - r_h>| [Ang]:                  0.000738
    Hole size [Ang]:                      1.214587
      Cartesian components [Ang]:       [  0.650154,   0.637304,   0.803967]
    Electron size [Ang]:                  1.485977
      Cartesian components [Ang]:       [  0.864435,   0.839473,   0.869577]
    RMS electron-hole separation [Ang]:   1.936885
      Cartesian components [Ang]:       [  1.106994,   1.075680,   1.170043]
    Covariance(r_h, r_e) [Ang^2]:        -0.034087
    Correlation coefficient:             -0.018886
    Center-of-mass size [Ang]:            0.950681
      Cartesian components [Ang]:       [  0.527840,   0.515911,   0.599178]

  Decomposition into state-averaged NTOs
    H- 0 -> L+ 0:  0.6696 ( 89.7%)
    H- 2 -> L+ 5: -0.0836 (  1.4%)
                   omega =  95.3%
  ----------------------------------------------------------------------------


  Excited state 2 (singlet, A)                                     [converged]
  ----------------------------------------------------------------------------
  Term symbol:  3 (1) A                                     R^2 =  4.47583e-13

  Total energy:                                            -77.9869116612 a.u.
  Excitation energy:                                               9.053977 eV

  Osc. strength:                                                      0.000584
  Trans. dip. moment [a.u.]:           [   0.036153,   -0.036187,   -0.004268]
  <i|r^2|0> [a.u.]:                    [   0.283761,    0.076249,   -0.155741]
  Two-photon absorption cross-section (SoS) [a.u.]:                   4.902302
  Two-photon absorption matrix (SoS) [a.u.]:
                                       |    0.061759    0.061070   -0.538567 |
                                       |    0.061070    0.060718   -0.554824 |
                                       |   -0.538567   -0.554824   -0.121848 |
  Two-photon absorption cross-section [a.u.]:                         0.082106
  Two-photon absorption matrix [a.u.]:
                                       |    0.021232   -0.006305    0.058404 |
                                       |   -0.006305   -0.036843    0.076097 |
                                       |    0.058404    0.076097    0.015338 |

  Dip. moment [a.u.]:                  [  -0.001936,    0.011141,   -0.004575]
  Total dipole [Debye]:                                               0.031006
  <r^2> [a.u.]:                        [ 174.537920,   33.976408,   13.174462]
  Total <r^2> [a.u.]:                                               221.688790

  V1^2 = 0.9542, V2^2 = 0.0458

  Important amplitudes:
      occ i     occ j     vir a      vir b          v   
    -----------------------------------------------------
     7 (A) A              9 (A) A                -0.6688
     8 (A) A             11 (A) A                -0.1484
     7 (A) A             20 (A) A                -0.0758
     5 (A) A   8 (A) B    9 (A) A    9 (A) B      0.0316
     8 (A) A             16 (A) A                 0.0274
     8 (A) A              9 (A) A                 0.0211
     8 (A) A             21 (A) A                -0.0176
     5 (A) A             28 (A) A                 0.0150
     4 (A) A   7 (A) B    9 (A) A   19 (A) B      0.0135
     5 (A) A   7 (A) B    9 (A) A   16 (A) B     -0.0134
     7 (A) A   8 (A) B   20 (A) A   17 (A) B      0.0105
     7 (A) A   8 (A) A    9 (A) A   28 (A) A     -0.0097
     5 (A) A   8 (A) B    9 (A) A   20 (A) B      0.0095
     4 (A) A   6 (A) B    9 (A) A   16 (A) B     -0.0091
     5 (A) A   6 (A) A    9 (A) A   23 (A) A      0.0091
     5 (A) A   6 (A) A    9 (A) A   14 (A) A      0.0089
     5 (A) A   6 (A) B    9 (A) A   19 (A) B      0.0087
     4 (A) A   5 (A) A    9 (A) A   10 (A) A     -0.0085
     8 (A) A   7 (A) B    9 (A) A   28 (A) B      0.0084
     6 (A) A   7 (A) B    9 (A) A   18 (A) B      0.0083
     5 (A) A   6 (A) B    9 (A) A   23 (A) B      0.0080
     3 (A) A   7 (A) B    9 (A) A   18 (A) B     -0.0080
     5 (A) A   7 (A) A    9 (A) A   16 (A) A     -0.0079
     4 (A) A   8 (A) B    9 (A) A   25 (A) B     -0.0077
     8 (A) A             10 (A) A                 0.0076
     7 (A) A   8 (A) B   17 (A) A   20 (A) B      0.0074
     4 (A) A   7 (A) B   19 (A) A    9 (A) B      0.0074
     5 (A) A   5 (A) B    9 (A) A   13 (A) B      0.0072
     7 (A) A   8 (A) B   19 (A) A   18 (A) B     -0.0072
     5 (A) A   8 (A) A    9 (A) A   20 (A) A      0.0069
     4 (A) A   5 (A) B    9 (A) A   18 (A) B      0.0068
     7 (A) A   7 (A) B   20 (A) A   22 (A) B      0.0065
     7 (A) A   8 (A) B   17 (A) A    9 (A) B      0.0065
     5 (A) A   6 (A) B    9 (A) A   14 (A) B      0.0063
     4 (A) A   7 (A) A    9 (A) A   19 (A) A      0.0061
     4 (A) A   5 (A) B   10 (A) A    9 (A) B      0.0061
     5 (A) A   7 (A) B   11 (A) A   20 (A) B      0.0060
     5 (A) A             38 (A) A                 0.0060
     4 (A) A   7 (A) B    9 (A) A   14 (A) B     -0.0060
     4 (A) A   8 (A) A    9 (A) A   25 (A) A     -0.0057
    -----------------------------------------------------

  Density matrix analysis:
  ------------------------
  NOs
    Occupation of frontier NOs:
       0.9578   1.0539
    Number of electrons: 16.000000
    Number of unpaired electrons: n_u =  2.35531, n_u,nl =  2.06285
    NO participation ratio (PR_NO):  3.028438
  
  
  Mulliken Population Analysis
  Atom      Charge (e)              h+              e-           Del q
  --------------------------------------------------------------------
   1 H        0.149060        0.121160       -0.023087        0.098073
   2 C       -0.301808        0.271145       -0.471877       -0.200732
   3 H        0.151968        0.127279       -0.026045        0.101234
   4 C       -0.302064        0.273225       -0.473951       -0.200726
   5 H        0.154629        0.127719       -0.023223        0.104497
   6 H        0.148216        0.123232       -0.025577        0.097655
  --------------------------------------------------------------------
  Sum:       -0.000000        1.043759       -1.043759       -0.000000
  
  Multipole moment analysis of the density matrix
    Molecular charge:                      -0.000000
    Number of electrons:                   16.000000
      Center of electronic charge [Ang]: [ -1.560512,  -0.065971,   0.001504]
    Total nuclear charge:                  16.000000
      Center of nuclear charge [Ang]:    [ -1.560576,  -0.065602,   0.001353]
    Dipole moment [D]:                     0.031006
      Cartesian components [D]:          [ -0.004920,   0.028318,  -0.011629]
    RMS size of the density [Ang]:         1.200165
      Cartesian components [Ang]:        [  0.787100,   0.768307,   0.480182]
  
  Exciton analysis of the difference density matrix
    <r_h> [Ang]:                  [ -1.565172,  -0.063659,   0.000947]
    <r_e> [Ang]:                  [ -1.564499,  -0.068855,   0.002131]
    |<r_e - r_h>| [Ang]:            0.005371
    Hole size [Ang]:                1.486174
      Cartesian components [Ang]: [  0.998551,   1.002101,   0.455415]
    Electron size [Ang]:            1.477355
      Cartesian components [Ang]: [  0.881303,   0.859857,   0.816411]

  Transition density matrix analysis:
  -----------------------------------
  
  CT numbers (Mulliken)
    omega =     0.9218
    <Phe> =    -0.0123
  
  Exciton analysis of the transition density matrix
    Trans. dipole moment [D]:             0.065234
      Cartesian components [D]:         [  0.045946,  -0.045989,  -0.005424]
    <r_h> [Ang]:                        [ -1.565765,  -0.063069,   0.000661]
    <r_e> [Ang]:                        [ -1.564205,  -0.069516,   0.002454]
    |<r_e - r_h>| [Ang]:                  0.006871
    Hole size [Ang]:                      1.514666
      Cartesian components [Ang]:       [  1.021003,   1.026451,   0.445155]
    Electron size [Ang]:                  1.474443
      Cartesian components [Ang]:       [  0.871959,   0.849238,   0.832144]
    RMS electron-hole separation [Ang]:   2.094041
      Cartesian components [Ang]:       [  1.326849,   1.317309,   0.942960]
    Covariance(r_h, r_e) [Ang^2]:         0.041617
    Correlation coefficient:              0.018635
    Center-of-mass size [Ang]:            1.066704
      Cartesian components [Ang]:       [  0.679152,   0.673490,   0.472251]

  Decomposition into state-averaged NTOs
    H- 1 -> L+ 0: -0.6612 ( 87.4%)
    H- 0 -> L+ 2:  0.1484 (  4.4%)
                   omega =  92.2%
  ----------------------------------------------------------------------------


  Excited state 3 (singlet, A)                                     [converged]
  ----------------------------------------------------------------------------
  Term symbol:  4 (1) A                                     R^2 =  8.30054e-13

  Total energy:                                            -77.9826549751 a.u.
  Excitation energy:                                               9.169807 eV

  Osc. strength:                                                      0.025165
  Trans. dip. moment [a.u.]:           [  -0.011050,   -0.025627,    0.333519]
  <i|r^2|0> [a.u.]:                    [  -0.046993,   -0.026484,   -0.002380]
  Two-photon absorption cross-section (SoS) [a.u.]:                   0.135928
  Two-photon absorption matrix (SoS) [a.u.]:
                                       |    0.128816    0.005058    0.017772 |
                                       |    0.005058   -0.125829   -0.001387 |
                                       |    0.017772   -0.001387    0.023030 |
  Two-photon absorption cross-section [a.u.]:                         0.075212
  Two-photon absorption matrix [a.u.]:
                                       |    0.100846    0.000259    0.020983 |
                                       |    0.000259   -0.083593    0.000071 |
                                       |    0.020983    0.000071    0.015310 |

  Dip. moment [a.u.]:                  [   0.002336,    0.016701,    0.004251]
  Total dipole [Debye]:                                               0.044204
  <r^2> [a.u.]:                        [ 180.873837,   40.608261,   11.036446]
  Total <r^2> [a.u.]:                                               232.518544

  V1^2 = 0.9587, V2^2 = 0.0413

  Important amplitudes:
      occ i     occ j     vir a      vir b          v   
    -----------------------------------------------------
     8 (A) A             10 (A) A                -0.6890
     8 (A) A             24 (A) A                -0.0507
     8 (A) A             18 (A) A                 0.0313
     4 (A) A              9 (A) A                 0.0238
     8 (A) A   8 (A) B    9 (A) A   12 (A) B     -0.0219
     8 (A) A   8 (A) B   10 (A) A   17 (A) B     -0.0173
     8 (A) A             15 (A) A                -0.0169
     5 (A) A   8 (A) B   11 (A) A   10 (A) B     -0.0165
     7 (A) A   8 (A) B   13 (A) A   10 (A) B      0.0141
     4 (A) A   8 (A) B   12 (A) A   10 (A) B      0.0111
     6 (A) A   8 (A) A   10 (A) A   15 (A) A      0.0110
     7 (A) A   8 (A) B   22 (A) A   10 (A) B     -0.0108
     6 (A) A   8 (A) B   15 (A) A   10 (A) B     -0.0108
     4 (A) A   8 (A) A   10 (A) A   12 (A) A     -0.0106
     7 (A) A   8 (A) A   10 (A) A   22 (A) A      0.0099
     7 (A) A   8 (A) A   10 (A) A   13 (A) A     -0.0097
     5 (A) A   8 (A) B   21 (A) A   10 (A) B     -0.0094
     5 (A) A   8 (A) A   10 (A) A   11 (A) A      0.0094
     6 (A) A   8 (A) A   10 (A) A   18 (A) A      0.0088
     6 (A) A   8 (A) B   10 (A) A   10 (A) B      0.0087
     7 (A) A   8 (A) A   12 (A) A   16 (A) A     -0.0082
     5 (A) A   8 (A) A   10 (A) A   21 (A) A      0.0080
     3 (A) A   4 (A) B   10 (A) A    9 (A) B     -0.0079
     7 (A) A              9 (A) A                -0.0078
     4 (A) A   8 (A) B   19 (A) A   10 (A) B     -0.0075
     8 (A) A   8 (A) B    9 (A) A   23 (A) B     -0.0075
     8 (A) A   8 (A) B   10 (A) A   28 (A) B      0.0072
     3 (A) A   8 (A) B   10 (A) A   10 (A) B     -0.0072
     5 (A) A   8 (A) B   10 (A) A   11 (A) B     -0.0071
     3 (A) A   8 (A) A   10 (A) A   24 (A) A      0.0071
     7 (A) A   8 (A) B   16 (A) A   12 (A) B      0.0071
     3 (A) A   8 (A) B   10 (A) A   18 (A) B      0.0069
     8 (A) A   8 (A) B    9 (A) A   19 (A) B      0.0068
     6 (A) A   8 (A) B   18 (A) A   10 (A) B     -0.0067
     3 (A) A   6 (A) B   10 (A) A   28 (A) B      0.0062
     7 (A) A   8 (A) B   12 (A) A   11 (A) B     -0.0058
     6 (A) A             28 (A) A                -0.0057
     3 (A) A   5 (A) B   10 (A) A   25 (A) B      0.0056
     5 (A) A   8 (A) A   10 (A) A   16 (A) A     -0.0056
     3 (A) A   8 (A) A   10 (A) A   18 (A) A      0.0056
    -----------------------------------------------------

  Density matrix analysis:
  ------------------------
  NOs
    Occupation of frontier NOs:
       0.9815   0.9849
    Number of electrons: 16.000000
    Number of unpaired electrons: n_u =  2.28550, n_u,nl =  2.02446
    NO participation ratio (PR_NO):  2.692490
  
  
  Mulliken Population Analysis
  Atom      Charge (e)              h+              e-           Del q
  --------------------------------------------------------------------
   1 H       -0.162282        0.053928       -0.267197       -0.213269
   2 C        0.327239        0.538932       -0.110616        0.428316
   3 H       -0.166479        0.053717       -0.270930       -0.217213
   4 C        0.326482        0.537308       -0.109488        0.427820
   5 H       -0.161635        0.054035       -0.265803       -0.211768
   6 H       -0.163325        0.053842       -0.267728       -0.213886
  --------------------------------------------------------------------
  Sum:       -0.000000        1.291762       -1.291762       -0.000000
  
  Multipole moment analysis of the density matrix
    Molecular charge:                      -0.000000
    Number of electrons:                   16.000000
      Center of electronic charge [Ang]: [ -1.560654,  -0.066155,   0.001213]
    Total nuclear charge:                  16.000000
      Center of nuclear charge [Ang]:    [ -1.560576,  -0.065602,   0.001353]
    Dipole moment [D]:                     0.044204
      Cartesian components [D]:          [  0.005939,   0.042450,   0.010804]
    RMS size of the density [Ang]:         1.276508
      Cartesian components [Ang]:        [  0.854386,   0.840441,   0.439495]
  
  Exciton analysis of the difference density matrix
    <r_h> [Ang]:                  [ -1.559980,  -0.066210,   0.002048]
    <r_e> [Ang]:                  [ -1.561187,  -0.072686,  -0.000611]
    |<r_e - r_h>| [Ang]:            0.007104
    Hole size [Ang]:                1.410279
      Cartesian components [Ang]: [  0.833978,   0.819942,   0.788074]
    Electron size [Ang]:            2.075967
      Cartesian components [Ang]: [  1.373121,   1.376813,   0.727025]

  Transition density matrix analysis:
  -----------------------------------
  
  CT numbers (Mulliken)
    omega =     0.9259
    <Phe> =    -0.0109
  
  Exciton analysis of the transition density matrix
    Trans. dipole moment [D]:             0.425341
      Cartesian components [D]:         [ -0.014043,  -0.032568,   0.423860]
    <r_h> [Ang]:                        [ -1.559646,  -0.065643,   0.002718]
    <r_e> [Ang]:                        [ -1.561276,  -0.075078,  -0.001348]
    |<r_e - r_h>| [Ang]:                  0.010402
    Hole size [Ang]:                      1.212978
      Cartesian components [Ang]:       [  0.636494,   0.623786,   0.822850]
    Electron size [Ang]:                  2.296268
      Cartesian components [Ang]:       [  1.517658,   1.524298,   0.803789]
    RMS electron-hole separation [Ang]:   2.587062
      Cartesian components [Ang]:       [  1.638231,   1.640030,   1.148647]
    Covariance(r_h, r_e) [Ang^2]:         0.025690
    Correlation coefficient:              0.009223
    Center-of-mass size [Ang]:            1.303413
      Cartesian components [Ang]:       [  0.826593,   0.826979,   0.575965]

  Decomposition into state-averaged NTOs
    H- 0 -> L+ 1: -0.6797 ( 92.4%)
                   omega =  92.6%
  ----------------------------------------------------------------------------


  Excited state 4 (singlet, A)                                     [converged]
  ----------------------------------------------------------------------------
  Term symbol:  5 (1) A                                     R^2 =  4.16581e-13

  Total energy:                                            -77.9583106484 a.u.
  Excitation energy:                                               9.832250 eV

  Osc. strength:                                                      0.000092
  Trans. dip. moment [a.u.]:           [  -0.014041,    0.013411,    0.002341]
  <i|r^2|0> [a.u.]:                    [  -0.064040,    0.022065,   -0.037456]
  Two-photon absorption cross-section (SoS) [a.u.]:                 149.400768
  Two-photon absorption matrix (SoS) [a.u.]:
                                       |    0.328592    0.337177   -3.002731 |
                                       |    0.337177    0.344804   -3.034077 |
                                       |   -3.002731   -3.034077   -0.672245 |
  Two-photon absorption cross-section [a.u.]:                        91.760148
  Two-photon absorption matrix [a.u.]:
                                       |    0.277921    0.265329   -2.345834 |
                                       |    0.265329    0.250904   -2.384888 |
                                       |   -2.345834   -2.384888   -0.527061 |

  Dip. moment [a.u.]:                  [  -0.019860,   -0.012630,    0.001505]
  Total dipole [Debye]:                                               0.059944
  <r^2> [a.u.]:                        [ 181.162855,   40.546174,   10.773695]
  Total <r^2> [a.u.]:                                               232.482724

  V1^2 = 0.9635, V2^2 = 0.0365

  Important amplitudes:
      occ i     occ j     vir a      vir b          v   
    -----------------------------------------------------
     8 (A) A             11 (A) A                -0.6697
     7 (A) A              9 (A) A                 0.1504
     8 (A) A             21 (A) A                -0.0781
     8 (A) A             16 (A) A                 0.0646
     8 (A) A   8 (A) B    9 (A) A   13 (A) B      0.0167
     5 (A) A   8 (A) B   11 (A) A   11 (A) B     -0.0155
     8 (A) A   8 (A) B   11 (A) A   17 (A) B     -0.0140
     7 (A) A             20 (A) A                 0.0137
     7 (A) A   8 (A) B   13 (A) A   11 (A) B      0.0127
     5 (A) A   8 (A) A   11 (A) A   21 (A) A      0.0110
     4 (A) A   8 (A) B   12 (A) A   11 (A) B      0.0110
     8 (A) A   8 (A) B    9 (A) A   22 (A) B     -0.0107
     8 (A) A             12 (A) A                -0.0106
     7 (A) A   8 (A) A   11 (A) A   22 (A) A      0.0096
     6 (A) A   8 (A) B   15 (A) A   11 (A) B     -0.0090
     6 (A) A   8 (A) B   10 (A) A   11 (A) B      0.0090
     7 (A) A   8 (A) B   22 (A) A   11 (A) B     -0.0089
     3 (A) A   4 (A) B   11 (A) A    9 (A) B     -0.0083
     3 (A) A   8 (A) B   11 (A) A   18 (A) B      0.0081
     6 (A) A   8 (A) A   11 (A) A   15 (A) A      0.0080
     7 (A) A   8 (A) A   13 (A) A   16 (A) A      0.0078
     7 (A) A   8 (A) A   11 (A) A   13 (A) A     -0.0077
     6 (A) A              9 (A) A                -0.0073
     5 (A) A   8 (A) B   21 (A) A   11 (A) B     -0.0071
     4 (A) A   8 (A) B   19 (A) A   11 (A) B     -0.0070
     5 (A) A   8 (A) B    9 (A) A    9 (A) B     -0.0068
     4 (A) A   8 (A) A   11 (A) A   12 (A) A     -0.0062
     6 (A) A   8 (A) A   11 (A) A   18 (A) A      0.0062
     3 (A) A   6 (A) B   11 (A) A   28 (A) B      0.0060
     6 (A) A   8 (A) B   18 (A) A   11 (A) B     -0.0060
     7 (A) A   8 (A) B   16 (A) A   13 (A) B     -0.0057
     3 (A) A   8 (A) A   11 (A) A   18 (A) A      0.0056
     5 (A) A   8 (A) B   10 (A) A   10 (A) B     -0.0056
     3 (A) A   8 (A) B   11 (A) A   30 (A) B      0.0055
     3 (A) A   5 (A) B   11 (A) A   25 (A) B      0.0054
     6 (A) A   8 (A) B   11 (A) A   10 (A) B      0.0054
     7 (A) A   8 (A) B   12 (A) A   10 (A) B     -0.0054
     8 (A) A   8 (A) B   20 (A) A   22 (A) B     -0.0053
     3 (A) A   8 (A) A   11 (A) A   24 (A) A      0.0053
     5 (A) A   8 (A) A   11 (A) A   16 (A) A     -0.0049
    -----------------------------------------------------

  Density matrix analysis:
  ------------------------
  NOs
    Occupation of frontier NOs:
       0.9406   1.0279
    Number of electrons: 16.000000
    Number of unpaired electrons: n_u =  2.31919, n_u,nl =  2.04917
    NO participation ratio (PR_NO):  2.915023
  
  
  Mulliken Population Analysis
  Atom      Charge (e)              h+              e-           Del q
  --------------------------------------------------------------------
   1 H       -0.147120        0.045799       -0.243906       -0.198107
   2 C        0.274501        0.497172       -0.121595        0.375577
   3 H       -0.127937        0.046928       -0.225599       -0.178671
   4 C        0.273072        0.496680       -0.122271        0.374410
   5 H       -0.132705        0.047073       -0.229911       -0.182838
   6 H       -0.139810        0.045847       -0.236218       -0.190371
  --------------------------------------------------------------------
  Sum:       -0.000000        1.179499       -1.179499       -0.000000
  
  Multipole moment analysis of the density matrix
    Molecular charge:                      -0.000000
    Number of electrons:                   16.000000
      Center of electronic charge [Ang]: [ -1.559919,  -0.065185,   0.001303]
    Total nuclear charge:                  16.000000
      Center of nuclear charge [Ang]:    [ -1.560576,  -0.065602,   0.001353]
    Dipole moment [D]:                     0.059944
      Cartesian components [D]:          [ -0.050479,  -0.032101,   0.003825]
    RMS size of the density [Ang]:         1.277209
      Cartesian components [Ang]:        [  0.858676,   0.839870,   0.434232]
  
  Exciton analysis of the difference density matrix
    <r_h> [Ang]:                  [ -1.559888,  -0.065358,   0.002206]
    <r_e> [Ang]:                  [ -1.551251,  -0.059291,   0.000525]
    |<r_e - r_h>| [Ang]:            0.010687
    Hole size [Ang]:                1.394867
      Cartesian components [Ang]: [  0.818225,   0.807037,   0.790476]
    Electron size [Ang]:            2.124036
      Cartesian components [Ang]: [  1.439549,   1.406432,   0.679097]

  Transition density matrix analysis:
  -----------------------------------
  
  CT numbers (Mulliken)
    omega =     0.9298
    <Phe> =    -0.0135
  
  Exciton analysis of the transition density matrix
    Trans. dipole moment [D]:             0.024855
      Cartesian components [D]:         [ -0.017844,   0.017044,   0.002976]
    <r_h> [Ang]:                        [ -1.560469,  -0.065731,   0.002574]
    <r_e> [Ang]:                        [ -1.549610,  -0.057984,   0.000345]
    |<r_e - r_h>| [Ang]:                  0.013524
    Hole size [Ang]:                      1.227987
      Cartesian components [Ang]:       [  0.657939,   0.650447,   0.807458]
    Electron size [Ang]:                  2.262032
      Cartesian components [Ang]:       [  1.533586,   1.498150,   0.721421]
    RMS electron-hole separation [Ang]:   2.563198
      Cartesian components [Ang]:       [  1.660247,   1.625468,   1.082320]
    Covariance(r_h, r_e) [Ang^2]:         0.027470
    Correlation coefficient:              0.009889
    Center-of-mass size [Ang]:            1.292254
      Cartesian components [Ang]:       [  0.838635,   0.820516,   0.541632]

  Decomposition into state-averaged NTOs
    H- 0 -> L+ 2:  0.6650 ( 88.4%)
    H- 1 -> L+ 0:  0.1484 (  4.4%)
                   omega =  93.0%
  ----------------------------------------------------------------------------


  Excited state 5 (singlet, A)                                     [converged]
  ----------------------------------------------------------------------------
  Term symbol:  6 (1) A                                     R^2 =  3.41360e-13

  Total energy:                                            -77.9443836009 a.u.
  Excitation energy:                                              10.211224 eV

  Osc. strength:                                                      0.000002
  Trans. dip. moment [a.u.]:           [   0.001597,    0.002243,    0.000181]
  <i|r^2|0> [a.u.]:                    [  -0.080648,    0.108324,   -0.019759]
  Two-photon absorption cross-section (SoS) [a.u.]:                 178.103014
  Two-photon absorption matrix (SoS) [a.u.]:
                                       |   -0.351955   -0.034208    3.354835 |
                                       |   -0.034208    0.381949   -3.296565 |
                                       |    3.354835   -3.296565   -0.086800 |
  Two-photon absorption cross-section [a.u.]:                        79.712017
  Two-photon absorption matrix [a.u.]:
                                       |   -0.252244   -0.032753    2.229356 |
[...]
    16   -1.457088200290e-03
    17   -2.066489564947e-03
    18   -1.448407820557e-04
    19   -3.317421019381e-03
    20    1.094767948606e-02
    21    9.358135365641e-01
    22   -2.757732675524e-04
    23    1.397615828649e-02
    24    9.756497753059e-04
    25    7.020144146582e-02
    26   -5.220182100184e-02
    27   -1.398121916543e+00
    28    9.802400201110e-02
    29   -9.252127949642e-02
    30   -1.792659230429e-03
    31    3.852775131117e-01
    32   -3.619171790397e-01
    33   -7.027327638422e-03
    34    1.562450125185e-02
    35   -1.365856818191e-03
    36   -1.817483564848e-03
    37   -3.996747708500e-05
    38   -3.123745195504e-03
    39    9.789365821944e-03
    40    9.306347663093e-01
    41    2.523772742287e-04
    42   -1.391226782304e-02
    43   -8.461630897754e-04
    44    1.014284248351e-02
    45    9.400714616289e-01
    46    1.412333617125e-02
    47    3.757875287307e-04
    48    6.355870738527e-04
Sym=X
Ene= 0.232934
Spin=Alpha
Occup=0
     1    2.608637612672e-02
     2    1.232026425813e+00
     3   -1.428899642725e-02
     4   -3.803191837653e-03
     5   -9.650278716113e-04
     6    2.843083858473e-03
     7   -3.246234748038e-03
     8   -4.550446569849e-02
     9   -1.547379166008e-01
    10   -1.586671422066e-01
    11   -1.854513605823e-02
    12   -5.561736239423e-01
    13   -5.580827321952e-01
    14   -6.656051942155e-02
    15    5.164004172017e-04
    16   -1.345745739274e-06
    17    1.271950915400e-04
    18   -1.992309739777e-04
    19   -3.444805658328e-04
    20   -2.518486056432e-02
    21   -1.162195284658e+00
    22   -2.506082466308e-03
    23   -1.357357295843e-02
    24   -1.061261571159e-03
    25   -2.428548843444e-03
    26    2.917000995919e-03
    27    3.420080613197e-02
    28   -1.536930932291e-01
    29   -1.592855821877e-01
    30   -1.613185600925e-02
    31   -5.469547802701e-01
    32   -5.564208351502e-01
    33   -5.608853650814e-02
    34   -4.098261067586e-04
    35   -5.357668601644e-05
    36    1.821481722118e-05
    37    3.732501379452e-04
    38    3.029625233428e-04
    39    2.515093156531e-02
    40    1.162229923555e+00
    41   -2.487571587554e-03
    42   -1.368508842361e-02
    43   -9.253236009043e-04
    44   -2.620263705828e-02
    45   -1.217831522769e+00
    46   -1.416788855811e-02
    47   -3.740726654321e-03
    48   -8.273279217230e-04
Sym=X
Ene= 0.239390
Spin=Alpha
Occup=0
     1   -1.612692420042e-02
     2   -1.054432969532e+00
     3    1.655761260731e-02
     4    9.097965653852e-03
     5    1.284737700532e-03
     6   -8.648984898168e-02
     7    7.975666771645e-02
     8    1.591705449637e+00
     9    5.363511340972e-02
    10   -6.010644698313e-02
    11   -2.617134633484e-03
    12    2.127767880941e-01
    13   -2.333112164693e-01
    14   -9.909105688463e-03
    15   -2.248075738606e-02
    16    2.631630446504e-03
    17    3.243396992222e-03
    18   -4.667544276659e-04
    19    1.285128165848e-02
    20   -1.702384207700e-02
    21   -1.119931159058e+00
    22   -8.519037439501e-03
    23   -1.767015305372e-02
    24   -1.641043662930e-03
    25    8.648719018795e-02
    26   -7.935593181040e-02
    27   -1.597118583563e+00
    28    5.388105603016e-02
    29   -6.075587175706e-02
    30   -7.140359938780e-04
    31    2.129136643494e-01
    32   -2.395831624492e-01
    33   -2.186974234563e-03
    34    2.261502656074e-02
    35   -2.706095337321e-03
    36   -2.993852206966e-03
    37    7.179691766963e-04
    38   -1.279363381279e-02
    39    1.680079009600e-02
    40    1.127712586062e+00
    41   -8.618232437678e-03
    42   -1.786225644295e-02
    43   -1.481975018593e-03
    44    1.566381265725e-02
    45    1.052957825189e+00
    46    1.648308789817e-02
    47    9.276272345689e-03
    48    1.375531346120e-03
Sym=X
Ene= 0.303254
Spin=Alpha
Occup=0
     1   -2.082061674439e-02
     2    1.690933789394e+00
     3   -2.290964326663e-02
     4    2.602902425188e-04
     5   -1.105097693905e-03
     6   -2.053436145306e-04
     7    1.786886468678e-04
     8    9.788309763843e-04
     9   -1.338132599258e-01
    10   -1.394872789903e-01
    11   -1.585466626696e-02
    12   -1.143844057344e+00
    13   -1.192746905481e+00
    14   -1.319191220732e-01
    15   -4.168246987252e-05
    16   -1.466684431136e-03
    17    2.243827498628e-03
    18   -3.262418203496e-02
    19   -1.630520568014e-03
    20    1.987470788835e-02
    21   -1.688157746581e+00
    22    1.427042479572e-03
    23   -2.289157030477e-02
    24   -1.445828482548e-03
    25    9.287582566704e-05
    26    2.549250625065e-04
    27   -8.944375786940e-03
    28    1.347681861373e-01
    29    1.403183512845e-01
    30    1.453735488108e-02
    31    1.139880531255e+00
    32    1.197635295006e+00
    33    1.272531219467e-01
    34    5.844074154198e-05
    35   -1.722753818506e-03
    36    1.820306002885e-03
    37   -3.251581511492e-02
    38   -1.684273131275e-03
    39    1.960580298043e-02
    40   -1.692386267542e+00
    41   -1.613248007312e-03
    42    2.284566268353e-02
    43    1.236386460623e-03
    44   -2.016256597244e-02
    45    1.699000935377e+00
    46    2.305036589893e-02
    47   -3.619771017866e-04
    48    1.096721788338e-03
Sym=X
Ene= 0.462014
Spin=Alpha
Occup=0
     1   -1.156124392221e-01
     2   -7.147265751354e-01
     3   -1.566168898680e-02
     4   -1.033432761593e-02
     5   -1.519378053683e-03
     6    6.080681289556e-02
     7    1.742619221307e-02
     8   -3.592506421165e+00
     9    1.030670996687e-01
    10   -9.889841885451e-02
    11   -2.689219032989e-03
    12    2.426375892262e+00
    13   -2.302084207206e+00
    14   -2.486292415065e-02
    15    5.362349673564e-02
    16   -3.671341124681e-03
    17   -5.104423896150e-03
    18   -7.549673387735e-04
    19    1.804338692947e-02
    20   -1.215548235821e-01
    21   -7.004487115005e-01
    22    8.716543009975e-03
    23    1.637681975787e-02
    24    1.480047712652e-03
    25   -6.093790634224e-02
    26   -1.629285589968e-02
    27    3.591100772553e+00
    28    1.051913706597e-01
    29   -1.004017125792e-01
    30   -1.542576994719e-03
    31    2.422259363642e+00
    32   -2.298357170496e+00
    33   -1.969582364382e-02
    34   -5.271107693560e-02
    35    2.981433160580e-03
    36    4.602551194905e-03
    37    6.716013061223e-04
    38   -1.904063229464e-02
    39    1.151775127513e-01
    40    7.091795644862e-01
    41    8.573529968887e-03
    42    1.625329184255e-02
    43    1.354283017103e-03
    44    1.106870106664e-01
    45    7.179181272382e-01
    46   -1.545649108711e-02
    47   -9.942354478795e-03
    48   -1.281246543003e-03
Sym=X
Ene= 0.577491
Spin=Alpha
Occup=0
     1    2.471283549303e-01
     2    4.081016608538e-02
     3   -1.845587909255e-02
     4    2.568056466385e-02
     5    8.170260958684e-04
     6   -4.437127445796e-03
     7   -1.571799420500e-01
     8   -4.664967704501e-01
     9    2.987871942242e-01
    10   -2.879541735666e-01
    11   -2.988410444221e-03
    12   -7.193838064903e-01
    13    6.948383162845e-01
    14    1.029831527497e-02
    15   -5.893571372427e-03
    16    4.082137688172e-03
    17    3.860957500370e-03
    18   -4.382368955527e-03
    19    6.022982800406e-02
    20    2.553662282368e-01
    21    2.797870674491e-02
    22   -2.648386259826e-02
    23    1.650014916750e-02
    24   -1.708414243311e-04
    25   -5.650107878737e-03
    26   -1.578559981443e-01
    27   -4.086294545967e-01
    28   -2.973025097999e-01
    29    2.851734464206e-01
    30    2.969885041340e-03
    31    7.633803150415e-01
    32   -7.335888784564e-01
    33   -9.303892704325e-03
    34   -5.861199399142e-03
    35    4.072412815533e-03
    36    3.774781115405e-03
    37   -3.839865029866e-03
    38    6.018148861612e-02
    39    2.509309950669e-01
    40    5.005885408648e-02
    41    2.722214976924e-02
    42   -1.698394417919e-02
    43    2.540612329235e-04
    44    2.489834421548e-01
    45    5.652091072851e-02
    46    1.843979820801e-02
    47   -2.588287772951e-02
    48   -6.980068500945e-04
Sym=X
Ene= 0.615164
Spin=Alpha
Occup=0
     1   -5.220239254138e-01
     2    2.000819405069e-01
     3   -6.137467482064e-02
     4    3.762895494484e-02
     5   -3.252891547545e-04
     6   -5.920574575744e-04
     7   -1.536863079606e-04
     8   -1.634570094553e-02
     9   -4.025315519086e-02
    10   -3.832915968430e-02
    11   -4.010513354959e-03
    12    3.046402713143e-01
    13    2.771595779283e-01
    14    3.498830530583e-02
    15    1.983586255127e-03
    16   -7.091306408277e-03
    17    9.470140843861e-03
    18   -1.480034662244e-01
    19   -6.444302201067e-03
    20    5.085207842073e-01
    21   -2.068763203897e-01
    22    4.182110260080e-02
    23   -5.847753980800e-02
    24   -1.759732606529e-03
    25    4.142207477816e-04
    26   -1.020330444315e-03
    27    2.526704227623e-02
    28   -4.002840526157e-02
    29   -4.021475069194e-02
    30   -4.806307069383e-03
    31    3.048353984084e-01
    32    2.895723807123e-01
    33    2.981801273237e-02
    34   -1.468288631492e-03
    35    7.809081635197e-03
    36   -8.598051011979e-03
    37    1.491354870528e-01
    38    6.314132656263e-03
    39   -5.147327850688e-01
    40    2.073259417485e-01
    41    4.093221956497e-02
    42   -5.857394679121e-02
    43   -1.685207375219e-03
    44    5.220569424478e-01
    45   -2.037735999707e-01
    46   -6.147627960572e-02
    47    3.759399089937e-02
    48   -7.746277351050e-04
Sym=X
Ene= 0.689146
Spin=Alpha
Occup=0
     1    2.743412095841e-04
     2    2.016026771634e-03
     3    5.236313139690e-04
     4    1.560758852734e-03
     5   -2.102010314681e-02
     6   -9.119880294810e-06
     7   -2.480215760998e-03
     8    3.303034565809e-03
     9    3.377220685290e-02
    10    4.291757832326e-02
    11   -6.700761759580e-01
    12   -3.562331042489e-02
    13   -3.587488419795e-02
    14    6.132669720942e-01
    15   -7.137000882608e-04
    16    8.262449090330e-02
    17   -7.838775883426e-02
    18   -8.443076644274e-03
    19   -1.112161710179e-03
    20   -2.844712569334e-04
    21    4.410441206692e-03
    22    1.146630431419e-03
    23    2.039731036626e-03
    24   -2.073731545302e-02
    25   -1.498407364772e-04
    26   -1.084513958559e-03
    27   -1.192979690233e-03
    28    3.066143024482e-02
    29    4.087711076067e-02
    30   -6.701017734270e-01
    31   -3.172907101796e-02
    32   -3.289105184969e-02
    33    6.133433198929e-01
    34    1.844992873895e-03
    35   -8.280681968153e-02
    36    7.832077153846e-02
    37    9.349908920483e-03
    38    7.356006917016e-04
    39   -2.644961274725e-03
    40    8.371226774963e-05
    41    5.421365674735e-04
    42    8.792537204036e-04
    43   -2.111452473535e-02
    44   -2.156437584846e-03
    45   -2.333939486294e-03
    46    1.178709735565e-03
    47    1.374792908546e-03
    48   -2.103119177603e-02
Sym=X
Ene= 0.708816
Spin=Alpha
Occup=0
     1   -4.761976020047e-01
     2    1.586804213870e-01
     3   -8.077487009822e-02
     4   -4.421280310730e-02
     5   -6.913029156068e-03
     6   -4.789487665931e-02
     7   -3.194124787247e-01
     8    5.100294535221e-01
     9    2.032751247890e-01
    10   -1.927744820901e-01
    11   -5.934850914957e-05
    12   -9.831050784556e-02
    13    8.412870233264e-02
    14   -5.074578713648e-03
    15    1.939366711356e-01
    16   -2.152622963554e-02
    17   -2.550855504489e-02
    18    3.088904434139e-03
    19   -7.737025622872e-02
    20   -4.791592097621e-01
    21    1.528577908774e-01
    22    4.096670085576e-02
    23    8.176277385541e-02
    24    7.181782093163e-03
    25   -4.660397045062e-02
    26   -3.211998030114e-01
    27    4.608059390503e-01
    28   -2.045171369859e-01
    29    1.917801654559e-01
    30    3.975293239526e-03
    31    6.410008896956e-02
    32   -5.048371288001e-02
    33    5.526538470339e-04
    34    1.933470665468e-01
    35   -2.054278845356e-02
    36   -2.419860880357e-02
    37    2.428963144449e-03
    38   -7.547107491341e-02
    39   -4.719524158913e-01
    40    1.344586200826e-01
    41   -4.060404352431e-02
    42   -8.090972513010e-02
    43   -6.578030965716e-03
    44   -4.734956416777e-01
    45    1.454135728604e-01
    46    8.037297641091e-02
    47    4.397356766205e-02
    48    6.685691566481e-03
Sym=X
Ene= 0.784450
Spin=Alpha
Occup=0
     1    5.258250540791e-01
     2   -4.680675539922e-01
     3    1.100132822942e-01
     4    2.587281960835e-02
     5    7.127014786568e-03
     6    9.087042924813e-02
     7   -2.167812677593e-01
     8   -6.407757116995e-01
     9    1.113649902283e-01
    10   -1.051230625674e-01
    11   -4.146881676344e-03
    12    3.166444246543e-01
    13   -2.963165476266e-01
    14    4.446629886495e-03
    15   -2.056063584982e-01
    16    1.788905424405e-02
    17    2.456917165862e-02
    18   -1.089741939800e-03
    19    9.085655014430e-03
    20    5.358983136722e-01
    21   -4.711323211926e-01
    22   -2.026934341946e-02
    23   -1.122454601965e-01
    24   -8.348216290546e-03
    25   -9.143590633004e-02
    26    2.122773044493e-01
    27    6.585031672373e-01
    28    1.111979949288e-01
    29   -1.054882861561e-01
    30    3.319230126531e-03
    31    3.107980427701e-01
    32   -2.883218431209e-01
    33   -1.007173403720e-02
    34    2.079412317829e-01
    35   -1.735087014207e-02
    36   -2.195860739844e-02
    37    1.918707605128e-03
    38   -9.050664316317e-03
    39   -5.421078216437e-01
    40    4.671973080058e-01
    41   -2.061070957007e-02
    42   -1.129982122578e-01
    43   -7.627606006227e-03
    44   -5.322465510733e-01
    45    4.650148163174e-01
    46    1.100706267039e-01
    47    2.679434591835e-02
    48    6.826469431332e-03
Sym=X
Ene= 0.807964
Spin=Alpha
Occup=0
     1   -2.415347226945e-03
     2    6.432722406960e-03
     3    1.835794300537e-04
     4    2.060261515639e-03
     5   -3.388600065264e-02
     6   -3.960951970503e-04
     7   -2.350565441091e-04
     8    1.384791299721e-03
     9    3.778278985654e-02
    10    5.092252433356e-02
    11   -7.625711669912e-01
    12   -5.921394262842e-02
    13   -7.267825386261e-02
    14    1.126239309824e+00
    15    2.461925749137e-03
    16   -6.539617902568e-02
    17    6.173647483439e-02
    18    6.138665931881e-03
    19    1.099590439535e-03
    20   -2.298036252855e-03
    21   -6.160271416386e-05
    22    1.195896384532e-03
    23    2.961570154463e-03
    24   -3.433172828234e-02
    25    5.031740223856e-04
    26   -2.149463008979e-03
    27   -1.622076363669e-04
    28   -3.640854183717e-02
    29   -4.361851063961e-02
    30    7.633409281857e-01
    31    5.073774032018e-02
    32    6.632005812934e-02
    33   -1.127184420575e+00
    34   -2.611413319858e-04
    35   -6.508447862302e-02
    36    6.188716678902e-02
    37    7.887673604610e-03
    38    5.976580764020e-04
    39    2.358799183612e-03
    40    8.219526289264e-04
    41   -1.931919591125e-03
    42   -1.902343736362e-03
    43    3.425125746498e-02
    44    2.398788509770e-03
    45   -5.824450546775e-03
    46   -2.502836301223e-03
    47   -2.304634157479e-03
    48    3.368770996380e-02
Sym=X
Ene= 0.862212
Spin=Alpha
Occup=0
     1    1.421795187433e-02
     2   -1.096490646517e+00
     3    1.485977258808e-01
     4    5.643659648717e-02
     5    1.050948155520e-02
     6    3.186405673983e-04
     7    2.110422402747e-04
     8    1.507325572168e-03
     9   -4.067626982913e-01
    10   -4.294894582381e-01
    11   -5.006289879533e-02
    12    9.475760496806e-01
    13    9.990347990315e-01
    14    1.161979579498e-01
    15   -1.257188277426e-03
    16    1.166314608689e-02
    17   -1.450331856092e-02
    18    2.351719917789e-01
    19    9.388821091030e-03
    20   -1.349196195115e-02
    21    1.103500852056e+00
    22    5.040845741814e-02
    23    1.512727130459e-01
    24    1.258784334674e-02
    25   -1.633396903682e-04
    26    2.485780557531e-03
    27   -3.117744710335e-03
    28   -4.060576920809e-01
    29   -4.295855392511e-01
    30   -4.273255854715e-02
    31    9.459742272757e-01
    32    1.002166931293e+00
    33    9.996550428247e-02
    34    5.635202358884e-04
    35   -1.183824457564e-02
    36    1.441359173058e-02
    37   -2.362150393965e-01
    38   -1.011574113833e-02
    39    1.130591830181e-02
    40   -1.101162237264e+00
    41    4.897358946653e-02
    42    1.513284658730e-01
    43    1.167424420510e-02
    44   -1.136069787297e-02
    45    1.094216134434e+00
    46    1.486561158641e-01
    47    5.569232858885e-02
    48    1.023048002282e-02
Sym=X
Ene= 0.935840
Spin=Alpha
Occup=0
     1   -1.136455987434e-01
     2    1.274947787579e+00
     3   -1.807822818980e-01
     4    5.723888407778e-03
     5   -8.692209830325e-03
     6   -1.766848215606e-04
     7   -4.624540681807e-03
     8    6.479156938894e-05
     9    4.709267293505e-01
    10    5.003682618038e-01
    11    5.510422965628e-02
    12   -1.459743988421e+00
    13   -1.542137583731e+00
    14   -1.699724462799e-01
    15   -3.048154807673e-04
    16   -6.051180821148e-03
    17    8.331761595113e-03
    18   -1.198986457995e-01
    19   -1.444701548198e-03
    20    1.172772884974e-01
    21   -1.287622612905e+00
    22    1.128064390976e-02
    23   -1.829451943458e-01
    24   -1.128362044112e-02
    25    1.470723385991e-04
    26   -1.845584354259e-03
    27    5.105192286001e-03
    28   -4.762129162399e-01
    29   -4.964545325803e-01
    30   -5.270162146526e-02
    31    1.473475060385e+00
    32    1.528821729771e+00
    33    1.629629924895e-01
    34   -9.710145433290e-04
    35   -6.231849335506e-03
    36    6.136552301356e-03
    37   -1.210114816904e-01
    38   -5.457155505176e-03
    39    1.171314035763e-01
    40   -1.280960966374e+00
    41   -1.356350202917e-02
    42    1.821551060948e-01
    43    9.867157843586e-03
    44   -1.155019924087e-01
    45    1.288396246275e+00
    46    1.820936533705e-01
    47   -5.257427361304e-03
    48    8.564698707675e-03
Sym=X
Ene= 0.972415
Spin=Alpha
Occup=0
     1   -6.449282496708e-02
     2    9.327808654198e-01
     3   -9.184080655569e-02
     4   -9.859713440024e-02
     5   -1.002130920325e-02
     6    2.539118801970e-02
     7    2.552727402806e-01
     8    5.148431591334e-01
     9    4.833815462642e-01
    10   -4.528350631706e-01
    11   -6.470029339336e-03
    12   -1.502206847533e+00
    13    1.400553735645e+00
    14    1.853938817530e-02
    15   -5.414934595098e-02
    16   -1.291676867728e-02
    17   -1.033554094951e-02
    18    1.276781489651e-02
    19   -3.018019450663e-01
    20   -6.245088741354e-02
    21    9.045839883377e-01
    22    9.531373843652e-02
    23    9.228731819331e-02
    24    1.111950024435e-02
    25   -2.516256998076e-02
    26   -2.354376743635e-01
    27   -5.477686506116e-01
    28    4.762032777133e-01
    29   -4.564332049356e-01
    30   -4.256988298204e-03
    31   -1.477381796751e+00
    32    1.421239121348e+00
    33    1.332072126393e-02
    34    5.290157469766e-02
    35    1.296699908207e-02
    36    1.029320500422e-02
    37   -1.437992265865e-02
    38    2.987712367553e-01
    39    6.201896673719e-02
    40   -9.120163241103e-01
    41    9.406663852878e-02
    42    9.311044569763e-02
    43    1.033853442091e-02
    44    6.577170885866e-02
    45   -9.047134429916e-01
    46   -8.806891052365e-02
    47   -9.773025765530e-02
    48   -1.015165277388e-02
[5D]

======= END OF MOLDEN-FORMATTED INPUT FILE =======


        *************************************************************
        *                                                           *
        *  Thank you very much for using Q-Chem.  Have a nice day.  *
        *                                                           *
        *************************************************************


