                  Welcome to Q-Chem
     A Quantum Leap Into The Future Of Chemistry


 Q-Chem 5.4 (devel), Q-Chem, Inc., Pleasanton, CA (2021)

 E. Epifanovsky,  A. T. B. Gilbert,  Xintian Feng,  Joonho Lee,  Yuezhi Mao,  
 N. Mardirossian,  P. Pokhilko,  A. White,  M. Wormit,  M. P. Coons,  
 A. L. Dempwolff,  Zhengting Gan,  D. Hait,  P. R. Horn,  L. D. Jacobson,  
 I. Kaliman,  J. Kussmann,  A. W. Lange,  Ka Un Lao,  D. S. Levine,  Jie Liu,  
 S. C. McKenzie,  A. F. Morrison,  K. Nanda,  F. Plasser,  D. R. Rehn,  
 M. L. Vidal,  Zhi-Qiang You,  Ying Zhu,  B. Alam,  B. Albrecht,  
 A. Aldossary,  E. Alguire,  J. H. Andersen,  D. Barton,  K. Begam,  A. Behn,  
 Y. A. Bernard,  E. J. Berquist,  H. Burton,  A. Carreras,  K. Carter-Fenk,  
 R. Chakraborty,  A. D. Chien,  K. D. Closser,  V. Cofer-Shabica,  
 S. Dasgupta,  Jia Deng,  M. de Wergifosse,  M. Diedenhofen,  Hainam Do,  
 S. Ehlert,  Po-Tung Fang,  S. Fatehi,  Qingguo Feng,  T. Friedhoff,  
 J. Gayvert,  Qinghui Ge,  G. Gidofalvi,  M. Goldey,  J. Gomes,  
 C. Gonzalez-Espinoza,  S. Gulania,  A. Gunina,  M. W. D. Hanson-Heine,  
 P. H. P. Harbach,  A. W. Hauser,  M. F. Herbst,  M. Hernandez Vera,  
 M. Hodecker,  Z. C. Holden,  S. Houck,  Xunkun Huang,  Kerwin Hui,  
 B. C. Huynh,  M. Ivanov,  Hyunjun Ji,  Hanjie Jiang,  B. Kaduk,  S. Kaehler,  
 K. Khistyaev,  Jaehoon Kim,  P. Klunzinger,  Z. Koczor-Benda,  
 Joong Hoon Koh,  D. Kosenkov,  L. Koulias,  T. Kowalczyk,  C. M. Krauter,  
 K. Kue,  A. Kunitsa,  T. Kus,  A. Landau,  K. V. Lawler,  D. Lefrancois,  
 S. Lehtola,  Rain Li,  Yi-Pei Li,  Jiashu Liang,  M. Liebenthal,  
 Hung-Hsuan Lin,  You-Sheng Lin,  Fenglai Liu,  Kuan-Yu Liu,  
 M. Loipersberger,  A. Luenser,  A. Manjanath,  P. Manohar,  E. Mansoor,  
 S. F. Manzer,  Shan-Ping Mao,  A. V. Marenich,  T. Markovich,  S. Mason,  
 S. A. Maurer,  P. F. McLaughlin,  M. F. S. J. Menger,  J.-M. Mewes,  
 S. A. Mewes,  P. Morgante,  J. W. Mullinax,  K. J. Oosterbaan,  G. Paran,  
 Alexander C. Paul,  Suranjan K. Paul,  F. Pavosevic,  Zheng Pei,  S. Prager,  
 E. I. Proynov,  E. Ramos,  B. Rana,  A. E. Rask,  A. Rettig,  R. M. Richard,  
 F. Rob,  E. Rossomme,  T. Scheele,  M. Scheurer,  M. Schneider,  
 N. Sergueev,  S. M. Sharada,  W. Skomorowski,  D. W. Small,  C. J. Stein,  
 Yu-Chuan Su,  E. J. Sundstrom,  Zhen Tao,  J. Thirman,  T. Tsuchimochi,  
 N. M. Tubman,  S. P. Veccham,  O. Vydrov,  J. Wenzel,  J. Witte,  A. Yamada,  
 Kun Yao,  S. Yeganeh,  S. R. Yost,  A. Zech,  Igor Ying Zhang,  Xing Zhang,  
 Yu Zhang,  D. Zuev,  A. Aspuru-Guzik,  A. T. Bell,  N. A. Besley,  
 K. B. Bravaya,  B. R. Brooks,  D. Casanova,  Jeng-Da Chai,  S. Coriani,  
 C. J. Cramer,  A. E. DePrince, III,  R. A. DiStasio Jr.,  A. Dreuw,  
 B. D. Dunietz,  T. R. Furlani,  W. A. Goddard III,  S. Grimme,  
 S. Hammes-Schiffer,  T. Head-Gordon,  W. J. Hehre,  Chao-Ping Hsu,  
 T.-C. Jagau,  Yousung Jung,  A. Klamt,  Jing Kong,  D. S. Lambrecht,  
 WanZhen Liang,  N. J. Mayhall,  C. W. McCurdy,  J. B. Neaton,  
 C. Ochsenfeld,  J. A. Parkhill,  R. Peverati,  V. A. Rassolov,  Yihan Shao,  
 L. V. Slipchenko,  T. Stauch,  R. P. Steele,  J. E. Subotnik,  
 A. J. W. Thom,  A. Tkatchenko,  D. G. Truhlar,  T. Van Voorhis,  
 T. A. Wesolowski,  K. B. Whaley,  H. L. Woodcock III,  P. M. Zimmerman,  
 S. Faraji,  P. M. W. Gill,  M. Head-Gordon,  J. M. Herbert,  A. I. Krylov

 Additional authors for Version 5.4.1: 
 S. Kotaru,  Shaozhi Li,  Xiangyuan Li,  F. Matz,  A. Molle,  Haisheng Ren,  
 Yingli Su,  Hung-Yi Tsai,  C. Utku,  Fang Wang

 Contributors to earlier versions of Q-Chem not listed above: 
 R. D. Adamson,  B. Austin,  R. Baer,  J. Baker,  G. J. O. Beran,  
 K. Brandhorst,  S. T. Brown,  E. F. C. Byrd,  A. K. Chakraborty,  
 G. K. L. Chan,  Chun-Min Chang,  Yunqing Chen,  C.-L. Cheng,  
 Siu Hung Chien,  D. M. Chipman,  D. L. Crittenden,  H. Dachsel,  
 R. J. Doerksen,  A. D. Dutoi,  R. G. Edgar,  J. Fosso-Tande,  
 L. Fusti-Molnar,  D. Ghosh,  A. Ghysels,  A. Golubeva-Zadorozhnaya,  
 J. Gonthier,  M. S. Gordon,  S. R. Gwaltney,  G. Hawkins,  J. E. Herr,  
 A. Heyden,  S. Hirata,  E. G. Hohenstein,  G. Kedziora,  F. J. Keil,  
 C. Kelley,  Jihan Kim,  R. A. King,  R. Z. Khaliullin,  P. P. Korambath,  
 W. Kurlancheek,  A. Laurent,  A. M. Lee,  M. S. Lee,  S. V. Levchenko,  
 Ching Yeh Lin,  D. Liotard,  E. Livshits,  R. C. Lochan,  I. Lotan,  
 L. A. Martinez-Martinez,  P. E. Maslen,  N. Nair,  D. P. O'Neill,  
 D. Neuhauser,  E. Neuscamman,  C. M. Oana,  R. Olivares-Amaya,  R. Olson,  
 T. M. Perrine,  B. Peters,  P. A. Pieniazek,  A. Prociuk,  Y. M. Rhee,  
 J. Ritchie,  M. A. Rohrdanz,  E. Rosta,  N. J. Russ,  H. F. Schaefer III,  
 M. W. Schmidt,  N. E. Schultz,  S. Sharma,  N. Shenvi,  C. D. Sherrill,  
 A. C. Simmonett,  A. Sodt,  T. Stein,  D. Stuck,  K. S. Thanthiriwatte,  
 V. Vanovschi,  L. Vogt,  Tao Wang,  A. Warshel,  M. A. Watson,  
 C. F. Williams,  Q. Wu,  X. Xu,  Jun Yang,  W. Zhang,  Yan Zhao

 Please cite Q-Chem as follows:
 Y. Shao et al., Mol. Phys. 113, 184-215 (2015)
 DOI: 10.1080/00268976.2014.952696

 Q-Chem 5.4.1 for Intel X86 EM64T Linux

 Parts of Q-Chem use Armadillo 9.800.1 (Horizon Scraper).
 http://arma.sourceforge.net/

 Q-Chem begins on Wed Mar 15 17:55:16 2023  

 Host: cpu121.yggdrasil
0

     Scratch files written to /srv/beegfs/scratch/users/f/fum/qchem94331//
 Processing $rem in /home/share/wesolowski/qc5.aug2021.FDE/config/preferences:
 Processing $rem in /home/fum/.qchemrc:

 Checking the input file for inconsistencies... 	...done.

--------------------------------------------------------------
User input:
--------------------------------------------------------------
$comment
generated from CCJob.Templates
$end

$rem
sym_ignore = true
method = adc(2)
ee_states = 10
basis = cc-pVDZ
mem_static = 1024
mem_total = 40000
adc_davidson_maxiter = 900
adc_davidson_conv = 6
adc_print = 3
adc_prop_es = true
adc_prop_es2es = true
adc_prop_tpa = true
molden_format = True
state_analysis = true
print_orbitals = 15
gen_scfman = false
fde_export_density = true
fde_details = 3
$end

$molecule
0 1
H -0.0348278765 -0.2442097827 0.0636489606
C -1.0765972949 -0.5242748755 -0.0023551776
H -1.273264467 -1.5767591607 -0.0757276926
C -2.043634118 0.3926884087 0.0061254933
H -1.8137616575 1.4459188338 0.0804456828
H -3.085977293 0.114931858 -0.0593381042                     
$end
--------------------------------------------------------------
 ----------------------------------------------------------------
             Standard Nuclear Orientation (Angstroms)
    I     Atom           X                Y                Z
 ----------------------------------------------------------------
    1      H      -0.0348278765    -0.2442097827     0.0636489606
    2      C      -1.0765972949    -0.5242748755    -0.0023551776
    3      H      -1.2732644670    -1.5767591607    -0.0757276926
    4      C      -2.0436341180     0.3926884087     0.0061254933
    5      H      -1.8137616575     1.4459188338     0.0804456828
    6      H      -3.0859772930     0.1149318580    -0.0593381042
 ----------------------------------------------------------------
 Nuclear Repulsion Energy =          33.43688294 hartrees
 There are        8 alpha and        8 beta electrons
 Requested basis set is cc-pVDZ
 There are 24 shells and 48 basis functions
 Total memory of 40000 MB is distributed as follows: 
   MEM_STATIC is set to 1024 MB
   QALLOC/CCMAN JOB total memory use is  38976 MB
 Warning: actual memory use might exceed 40000 MB

 Total QAlloc Memory Limit  40000 MB
 Mega-Array Size      1001 MB
 MEM_STATIC part      1024 MB

                       Distance Matrix (Angstroms)
             H (  1)   C (  2)   H (  3)   C (  4)   H (  5)
   C (  2)  1.080776
   H (  3)  1.824511  1.073212
   C (  4)  2.108139  1.332687  2.116340
   H (  5)  2.453859  2.105215  3.074591  1.080583
   H (  6)  3.074674  2.109370  2.479519  1.080700  1.846510

 A cutoff of  1.0D-11 yielded    300 shell pairs
 There are      1220 function pairs (      1329 Cartesian)
 Smallest overlap matrix eigenvalue = 4.80E-03

 Scale SEOQF with 1.000000e-01/1.000000e-01/1.000000e+00

 Standard Electronic Orientation quadrupole field applied
 Nucleus-field energy     =     0.0000000022 hartrees
 Guess from superposition of atomic densities
 Warning:  Energy on first SCF cycle will be non-variational
 SAD guess density has 16.000000 electrons
 A restricted Hartree-Fock SCF calculation will be
 performed using Pulay DIIS extrapolation
 SCF converges when DIIS error is below 1.0E-08
 using 10 threads for integral computing
 -------------------------------------------------------
 OpenMP Integral computing Module                
 Release: version 1.0, May 2013, Q-Chem Inc. Pittsburgh 
 -------------------------------------------------------
 ---------------------------------------
  Cycle       Energy         DIIS Error
 ---------------------------------------
    1     -78.4432825155      1.01E-01
    2     -78.0175773765      7.21E-03
    3     -78.0382180625      1.84E-03
    4     -78.0397007877      5.72E-04
    5     -78.0398220759      5.94E-05
    6     -78.0398239830      1.21E-05
    7     -78.0398240580      4.92E-06
    8     -78.0398240670      9.86E-07
    9     -78.0398240676      1.36E-07
   10     -78.0398240676      4.24E-08
   11     -78.0398240676      8.03E-09 Convergence criterion met
 ---------------------------------------
 SCF time:  CPU 2.09 s  wall 2.73 s
 SCF   energy in the final basis set = -78.03982407
 Total energy in the final basis set = -78.03982407
Exporting Density Matrix to file 'Densmat_SCF.txt'.
Export successful
================================================================================
|                                                                              |
|                                 A D C  M A N                                 |
|                                                                              |
 ------------------------------------------------------------------------------ 
|                                                                              |
| Components:                                                                  |
|                                                                              |
| - libvmm - 1.3-trunk                                                         |
|   Authors:                                                                   |
|   Evgeny Epifanovsky, Ilya Kaliman                                           |
|                                                                              |
| - libtensor - 2.5-trunk                                                      |
|   Authors:                                                                   |
|   Evgeny Epifanovsky, Michael Wormit, Dmitry Zuev, Sam Manzer,               |
|   Ilya Kaliman                                                               |
|                                                                              |
| - libwfa - 1.1-trunk                                                         |
|   Authors:                                                                   |
|   Felix Plasser, Stefanie Mewes (Baeppler), Benjamin Thomitzni,              |
|   Michael Wormit, Feng Chen, Anna I. Krylov, Pavel Pokhilko                  |
|                                                                              |
| - libadc - 1.1-trunk                                                         |
|   Authors:                                                                   |
|   Michael Wormit, Adrian L. Dempwolff, Philipp H. P. Harbach,                |
|   Caroline Krauter, Dirk Rehn, Matthias Schneider, Jan Wenzel                |
|                                                                              |
| - adcman - 2.6-trunk                                                         |
|   Authors:                                                                   |
|   Michael Wormit, Adrian L. Dempwolff, Philipp H. P. Harbach,                |
|   Caroline Krauter, Daniel Lefrancois, Jan-Michael Mewes, Dirk Rehn,         |
|   Matthias Schneider, Jan Wenzel, Andreas Dreuw                              |
|                                                                              |
| Authors of earlier versions of ADCMAN:                                       |
| Andreas Dreuw, Jan Hendrik Starcke, Dirk Rehn, Michael Wormit                |
|                                                                              |
================================================================================

 Created directory /srv/beegfs/scratch/users/f/fum/qchem94331/plots
  Import QC data ...  CPU 0.00 s  wall 0.00 s

 Alpha MOs, Restricted
 -- Occupied --                  
-11.235 -11.233  -1.032  -0.792  -0.640  -0.585  -0.504  -0.374
  1 A     2 A     3 A     4 A     5 A     6 A     7 A     8 A                  
 -- Virtual --                   
  0.168   0.204   0.234   0.239   0.304   0.464   0.579   0.611
  9 A    10 A    11 A    12 A    13 A    14 A    15 A    16 A                  
  0.689   0.712   0.785   0.808   0.862   0.936   0.974   1.011
 17 A    18 A    19 A    20 A    21 A    22 A    23 A    24 A                  
  1.132   1.234   1.244   1.263   1.295   1.603   1.739   1.764
 25 A    26 A    27 A    28 A    29 A    30 A    31 A    32 A                  
  1.818   1.850   1.868   1.916   1.972   1.985   2.230   2.257
 33 A    34 A    35 A    36 A    37 A    38 A    39 A    40 A                  
  2.373   2.453   2.518   2.652   2.721   2.831   3.133   3.412
 41 A    42 A    43 A    44 A    45 A    46 A    47 A    48 A                  

 Beta MOs, Restricted
 -- Occupied --                  
-11.235 -11.233  -1.032  -0.792  -0.640  -0.585  -0.504  -0.374
  1 A     2 A     3 A     4 A     5 A     6 A     7 A     8 A                  
 -- Virtual --                   
  0.168   0.204   0.234   0.239   0.304   0.464   0.579   0.611
  9 A    10 A    11 A    12 A    13 A    14 A    15 A    16 A                  
  0.689   0.712   0.785   0.808   0.862   0.936   0.974   1.011
 17 A    18 A    19 A    20 A    21 A    22 A    23 A    24 A                  
  1.132   1.234   1.244   1.263   1.295   1.603   1.739   1.764
 25 A    26 A    27 A    28 A    29 A    30 A    31 A    32 A                  
  1.818   1.850   1.868   1.916   1.972   1.985   2.230   2.257
 33 A    34 A    35 A    36 A    37 A    38 A    39 A    40 A                  
  2.373   2.453   2.518   2.652   2.721   2.831   3.133   3.412
 41 A    42 A    43 A    44 A    45 A    46 A    47 A    48 A                  
  Import AO data ...  CPU 0.00 s  wall 0.03 s
  Using point group: C1
  Irreducible representations in point group: A
  Molecular orbitals: 
  Occupied MOs:
  Block   0:   1 (  A) A   2 (  A) A   3 (  A) A   4 (  A) A   5 (  A) A
                  -11.24      -11.23      -1.032     -0.7921     -0.6398
               6 (  A) A   7 (  A) A   8 (  A) A
                 -0.5848     -0.5039      -0.374
  Block   1:   1 (  A) B   2 (  A) B   3 (  A) B   4 (  A) B   5 (  A) B
                  -11.24      -11.23      -1.032     -0.7921     -0.6398
               6 (  A) B   7 (  A) B   8 (  A) B
                 -0.5848     -0.5039      -0.374
  Virtual MOs:
  Block   0:   9 (  A) A  10 (  A) A  11 (  A) A  12 (  A) A  13 (  A) A
                  0.1682      0.2042      0.2337      0.2387      0.3035
              14 (  A) A  15 (  A) A  16 (  A) A  17 (  A) A  18 (  A) A
                  0.4642      0.5795       0.611      0.6891      0.7117
              19 (  A) A  20 (  A) A  21 (  A) A  22 (  A) A
                  0.7849      0.8079      0.8623      0.9364
  Block   1:  23 (  A) A  24 (  A) A  25 (  A) A  26 (  A) A  27 (  A) A
                  0.9739       1.011       1.132       1.234       1.244
              28 (  A) A  29 (  A) A  30 (  A) A  31 (  A) A  32 (  A) A
                   1.263       1.295       1.603       1.739       1.764
              33 (  A) A  34 (  A) A  35 (  A) A  36 (  A) A
                   1.818        1.85       1.868       1.916
  Block   2:  37 (  A) A  38 (  A) A  39 (  A) A  40 (  A) A  41 (  A) A
                   1.972       1.985        2.23       2.257       2.373
              42 (  A) A  43 (  A) A  44 (  A) A  45 (  A) A  46 (  A) A
                   2.453       2.518       2.652       2.721       2.831
              47 (  A) A  48 (  A) A
                   3.133       3.412
  Block   3:   9 (  A) B  10 (  A) B  11 (  A) B  12 (  A) B  13 (  A) B
                  0.1682      0.2042      0.2337      0.2387      0.3035
              14 (  A) B  15 (  A) B  16 (  A) B  17 (  A) B  18 (  A) B
                  0.4642      0.5795       0.611      0.6891      0.7117
              19 (  A) B  20 (  A) B  21 (  A) B  22 (  A) B
                  0.7849      0.8079      0.8623      0.9364
  Block   4:  23 (  A) B  24 (  A) B  25 (  A) B  26 (  A) B  27 (  A) B
                  0.9739       1.011       1.132       1.234       1.244
              28 (  A) B  29 (  A) B  30 (  A) B  31 (  A) B  32 (  A) B
                   1.263       1.295       1.603       1.739       1.764
              33 (  A) B  34 (  A) B  35 (  A) B  36 (  A) B
                   1.818        1.85       1.868       1.916
  Block   5:  37 (  A) B  38 (  A) B  39 (  A) B  40 (  A) B  41 (  A) B
                   1.972       1.985        2.23       2.257       2.373
              42 (  A) B  43 (  A) B  44 (  A) B  45 (  A) B  46 (  A) B
                   2.453       2.518       2.652       2.721       2.831
              47 (  A) B  48 (  A) B
                   3.133       3.412
  Import MO data ...  CPU 0.01 s  wall 0.01 s
  Import HF data ...  CPU 0.07 s  wall 0.03 s
  Import 2e integrals ...  CPU 0.82 s  wall 0.13 s

--------------------------------------------------------------------------------
                                   HF Summary                                   
--------------------------------------------------------------------------------
  Energy:                                                  -78.0398240676 a.u.
  Dip. moment [a.u.]:                  [   0.002444,   -0.003006,   -0.000131]
  Total dipole [Debye]:                                               0.009853
  <r^2> [a.u.]:                        [ 174.983850,   34.881157,   11.617025]
  Total <r^2> [a.u.]:                                               221.482031
--------------------------------------------------------------------------------
  HF properties ...  CPU 0.01 s  wall 0.00 s
  MP(1) calculation ...  CPU 0.01 s  wall 0.00 s
  N^6 prerequesite intermediates ...  CPU 0.44 s  wall 0.08 s
  Difference density matrix of state mp2_gs printed to ASCII file 'State_mp2_gs_Difference.txt'
Exporting MP density matrix to file 'Densmat_MP.txt'.
Export successful
  Total density matrix of state mp2_gs printed to ASCII file 'State_mp2_gs_Total.txt'
Exporting MP density matrix to file 'Densmat_MP.txt'.
Export successful

--------------------------------------------------------------------------------
                                 MP(2) Summary                                  
--------------------------------------------------------------------------------
  MP energy contribution:                                   -0.2795704262 a.u.
  Total energy:                                            -78.3193944938 a.u.
  Dip. moment [a.u.]:                  [   0.002645,   -0.002385,   -0.000084]
  Total dipole [Debye]:                                               0.009056
  <r^2> [a.u.]:                        [ 175.030015,   34.924063,   11.449487]
  Total <r^2> [a.u.]:                                               221.403565

  Density matrix analysis:
  ------------------------
  NOs
    Occupation of frontier NOs:
       0.0453   1.9383
    Number of electrons: 16.000000
    Number of unpaired electrons: n_u =  0.40292, n_u,nl =  0.04499
    NO participation ratio (PR_NO): 13.849983
  
  
  Mulliken Population Analysis
  Atom      Charge (e)              h+              e-           Del q
  --------------------------------------------------------------------
   1 H        0.049286        0.014266       -0.011138        0.003128
   2 C       -0.099509        0.092258       -0.098813       -0.006555
   3 H        0.048509        0.014269       -0.011158        0.003111
   4 C       -0.100213        0.093357       -0.098788       -0.005430
   5 H        0.050930        0.014064       -0.011186        0.002878
   6 H        0.050997        0.014063       -0.011194        0.002869
  --------------------------------------------------------------------
  Sum:        0.000000        0.242277       -0.242277       -0.000000
  
  Multipole moment analysis of the density matrix
    Molecular charge:                      0.000000
    Number of electrons:                   16.000000
      Center of electronic charge [Ang]: [ -1.558164,  -0.065523,   0.001981]
    Total nuclear charge:                  16.000000
      Center of nuclear charge [Ang]:    [ -1.558076,  -0.065602,   0.001978]
    Dipole moment [D]:                     0.009056
      Cartesian components [D]:          [  0.006723,  -0.006063,  -0.000213]
    RMS size of the density [Ang]:         1.201160
      Cartesian components [Ang]:        [  0.797159,   0.779064,   0.447641]
  
  Exciton analysis of the difference density matrix
    <r_h> [Ang]:                  [ -1.558600,  -0.063769,   0.002076]
    <r_e> [Ang]:                  [ -1.559039,  -0.065125,   0.001973]
    |<r_e - r_h>| [Ang]:            0.001429
    Hole size [Ang]:                1.393685
      Cartesian components [Ang]: [  0.848185,   0.832765,   0.727628]
    Electron size [Ang]:            1.360191
      Cartesian components [Ang]: [  0.878297,   0.861925,   0.579483]
--------------------------------------------------------------------------------
  MP(2) calculation ...  CPU 0.11 s  wall 0.27 s
  Start ADC(2)-s ...  CPU 0.01 s  wall 0.00 s
  ADC(2) intermediates ...  CPU 0.02 s  wall 0.01 s
  Starting Davidson for singlet states of irrep A ... 
--------------------------------------------------------------------------------
   It NVec Conv  Avg. Norm  Max. Norm  Conv. states           Remark
--------------------------------------------------------------------------------
        10    0  1.330e-01  4.700e-01  0.4130 n n n n n n n n Guess.
    1   20    0  2.310e-02  1.119e-01  0.3261 n n n n n n n n 
    2   30    0  5.853e-03  2.567e-02  0.3214 n n n n n n n n 
    3   40    0  2.014e-03  1.379e-02  0.3210 n n n n n n n n 
    4   50    0  6.226e-04  4.588e-03  0.3210 n n n n n n n n 
    5   20    0  2.693e-04  1.920e-03  0.3210 n n n n n n n n Subspace collapsed.
    6   30    0  1.739e-04  1.506e-03  0.3210 n n n n n n n n 
    7   40    0  9.736e-05  8.055e-04  0.3210 n n n n n n n n 
    8   50    0  1.157e-04  1.094e-03  0.3210 n n n n n n n n 
    9   20    2  8.127e-05  7.664e-04  0.3210 n y n y n n n n Subspace collapsed.
   10   30    4  6.235e-05  6.036e-04  0.3210 n y y y y n n n 
   11   40    5  8.601e-05  8.557e-04  0.3210 n y y y y y n n 
   12   50    6  9.645e-05  9.636e-04  0.3210 y y y y y y n n 
   13   20    6  3.880e-05  3.876e-04  0.3210 y y y y y y n n Subspace collapsed.
   14   30    6  2.604e-05  2.602e-04  0.3210 y y y y y y n n 
   15   40    6  1.668e-05  1.667e-04  0.3210 y y y y y y n n 
   16   50    6  2.381e-05  2.381e-04  0.3210 y y y y y y n n 
   17   20    7  1.338e-05  1.338e-04  0.3210 y y y y y y y n Subspace collapsed.
   18   30    7  1.395e-05  1.395e-04  0.3210 y y y y y y y n 
   19   40    8  1.699e-05  1.698e-04  0.3210 y y y y y y y y 
   20   50    8  1.867e-05  1.867e-04  0.3210 y y y y y y y y 
   21   20    9  9.488e-06  9.487e-05  0.3210 y y y y y y y y Subspace collapsed.
   22   30    9  7.183e-06  7.183e-05  0.3210 y y y y y y y y 
   23   31    9  7.017e-06  7.017e-05  0.3210 y y y y y y y y 
   24   32    9  7.027e-06  7.027e-05  0.3210 y y y y y y y y 
   25   40    9  6.804e-06  6.804e-05  0.3210 y y y y y y y y 
   26   47    9  8.884e-06  8.884e-05  0.3210 y y y y y y y y 
   27   50    9  9.435e-06  9.435e-05  0.3210 y y y y y y y y 
   28   16    9  4.924e-06  4.924e-05  0.3210 y y y y y y y y Subspace collapsed.
   29   21    9  5.093e-06  5.093e-05  0.3210 y y y y y y y y 
   30   26    9  4.325e-06  4.325e-05  0.3210 y y y y y y y y 
   31   26    9  4.325e-06  4.325e-05  0.3210 y y y y y y y y 
   32   36    9  5.204e-06  5.204e-05  0.3210 y y y y y y y y 
   33   40    9  5.692e-06  5.692e-05  0.3210 y y y y y y y y 
   34   44    9  3.858e-06  3.858e-05  0.3210 y y y y y y y y 
   35   48    9  2.116e-06  2.116e-05  0.3210 y y y y y y y y 
   36   50    9  1.077e-06  1.077e-05  0.3210 y y y y y y y y 
   37   14    9  6.474e-07  6.474e-06  0.3210 y y y y y y y y Subspace collapsed.
   38   18    9  4.471e-07  4.471e-06  0.3210 y y y y y y y y 
   39   22    9  2.401e-07  2.401e-06  0.3210 y y y y y y y y 
   40   26    9  1.317e-07  1.317e-06  0.3210 y y y y y y y y 
   41   30   10  8.502e-08  8.502e-07  0.3210 y y y y y y y y Converged.
--------------------------------------------------------------------------------
  Davidson Summary: 
 ------------------------------------------------------------
  State  0: excitation energy =   0.3210 a.u.   (converged)
  State  1: excitation energy =   0.3318 a.u.   (converged)
  State  2: excitation energy =   0.3382 a.u.   (converged)
  State  3: excitation energy =   0.3618 a.u.   (converged)
  State  4: excitation energy =   0.3761 a.u.   (converged)
  State  5: excitation energy =   0.3882 a.u.   (converged)
  State  6: excitation energy =   0.4251 a.u.   (converged)
  State  7: excitation energy =   0.4462 a.u.   (converged)
  State  8: excitation energy =   0.4558 a.u.   (converged)
  State  9: excitation energy =   0.4647 a.u.   (converged)
 ------------------------------------------------------------

  Singlet states of irrep A ...  CPU 115.87 s  wall 29.53 s
  TDMs ...  CPU 0.58 s  wall 0.23 s
  SDMs ...  CPU 1.37 s  wall 0.45 s
  Starting TPA DIIS iterations ... 
------------------------------------ 
   It     Res. Norm  Remark
------------------------------------
                       Guess.
    1     4.407e+00  
    2     5.850e+00  
    3     1.083e+00  
    4     2.578e-01  
    5     6.553e-02  
    6     2.698e-02  
    7     8.313e-03  
    8     1.454e-03  
    9     5.368e-04  
   10     9.116e-05  
   11     2.861e-05  
   12     4.496e-06  
   13     1.464e-06  
   14     4.616e-07  Converged.
   ... Converged in 14 steps (norm: 4.61565e-07)
------------------------------------
  Starting TPA DIIS iterations ... 
------------------------------------ 
   It     Res. Norm  Remark
------------------------------------
                       Guess.
    1     4.198e+00  
    2     5.557e+00  
    3     1.026e+00  
    4     2.531e-01  
    5     6.515e-02  
    6     2.662e-02  
    7     8.115e-03  
    8     1.442e-03  
    9     5.375e-04  
   10     8.930e-05  
   11     2.824e-05  
   12     4.383e-06  
   13     1.443e-06  
   14     4.430e-07  Converged.
   ... Converged in 14 steps (norm: 4.43015e-07)
------------------------------------
  Starting TPA DIIS iterations ... 
------------------------------------ 
   It     Res. Norm  Remark
------------------------------------
                       Guess.
    1     6.829e-01  
    2     4.812e-01  
    3     1.708e-01  
    4     5.831e-02  
    5     1.813e-02  
    6     6.608e-03  
    7     1.025e-03  
    8     4.346e-04  
    9     1.277e-04  
   10     2.269e-05  
   11     8.455e-06  
   12     2.811e-06  
   13     1.915e-06  
   14     7.562e-07  Converged.
   ... Converged in 14 steps (norm: 7.5624e-07)
------------------------------------
  Starting TPA DIIS iterations ... 
------------------------------------ 
   It     Res. Norm  Remark
------------------------------------
                       Guess.
    1     4.674e+00  
    2     6.329e+00  
    3     1.158e+00  
    4     2.844e-01  
    5     7.321e-02  
    6     3.039e-02  
    7     9.347e-03  
    8     1.632e-03  
    9     6.066e-04  
   10     1.036e-04  
   11     3.283e-05  
   12     5.200e-06  
   13     1.705e-06  
   14     5.408e-07  Converged.
   ... Converged in 14 steps (norm: 5.40826e-07)
------------------------------------
  Starting TPA DIIS iterations ... 
------------------------------------ 
   It     Res. Norm  Remark
------------------------------------
                       Guess.
    1     4.451e+00  
    2     6.011e+00  
    3     1.097e+00  
    4     2.790e-01  
    5     7.280e-02  
    6     3.000e-02  
    7     9.123e-03  
    8     1.619e-03  
    9     6.077e-04  
   10     1.015e-04  
   11     3.238e-05  
   12     5.068e-06  
   13     1.681e-06  
   14     5.175e-07  Converged.
   ... Converged in 14 steps (norm: 5.17546e-07)
------------------------------------
  Starting TPA DIIS iterations ... 
------------------------------------ 
   It     Res. Norm  Remark
------------------------------------
                       Guess.
    1     6.939e-01  
    2     4.973e-01  
    3     1.800e-01  
    4     6.533e-02  
    5     1.945e-02  
    6     7.169e-03  
    7     1.148e-03  
    8     5.033e-04  
    9     1.499e-04  
   10     2.488e-05  
   11     9.748e-06  
   12     3.296e-06  
   13     2.364e-06  
   14     9.412e-07  Converged.
   ... Converged in 14 steps (norm: 9.41161e-07)
------------------------------------
  Starting TPA DIIS iterations ... 
------------------------------------ 
   It     Res. Norm  Remark
------------------------------------
                       Guess.
    1     4.844e+00  
    2     6.639e+00  
    3     1.206e+00  
    4     3.019e-01  
    5     7.828e-02  
    6     3.265e-02  
    7     1.003e-02  
    8     1.749e-03  
    9     6.528e-04  
   10     1.118e-04  
   11     3.565e-05  
   12     5.673e-06  
   13     1.869e-06  
   14     5.950e-07  Converged.
   ... Converged in 14 steps (norm: 5.94959e-07)
------------------------------------
  Starting TPA DIIS iterations ... 
------------------------------------ 
   It     Res. Norm  Remark
------------------------------------
                       Guess.
    1     4.613e+00  
    2     6.305e+00  
    3     1.142e+00  
    4     2.960e-01  
    5     7.784e-02  
    6     3.223e-02  
    7     9.787e-03  
    8     1.736e-03  
    9     6.542e-04  
   10     1.096e-04  
   11     3.515e-05  
   12     5.528e-06  
   13     1.842e-06  
   14     5.682e-07  Converged.
   ... Converged in 14 steps (norm: 5.6825e-07)
------------------------------------
  Starting TPA DIIS iterations ... 
------------------------------------ 
   It     Res. Norm  Remark
------------------------------------
                       Guess.
    1     7.006e-01  
    2     5.072e-01  
    3     1.858e-01  
    4     7.003e-02  
    5     2.027e-02  
    6     7.538e-03  
    7     1.230e-03  
    8     5.496e-04  
    9     1.648e-04  
   10     2.610e-05  
   11     1.063e-05  
   12     3.631e-06  
   13     2.683e-06  
   14     1.075e-06  
   15     4.105e-07  Converged.
   ... Converged in 15 steps (norm: 4.10512e-07)
------------------------------------
  Starting TPA DIIS iterations ... 
------------------------------------ 
   It     Res. Norm  Remark
------------------------------------
                       Guess.
    1     5.569e+00  
    2     7.994e+00  
    3     1.410e+00  
    4     3.811e-01  
    5     1.012e-01  
    6     4.296e-02  
    7     1.311e-02  
    8     2.276e-03  
    9     8.634e-04  
   10     1.496e-04  
   11     4.882e-05  
   12     7.888e-06  
   13     2.653e-06  
   14     8.591e-07  Converged.
   ... Converged in 14 steps (norm: 8.59142e-07)
------------------------------------
  Starting TPA DIIS iterations ... 
------------------------------------ 
   It     Res. Norm  Remark
------------------------------------
                       Guess.
    1     5.301e+00  
    2     7.592e+00  
    3     1.335e+00  
    4     3.727e-01  
    5     1.006e-01  
    6     4.244e-02  
    7     1.279e-02  
    8     2.262e-03  
    9     8.663e-04  
   10     1.466e-04  
   11     4.809e-05  
   12     7.682e-06  
   13     2.611e-06  
   14     8.138e-07  Converged.
   ... Converged in 14 steps (norm: 8.13829e-07)
------------------------------------
  Starting TPA DIIS iterations ... 
------------------------------------ 
   It     Res. Norm  Remark
------------------------------------
                       Guess.
    1     7.265e-01  
    2     5.475e-01  
    3     2.097e-01  
    4     9.202e-02  
    5     2.374e-02  
    6     9.207e-03  
    7     1.617e-03  
    8     7.610e-04  
    9     2.324e-04  
   10     3.034e-05  
   11     1.486e-05  
   12     5.300e-06  
   13     4.359e-06  
   14     1.798e-06  
   15     6.274e-07  Converged.
   ... Converged in 15 steps (norm: 6.27382e-07)
------------------------------------
  Starting TPA DIIS iterations ... 
------------------------------------ 
   It     Res. Norm  Remark
------------------------------------
                       Guess.
    1     6.098e+00  
    2     9.018e+00  
    3     1.558e+00  
    4     4.432e-01  
    5     1.191e-01  
    6     5.115e-02  
    7     1.553e-02  
    8     2.687e-03  
    9     1.030e-03  
   10     1.795e-04  
   11     5.949e-05  
   12     9.688e-06  
   13     3.307e-06  
   14     1.089e-06  
   15     3.827e-07  Converged.
   ... Converged in 15 steps (norm: 3.82681e-07)
------------------------------------
  Starting TPA DIIS iterations ... 
------------------------------------ 
   It     Res. Norm  Remark
------------------------------------
                       Guess.
    1     5.803e+00  
    2     8.563e+00  
    3     1.474e+00  
    4     4.327e-01  
    5     1.185e-01  
    6     5.055e-02  
    7     1.515e-02  
    8     2.673e-03  
    9     1.034e-03  
   10     1.760e-04  
   11     5.855e-05  
   12     9.433e-06  
   13     3.252e-06  
   14     1.026e-06  
   15     3.227e-07  Converged.
   ... Converged in 15 steps (norm: 3.22659e-07)
------------------------------------
  Starting TPA DIIS iterations ... 
------------------------------------ 
   It     Res. Norm  Remark
------------------------------------
                       Guess.
    1     7.431e-01  
    2     5.749e-01  
    3     2.265e-01  
    4     1.099e-01  
    5     2.629e-02  
    6     1.052e-02  
    7     1.935e-03  
    8     9.189e-04  
    9     2.832e-04  
   10     3.363e-05  
   11     1.848e-05  
   12     6.785e-06  
   13     5.934e-06  
   14     2.484e-06  
   15     8.024e-07  Converged.
   ... Converged in 15 steps (norm: 8.02383e-07)
------------------------------------
  Starting TPA DIIS iterations ... 
------------------------------------ 
   It     Res. Norm  Remark
------------------------------------
                       Guess.
    1     6.615e+00  
    2     1.004e+01  
    3     1.701e+00  
    4     5.070e-01  
    5     1.375e-01  
    6     5.964e-02  
    7     1.801e-02  
    8     3.109e-03  
    9     1.203e-03  
   10     2.106e-04  
   11     7.066e-05  
   12     1.158e-05  
   13     4.006e-06  
   14     1.347e-06  
   15     4.813e-07  Converged.
   ... Converged in 15 steps (norm: 4.81275e-07)
------------------------------------
  Starting TPA DIIS iterations ... 
------------------------------------ 
   It     Res. Norm  Remark
------------------------------------
                       Guess.
    1     6.293e+00  
    2     9.536e+00  
    3     1.609e+00  
    4     4.944e-01  
    5     1.369e-01  
    6     5.896e-02  
    7     1.757e-02  
    8     3.094e-03  
    9     1.208e-03  
   10     2.064e-04  
   11     6.950e-05  
   12     1.127e-05  
   13     3.933e-06  
   14     1.263e-06  
   15     3.972e-07  Converged.
   ... Converged in 15 steps (norm: 3.97151e-07)
------------------------------------
  Starting TPA DIIS iterations ... 
------------------------------------ 
   It     Res. Norm  Remark
------------------------------------
                       Guess.
    1     7.579e-01  
    2     6.002e-01  
    3     2.425e-01  
    4     1.288e-01  
    5     2.884e-02  
    6     1.187e-02  
    7     2.274e-03  
    8     1.066e-03  
    9     3.326e-04  
   10     3.787e-05  
   11     2.246e-05  
   12     8.473e-06  
   13     7.789e-06  
   14     3.285e-06  
   15     1.003e-06  
   16     5.074e-07  Converged.
   ... Converged in 16 steps (norm: 5.07371e-07)
------------------------------------
  Starting TPA DIIS iterations ... 
------------------------------------ 
   It     Res. Norm  Remark
------------------------------------
                       Guess.
    1     8.710e+00  
    2     1.444e+01  
    3     2.272e+00  
    4     7.933e-01  
    5     2.203e-01  
    6     9.854e-02  
    7     2.916e-02  
    8     4.986e-03  
    9     1.989e-03  
   10     3.516e-04  
   11     1.213e-04  
   12     2.036e-05  
   13     7.284e-06  
   14     2.793e-06  
   15     1.016e-06  
   16     5.708e-07  Converged.
   ... Converged in 16 steps (norm: 5.7081e-07)
------------------------------------
  Starting TPA DIIS iterations ... 
------------------------------------ 
   It     Res. Norm  Remark
------------------------------------
                       Guess.
    1     8.282e+00  
    2     1.371e+01  
    3     2.148e+00  
    4     7.695e-01  
    5     2.193e-01  
    6     9.752e-02  
    7     2.844e-02  
    8     4.976e-03  
    9     2.002e-03  
   10     3.448e-04  
   11     1.194e-04  
   12     1.985e-05  
   13     7.105e-06  
   14     2.584e-06  
   15     7.865e-07  Converged.
   ... Converged in 15 steps (norm: 7.8651e-07)
------------------------------------
  Starting TPA DIIS iterations ... 
------------------------------------ 
   It     Res. Norm  Remark
------------------------------------
                       Guess.
    1     8.067e-01  
    2     6.924e-01  
    3     3.035e-01  
    4     2.152e-01  
    5     3.995e-02  
    6     1.785e-02  
    7     3.883e-03  
    8     1.517e-03  
    9     5.225e-04  
   10     6.602e-05  
   11     4.308e-05  
   12     1.799e-05  
   13     1.883e-05  
   14     7.830e-06  
   15     2.518e-06  
   16     1.305e-06  
   17     3.099e-07  Converged.
   ... Converged in 17 steps (norm: 3.0985e-07)
------------------------------------
  Starting TPA DIIS iterations ... 
------------------------------------ 
   It     Res. Norm  Remark
------------------------------------
                       Guess.
    1     1.044e+01  
    2     1.833e+01  
    3     2.732e+00  
    4     1.056e+00  
    5     2.968e-01  
    6     1.353e-01  
    7     3.946e-02  
    8     6.707e-03  
    9     2.727e-03  
   10     4.833e-04  
   11     1.667e-04  
   12     2.884e-05  
   13     1.036e-05  
   14     4.537e-06  
   15     1.653e-06  
   16     1.065e-06  
   17     2.365e-07  Converged.
   ... Converged in 17 steps (norm: 2.36459e-07)
------------------------------------
  Starting TPA DIIS iterations ... 
------------------------------------ 
   It     Res. Norm  Remark
------------------------------------
                       Guess.
    1     9.925e+00  
    2     1.740e+01  
    3     2.582e+00  
    4     1.020e+00  
    5     2.954e-01  
    6     1.340e-01  
    7     3.848e-02  
    8     6.703e-03  
    9     2.748e-03  
   10     4.740e-04  
   11     1.646e-04  
   12     2.818e-05  
   13     1.003e-05  
   14     4.188e-06  
   15     1.277e-06  
   16     9.836e-07  Converged.
   ... Converged in 16 steps (norm: 9.83602e-07)
------------------------------------
  Starting TPA DIIS iterations ... 
------------------------------------ 
   It     Res. Norm  Remark
------------------------------------
                       Guess.
    1     8.381e-01  
    2     7.590e-01  
    3     3.500e-01  
    4     2.924e-01  
    5     4.992e-02  
    6     2.299e-02  
    7     5.410e-03  
    8     1.714e-03  
    9     6.683e-04  
   10     9.627e-05  
   11     6.528e-05  
   12     2.936e-05  
   13     3.233e-05  
   14     1.306e-05  
   15     4.877e-06  
   16     2.274e-06  
   17     4.840e-07  Converged.
   ... Converged in 17 steps (norm: 4.8397e-07)
------------------------------------
  Starting TPA DIIS iterations ... 
------------------------------------ 
   It     Res. Norm  Remark
------------------------------------
                       Guess.
    1     1.141e+01  
    2     2.059e+01  
    3     2.984e+00  
    4     1.209e+00  
    5     3.422e-01  
    6     1.574e-01  
    7     4.556e-02  
    8     7.722e-03  
    9     3.168e-03  
   10     5.615e-04  
   11     1.928e-04  
   12     3.409e-05  
   13     1.225e-05  
   14     5.742e-06  
   15     2.116e-06  
   16     1.438e-06  
   17     3.072e-07  Converged.
   ... Converged in 17 steps (norm: 3.07234e-07)
------------------------------------
  Starting TPA DIIS iterations ... 
------------------------------------ 
   It     Res. Norm  Remark
------------------------------------
                       Guess.
    1     1.084e+01  
    2     1.955e+01  
    3     2.820e+00  
    4     1.167e+00  
    5     3.406e-01  
    6     1.559e-01  
    7     4.443e-02  
    8     7.724e-03  
    9     3.194e-03  
   10     5.508e-04  
   11     1.908e-04  
   12     3.335e-05  
   13     1.179e-05  
   14     5.303e-06  
   15     1.667e-06  
   16     1.351e-06  
   17     5.576e-07  Converged.
   ... Converged in 17 steps (norm: 5.57554e-07)
------------------------------------
  Starting TPA DIIS iterations ... 
------------------------------------ 
   It     Res. Norm  Remark
------------------------------------
                       Guess.
    1     8.532e-01  
    2     7.936e-01  
    3     3.747e-01  
    4     3.349e-01  
    5     5.570e-02  
    6     2.581e-02  
    7     6.307e-03  
    8     1.786e-03  
    9     7.471e-04  
   10     1.142e-04  
   11     7.958e-05  
   12     3.715e-05  
   13     4.162e-05  
   14     1.651e-05  
   15     6.620e-06  
   16     2.929e-06  
   17     6.007e-07  Converged.
   ... Converged in 17 steps (norm: 6.00697e-07)
------------------------------------
  Starting TPA DIIS iterations ... 
------------------------------------ 
   It     Res. Norm  Remark
------------------------------------
                       Guess.
    1     1.243e+01  
    2     2.307e+01  
    3     3.248e+00  
    4     1.378e+00  
    5     3.923e-01  
    6     1.820e-01  
    7     5.231e-02  
    8     8.843e-03  
    9     3.659e-03  
   10     6.481e-04  
   11     2.211e-04  
   12     4.013e-05  
   13     1.445e-05  
   14     7.210e-06  
   15     2.714e-06  
   16     1.916e-06  
   17     4.103e-07  Converged.
   ... Converged in 17 steps (norm: 4.10314e-07)
------------------------------------
  Starting TPA DIIS iterations ... 
------------------------------------ 
   It     Res. Norm  Remark
------------------------------------
                       Guess.
    1     1.182e+01  
    2     2.190e+01  
    3     3.070e+00  
    4     1.328e+00  
    5     3.905e-01  
    6     1.804e-01  
    7     5.100e-02  
    8     8.851e-03  
    9     3.691e-03  
   10     6.358e-04  
   11     2.193e-04  
   12     3.929e-05  
   13     1.381e-05  
   14     6.671e-06  
   15     2.201e-06  
   16     1.829e-06  
   17     7.449e-07  Converged.
   ... Converged in 17 steps (norm: 7.44922e-07)
------------------------------------
  Starting TPA DIIS iterations ... 
------------------------------------ 
   It     Res. Norm  Remark
------------------------------------
                       Guess.
    1     8.679e-01  
    2     8.286e-01  
    3     4.001e-01  
    4     3.785e-01  
    5     6.197e-02  
    6     2.868e-02  
    7     7.284e-03  
    8     1.851e-03  
    9     8.295e-04  
   10     1.338e-04  
   11     9.623e-05  
   12     4.661e-05  
   13     5.297e-05  
   14     2.058e-05  
   15     8.795e-06  
   16     3.712e-06  
   17     7.511e-07  Converged.
   ... Converged in 17 steps (norm: 7.51126e-07)
------------------------------------
  Two-photon absorbption ...  CPU 102.75 s  wall 19.30 s
  Transition density matrix of state singlet_A_1 printed to ASCII file 'State_singlet_A_1_Transition.txt'
  Transition density matrix of state singlet_A_2 printed to ASCII file 'State_singlet_A_2_Transition.txt'
  Transition density matrix of state singlet_A_3 printed to ASCII file 'State_singlet_A_3_Transition.txt'
  Transition density matrix of state singlet_A_4 printed to ASCII file 'State_singlet_A_4_Transition.txt'
  Transition density matrix of state singlet_A_5 printed to ASCII file 'State_singlet_A_5_Transition.txt'
  Transition density matrix of state singlet_A_6 printed to ASCII file 'State_singlet_A_6_Transition.txt'
  Transition density matrix of state singlet_A_7 printed to ASCII file 'State_singlet_A_7_Transition.txt'
  Transition density matrix of state singlet_A_8 printed to ASCII file 'State_singlet_A_8_Transition.txt'
  Transition density matrix of state singlet_A_9 printed to ASCII file 'State_singlet_A_9_Transition.txt'
  Transition density matrix of state singlet_A_10 printed to ASCII file 'State_singlet_A_10_Transition.txt'
  Transition properties ...  CPU 0.14 s  wall 0.59 s
  Difference density matrix of state singlet_A_1 printed to ASCII file 'State_singlet_A_1_Difference.txt'
  Total density matrix of state singlet_A_1 printed to ASCII file 'State_singlet_A_1_Total.txt'
  Difference density matrix of state singlet_A_2 printed to ASCII file 'State_singlet_A_2_Difference.txt'
  Total density matrix of state singlet_A_2 printed to ASCII file 'State_singlet_A_2_Total.txt'
  Difference density matrix of state singlet_A_3 printed to ASCII file 'State_singlet_A_3_Difference.txt'
  Total density matrix of state singlet_A_3 printed to ASCII file 'State_singlet_A_3_Total.txt'
  Difference density matrix of state singlet_A_4 printed to ASCII file 'State_singlet_A_4_Difference.txt'
  Total density matrix of state singlet_A_4 printed to ASCII file 'State_singlet_A_4_Total.txt'
  Difference density matrix of state singlet_A_5 printed to ASCII file 'State_singlet_A_5_Difference.txt'
  Total density matrix of state singlet_A_5 printed to ASCII file 'State_singlet_A_5_Total.txt'
  Difference density matrix of state singlet_A_6 printed to ASCII file 'State_singlet_A_6_Difference.txt'
  Total density matrix of state singlet_A_6 printed to ASCII file 'State_singlet_A_6_Total.txt'
  Difference density matrix of state singlet_A_7 printed to ASCII file 'State_singlet_A_7_Difference.txt'
  Total density matrix of state singlet_A_7 printed to ASCII file 'State_singlet_A_7_Total.txt'
  Difference density matrix of state singlet_A_8 printed to ASCII file 'State_singlet_A_8_Difference.txt'
  Total density matrix of state singlet_A_8 printed to ASCII file 'State_singlet_A_8_Total.txt'
  Difference density matrix of state singlet_A_9 printed to ASCII file 'State_singlet_A_9_Difference.txt'
  Total density matrix of state singlet_A_9 printed to ASCII file 'State_singlet_A_9_Total.txt'
  Difference density matrix of state singlet_A_10 printed to ASCII file 'State_singlet_A_10_Difference.txt'
  Total density matrix of state singlet_A_10 printed to ASCII file 'State_singlet_A_10_Total.txt'
  Properties ...  CPU 0.27 s  wall 1.19 s
  ISR TDMS ...  CPU 8.02 s  wall 2.69 s
  ISR transition properties ...  CPU 0.15 s  wall 0.07 s
  Sum-over-states TPA ...  CPU 0.00 s  wall 0.00 s

--------------------------------------------------------------------------------
                   State-averaged natural transition orbitals
--------------------------------------------------------------------------------
--------------------------------------------------------------------------------
  SA-NTO decomposition ...  CPU 0.01 s  wall 0.05 s

--------------------------------------------------------------------------------
                             Excited State Summary
--------------------------------------------------------------------------------
--------------------------------------------------------------------------------

  Excited state 1 (singlet, A)                                     [converged]
  ----------------------------------------------------------------------------
  Term symbol:  2 (1) A                                     R^2 =  8.94082e-14

  Total energy:                                            -77.9984243199 a.u.
  Excitation energy:                                               8.734043 eV

  Osc. strength:                                                      0.445147
  Trans. dip. moment [a.u.]:           [   1.048798,   -0.990084,   -0.008729]
  <i|r^2|0> [a.u.]:                    [   6.177046,   -0.236228,    0.000341]
  Two-photon absorption cross-section (SoS) [a.u.]:                   0.009195
  Two-photon absorption matrix (SoS) [a.u.]:
                                       |   -0.026963    0.010905    0.000598 |
                                       |    0.010905    0.004504    0.002129 |
                                       |    0.000598    0.002129   -0.020029 |
  Two-photon absorption cross-section [a.u.]:                         0.007530
  Two-photon absorption matrix [a.u.]:
                                       |   -0.015478    0.011237   -0.001237 |
                                       |    0.011237    0.032712    0.001306 |
                                       |   -0.001237    0.001306   -0.017713 |

  Dip. moment [a.u.]:                  [   0.002658,   -0.001458,   -0.000046]
  Total dipole [Debye]:                                               0.007706
  <r^2> [a.u.]:                        [ 175.780860,   35.615031,   11.860648]
  Total <r^2> [a.u.]:                                               223.256539

  V1^2 = 0.9715, V2^2 = 0.0285

  Important amplitudes:
      occ i     occ j     vir a      vir b          v   
    -----------------------------------------------------
     8 (A) A              9 (A) A                -0.6812
     6 (A) A             14 (A) A                 0.0620
     4 (A) A             10 (A) A                 0.0599
     7 (A) A             16 (A) A                 0.0578
     5 (A) A             13 (A) A                -0.0515
     6 (A) A             23 (A) A                 0.0479
     8 (A) A             20 (A) A                -0.0347
     6 (A) A             19 (A) A                -0.0312
     3 (A) A             12 (A) A                -0.0282
     5 (A) A             22 (A) A                -0.0214
     7 (A) A             11 (A) A                 0.0194
     4 (A) A             24 (A) A                 0.0187
     8 (A) A   8 (A) B   17 (A) A   20 (A) B      0.0184
     3 (A) A             26 (A) A                -0.0183
     8 (A) A   8 (A) B    9 (A) A   28 (A) B     -0.0169
     6 (A) A             26 (A) A                 0.0165
     7 (A) A             21 (A) A                -0.0143
     3 (A) A             14 (A) A                -0.0140
     3 (A) A   4 (A) B    9 (A) A    9 (A) B     -0.0129
     6 (A) A             12 (A) A                -0.0127
     3 (A) A             19 (A) A                 0.0120
     8 (A) A   8 (A) B   18 (A) A   19 (A) B     -0.0113
     7 (A) A             32 (A) A                -0.0087
     7 (A) A             36 (A) A                 0.0086
     3 (A) A             23 (A) A                -0.0077
     8 (A) A   8 (A) B   25 (A) A   29 (A) B     -0.0076
     6 (A) A             35 (A) A                -0.0072
     6 (A) A             40 (A) A                -0.0068
     3 (A) A   6 (A) B    9 (A) A   28 (A) B      0.0065
     6 (A) A   8 (A) A   19 (A) A   28 (A) A      0.0061
     5 (A) A   7 (A) B    9 (A) A    9 (A) B      0.0060
     5 (A) A   8 (A) B   11 (A) A    9 (A) B      0.0060
     7 (A) A   8 (A) B   13 (A) A   20 (A) B      0.0059
     5 (A) A   8 (A) B   11 (A) A   20 (A) B     -0.0059
     5 (A) A   8 (A) B   16 (A) A    9 (A) B     -0.0059
     3 (A) A   5 (A) B    9 (A) A   25 (A) B      0.0058
     7 (A) A   8 (A) B   22 (A) A   20 (A) B      0.0057
     3 (A) A             40 (A) A                 0.0057
     5 (A) A             27 (A) A                 0.0056
     6 (A) A   8 (A) A    9 (A) A   18 (A) A     -0.0056
    -----------------------------------------------------

  Density matrix analysis:
  ------------------------
  NOs
    Occupation of frontier NOs:
       0.9498   1.0215
    Number of electrons: 16.000000
    Number of unpaired electrons: n_u =  2.31297, n_u,nl =  2.03251
    NO participation ratio (PR_NO):  2.861594
  
  
  Mulliken Population Analysis
  Atom      Charge (e)              h+              e-           Del q
  --------------------------------------------------------------------
   1 H        0.057242        0.020419       -0.012463        0.007956
   2 C       -0.115793        0.490505       -0.506790       -0.016285
   3 H        0.056562        0.020426       -0.012372        0.008054
   4 C       -0.115552        0.491026       -0.506364       -0.015339
   5 H        0.058782        0.020355       -0.012504        0.007851
   6 H        0.058759        0.020257       -0.012494        0.007762
  --------------------------------------------------------------------
  Sum:        0.000000        1.062987       -1.062987       -0.000000
  
  Multipole moment analysis of the density matrix
    Molecular charge:                      0.000000
    Number of electrons:                   16.000000
      Center of electronic charge [Ang]: [ -1.558164,  -0.065554,   0.001980]
    Total nuclear charge:                  16.000000
      Center of nuclear charge [Ang]:    [ -1.558076,  -0.065602,   0.001978]
    Dipole moment [D]:                     0.007706
      Cartesian components [D]:          [  0.006756,  -0.003705,  -0.000116]
    RMS size of the density [Ang]:         1.214582
      Cartesian components [Ang]:        [  0.805359,   0.786784,   0.455608]
  
  Exciton analysis of the difference density matrix
    <r_h> [Ang]:                  [ -1.559476,  -0.065440,   0.001953]
    <r_e> [Ang]:                  [ -1.559482,  -0.065902,   0.001934]
    |<r_e - r_h>| [Ang]:            0.000462
    Hole size [Ang]:                1.285556
      Cartesian components [Ang]: [  0.728975,   0.712531,   0.783293]
    Electron size [Ang]:            1.463117
      Cartesian components [Ang]: [  0.853922,   0.830461,   0.849625]

  Transition density matrix analysis:
  -----------------------------------
  
  CT numbers (Mulliken)
    omega =     0.9536
    <Phe> =    -0.1611
  
  Exciton analysis of the transition density matrix
    Trans. dipole moment [D]:             1.833020
      Cartesian components [D]:         [  1.332889,  -1.258271,  -0.011093]
    <r_h> [Ang]:                        [ -1.560012,  -0.065230,   0.001937]
    <r_e> [Ang]:                        [ -1.559395,  -0.065890,   0.001945]
    |<r_e - r_h>| [Ang]:                  0.000903
    Hole size [Ang]:                      1.214080
      Cartesian components [Ang]:       [  0.649745,   0.636228,   0.804386]
    Electron size [Ang]:                  1.486094
      Cartesian components [Ang]:       [  0.864514,   0.839341,   0.869827]
    RMS electron-hole separation [Ang]:   1.937332
      Cartesian components [Ang]:       [  1.107143,   1.075753,   1.170575]
    Covariance(r_h, r_e) [Ang^2]:        -0.035393
    Correlation coefficient:             -0.019617
    Center-of-mass size [Ang]:            0.950221
      Cartesian components [Ang]:       [  0.527574,   0.515101,   0.599380]

  Decomposition into state-averaged NTOs
    H- 0 -> L+ 0:  0.6700 ( 89.8%)
    H- 2 -> L+ 5:  0.0833 (  1.4%)
                   omega =  95.4%
  ----------------------------------------------------------------------------


  Excited state 2 (singlet, A)                                     [converged]
  ----------------------------------------------------------------------------
  Term symbol:  3 (1) A                                     R^2 =  7.81379e-14

  Total energy:                                            -77.9875862744 a.u.
  Excitation energy:                                               9.028961 eV

  Osc. strength:                                                      0.000064
  Trans. dip. moment [a.u.]:           [  -0.004135,    0.005595,   -0.015579]
  <i|r^2|0> [a.u.]:                    [  -0.092314,   -0.080950,    0.150377]
  Two-photon absorption cross-section (SoS) [a.u.]:                   4.502297
  Two-photon absorption matrix (SoS) [a.u.]:
                                       |   -0.053328   -0.056949    0.522661 |
                                       |   -0.056949   -0.060622    0.525990 |
                                       |    0.522661    0.525990    0.113527 |
  Two-photon absorption cross-section [a.u.]:                         0.087033
  Two-photon absorption matrix [a.u.]:
                                       |    0.000306    0.007324   -0.086058 |
                                       |    0.007324    0.014581   -0.056576 |
                                       |   -0.086058   -0.056576   -0.014985 |

  Dip. moment [a.u.]:                  [   0.007272,   -0.030917,   -0.001661]
  Total dipole [Debye]:                                               0.080839
  <r^2> [a.u.]:                        [ 174.081400,   34.036057,   13.169707]
  Total <r^2> [a.u.]:                                               221.287164

  V1^2 = 0.9542, V2^2 = 0.0458

  Important amplitudes:
      occ i     occ j     vir a      vir b          v   
    -----------------------------------------------------
     7 (A) A              9 (A) A                 0.6699
     8 (A) A             11 (A) A                -0.1420
     7 (A) A             20 (A) A                 0.0759
     5 (A) A   8 (A) B    9 (A) A    9 (A) B     -0.0318
     8 (A) A             10 (A) A                 0.0309
     8 (A) A             16 (A) A                 0.0268
     8 (A) A             21 (A) A                 0.0170
     5 (A) A             28 (A) A                 0.0151
     4 (A) A   7 (A) B    9 (A) A   19 (A) B     -0.0135
     5 (A) A   7 (A) B    9 (A) A   16 (A) B     -0.0134
     7 (A) A   8 (A) B   20 (A) A   17 (A) B     -0.0105
     7 (A) A   8 (A) A    9 (A) A   28 (A) A     -0.0098
     5 (A) A   8 (A) B    9 (A) A   20 (A) B     -0.0096
     4 (A) A   6 (A) B    9 (A) A   16 (A) B      0.0091
     5 (A) A   6 (A) A    9 (A) A   23 (A) A     -0.0090
     5 (A) A   6 (A) A    9 (A) A   14 (A) A     -0.0089
     5 (A) A   6 (A) B    9 (A) A   19 (A) B      0.0087
     8 (A) A   7 (A) B    9 (A) A   28 (A) B      0.0085
     4 (A) A   5 (A) A    9 (A) A   10 (A) A      0.0084
     6 (A) A   7 (A) B    9 (A) A   18 (A) B      0.0084
     3 (A) A   7 (A) B    9 (A) A   18 (A) B      0.0080
     5 (A) A   7 (A) A    9 (A) A   16 (A) A     -0.0080
     5 (A) A   6 (A) B    9 (A) A   23 (A) B     -0.0079
     4 (A) A   8 (A) B    9 (A) A   25 (A) B      0.0076
     7 (A) A   8 (A) B   17 (A) A   20 (A) B     -0.0074
     4 (A) A   7 (A) B   19 (A) A    9 (A) B     -0.0074
     5 (A) A   5 (A) B    9 (A) A   13 (A) B      0.0072
     7 (A) A   8 (A) B   19 (A) A   18 (A) B      0.0071
     5 (A) A   8 (A) A    9 (A) A   20 (A) A     -0.0069
     4 (A) A   5 (A) B    9 (A) A   18 (A) B     -0.0068
     7 (A) A   7 (A) B   20 (A) A   22 (A) B     -0.0065
     7 (A) A   8 (A) B   17 (A) A    9 (A) B     -0.0065
     5 (A) A   6 (A) B    9 (A) A   14 (A) B     -0.0064
     4 (A) A   5 (A) B   10 (A) A    9 (A) B     -0.0061
     4 (A) A   7 (A) A    9 (A) A   19 (A) A     -0.0061
     5 (A) A   7 (A) B   11 (A) A   20 (A) B      0.0060
     5 (A) A             38 (A) A                -0.0060
     4 (A) A   6 (A) B   16 (A) A    9 (A) B      0.0058
     6 (A) A   7 (A) A   19 (A) A   28 (A) A     -0.0057
     4 (A) A   8 (A) A    9 (A) A   25 (A) A      0.0057
    -----------------------------------------------------

  Density matrix analysis:
  ------------------------
  NOs
    Occupation of frontier NOs:
       0.9599   1.0519
    Number of electrons: 16.000000
    Number of unpaired electrons: n_u =  2.35484, n_u,nl =  2.06143
    NO participation ratio (PR_NO):  3.015289
  
  
  Mulliken Population Analysis
  Atom      Charge (e)              h+              e-           Del q
  --------------------------------------------------------------------
   1 H        0.152602        0.132335       -0.029020        0.103315
   2 C       -0.301693        0.275654       -0.477838       -0.202185
   3 H        0.151505        0.121355       -0.018359        0.102996
   4 C       -0.302695        0.269207       -0.471688       -0.202481
   5 H        0.143984        0.121749       -0.028695        0.093054
   6 H        0.156297        0.124662       -0.019362        0.105300
  --------------------------------------------------------------------
  Sum:        0.000000        1.044962       -1.044962       -0.000000
  
  Multipole moment analysis of the density matrix
    Molecular charge:                      0.000000
    Number of electrons:                   16.000000
      Center of electronic charge [Ang]: [ -1.558317,  -0.064580,   0.002033]
    Total nuclear charge:                  16.000000
      Center of nuclear charge [Ang]:    [ -1.558076,  -0.065602,   0.001978]
    Dipole moment [D]:                     0.080839
      Cartesian components [D]:          [  0.018484,  -0.078584,  -0.004222]
    RMS size of the density [Ang]:         1.200164
      Cartesian components [Ang]:        [  0.786374,   0.769104,   0.480093]
  
  Exciton analysis of the difference density matrix
    <r_h> [Ang]:                  [ -1.541661,  -0.068314,   0.002598]
    <r_e> [Ang]:                  [ -1.544005,  -0.053865,   0.003397]
    |<r_e - r_h>| [Ang]:            0.014659
    Hole size [Ang]:                1.487071
      Cartesian components [Ang]: [  1.019032,   0.983539,   0.453435]
    Electron size [Ang]:            1.474692
      Cartesian components [Ang]: [  0.881468,   0.855072,   0.816445]

  Transition density matrix analysis:
  -----------------------------------
  
  CT numbers (Mulliken)
    omega =     0.9218
    <Phe> =    -0.0122
  
  Exciton analysis of the transition density matrix
    Trans. dipole moment [D]:             0.021684
      Cartesian components [D]:         [ -0.005255,   0.007111,  -0.019799]
    <r_h> [Ang]:                        [ -1.539421,  -0.069509,   0.002620]
    <r_e> [Ang]:                        [ -1.545232,  -0.052265,   0.003442]
    |<r_e - r_h>| [Ang]:                  0.018215
    Hole size [Ang]:                      1.516322
      Cartesian components [Ang]:       [  1.044256,   1.006247,   0.442974]
    Electron size [Ang]:                  1.471738
      Cartesian components [Ang]:       [  0.871429,   0.844768,   0.832461]
    RMS electron-hole separation [Ang]:   2.093286
      Cartesian components [Ang]:       [  1.344144,   1.298960,   0.942245]
    Covariance(r_h, r_e) [Ang^2]:         0.041864
    Correlation coefficient:              0.018760
    Center-of-mass size [Ang]:            1.066416
      Cartesian components [Ang]:       [  0.687938,   0.664329,   0.471860]

  Decomposition into state-averaged NTOs
    H- 1 -> L+ 0: -0.6623 ( 87.7%)
    H- 0 -> L+ 2:  0.1406 (  4.0%)
                   omega =  92.2%
  ----------------------------------------------------------------------------


  Excited state 3 (singlet, A)                                     [converged]
  ----------------------------------------------------------------------------
  Term symbol:  4 (1) A                                     R^2 =  1.66855e-13

  Total energy:                                            -77.9811938306 a.u.
  Excitation energy:                                               9.202908 eV

  Osc. strength:                                                      0.026007
  Trans. dip. moment [a.u.]:           [   0.015226,    0.021137,   -0.338628]
  <i|r^2|0> [a.u.]:                    [   0.089931,    0.010391,   -0.002819]
  Two-photon absorption cross-section (SoS) [a.u.]:                   0.146245
  Two-photon absorption matrix (SoS) [a.u.]:
                                       |   -0.025025   -0.011188    0.096193 |
                                       |   -0.011188    0.004878    0.091567 |
                                       |    0.096193    0.091567    0.019638 |
  Two-photon absorption cross-section [a.u.]:                         0.115628
  Two-photon absorption matrix [a.u.]:
                                       |   -0.020924   -0.009586    0.097728 |
                                       |   -0.009586    0.003307    0.066647 |
                                       |    0.097728    0.066647    0.017005 |

  Dip. moment [a.u.]:                  [  -0.055303,   -0.118199,   -0.009647]
  Total dipole [Debye]:                                               0.332595
  <r^2> [a.u.]:                        [ 180.219903,   40.577728,   11.040492]
  Total <r^2> [a.u.]:                                               231.838123

  V1^2 = 0.9587, V2^2 = 0.0413

  Important amplitudes:
      occ i     occ j     vir a      vir b          v   
    -----------------------------------------------------
     8 (A) A             10 (A) A                 0.6883
     8 (A) A             24 (A) A                 0.0506
     7 (A) A              9 (A) A                -0.0329
     8 (A) A             18 (A) A                -0.0309
     4 (A) A              9 (A) A                -0.0233
     8 (A) A   8 (A) B    9 (A) A   12 (A) B      0.0219
     8 (A) A   8 (A) B   10 (A) A   17 (A) B      0.0173
     5 (A) A   8 (A) B   11 (A) A   10 (A) B     -0.0166
     8 (A) A             15 (A) A                -0.0153
     7 (A) A   8 (A) B   13 (A) A   10 (A) B      0.0142
     6 (A) A   8 (A) A   10 (A) A   15 (A) A     -0.0112
     4 (A) A   8 (A) B   12 (A) A   10 (A) B     -0.0111
     6 (A) A   8 (A) B   15 (A) A   10 (A) B      0.0109
     7 (A) A   8 (A) B   22 (A) A   10 (A) B      0.0108
     4 (A) A   8 (A) A   10 (A) A   12 (A) A      0.0106
     7 (A) A   8 (A) A   10 (A) A   22 (A) A     -0.0099
     7 (A) A   8 (A) A   10 (A) A   13 (A) A     -0.0098
     5 (A) A   8 (A) A   10 (A) A   11 (A) A      0.0096
     5 (A) A   8 (A) B   21 (A) A   10 (A) B      0.0095
     6 (A) A   8 (A) B   10 (A) A   10 (A) B      0.0087
     6 (A) A   8 (A) A   10 (A) A   18 (A) A      0.0085
     7 (A) A   8 (A) A   12 (A) A   16 (A) A     -0.0082
     5 (A) A   8 (A) A   10 (A) A   21 (A) A     -0.0080
     3 (A) A   4 (A) B   10 (A) A    9 (A) B      0.0079
     8 (A) A   8 (A) B    9 (A) A   23 (A) B     -0.0075
     4 (A) A   8 (A) B   19 (A) A   10 (A) B      0.0074
     8 (A) A   8 (A) B   10 (A) A   28 (A) B      0.0073
     3 (A) A   8 (A) B   10 (A) A   10 (A) B      0.0071
     3 (A) A   8 (A) A   10 (A) A   24 (A) A     -0.0071
     7 (A) A   8 (A) B   16 (A) A   12 (A) B      0.0071
     5 (A) A   8 (A) B   10 (A) A   11 (A) B     -0.0070
     3 (A) A   8 (A) B   10 (A) A   18 (A) B     -0.0069
     8 (A) A             11 (A) A                -0.0068
     8 (A) A   8 (A) B    9 (A) A   19 (A) B     -0.0066
     6 (A) A   8 (A) B   18 (A) A   10 (A) B     -0.0064
     3 (A) A   6 (A) B   10 (A) A   28 (A) B     -0.0062
     7 (A) A   8 (A) B   12 (A) A   11 (A) B     -0.0057
     8 (A) A             12 (A) A                -0.0056
     3 (A) A   5 (A) B   10 (A) A   25 (A) B     -0.0056
     6 (A) A             28 (A) A                 0.0056
    -----------------------------------------------------

  Density matrix analysis:
  ------------------------
  NOs
    Occupation of frontier NOs:
       0.9829   0.9836
    Number of electrons: 16.000000
    Number of unpaired electrons: n_u =  2.28938, n_u,nl =  2.02533
    NO participation ratio (PR_NO):  2.701172
  
  
  Mulliken Population Analysis
  Atom      Charge (e)              h+              e-           Del q
  --------------------------------------------------------------------
   1 H       -0.176859        0.054073       -0.280218       -0.226145
   2 C        0.331857        0.533182       -0.101816        0.431366
   3 H       -0.148539        0.054621       -0.251669       -0.197048
   4 C        0.333972        0.539469       -0.105283        0.434186
   5 H       -0.184270        0.053441       -0.288642       -0.235201
   6 H       -0.156161        0.054509       -0.261667       -0.207157
  --------------------------------------------------------------------
  Sum:        0.000000        1.289296       -1.289296       -0.000000
  
  Multipole moment analysis of the density matrix
    Molecular charge:                      0.000000
    Number of electrons:                   16.000000
      Center of electronic charge [Ang]: [ -1.556247,  -0.061693,   0.002297]
    Total nuclear charge:                  16.000000
      Center of nuclear charge [Ang]:    [ -1.558076,  -0.065602,   0.001978]
    Dipole moment [D]:                     0.332595
      Cartesian components [D]:          [ -0.140566,  -0.300432,  -0.024519]
    RMS size of the density [Ang]:         1.277444
      Cartesian components [Ang]:        [  0.855724,   0.840462,   0.439571]
  
  Exciton analysis of the difference density matrix
    <r_h> [Ang]:                  [ -1.559703,  -0.062542,   0.002104]
    <r_e> [Ang]:                  [ -1.535919,  -0.015008,   0.006029]
    |<r_e - r_h>| [Ang]:            0.053297
    Hole size [Ang]:                1.411760
      Cartesian components [Ang]: [  0.836136,   0.820593,   0.787763]
    Electron size [Ang]:            2.082470
      Cartesian components [Ang]: [  1.378393,   1.380220,   0.729183]

  Transition density matrix analysis:
  -----------------------------------
  
  CT numbers (Mulliken)
    omega =     0.9260
    <Phe> =    -0.0108
  
  Exciton analysis of the transition density matrix
    Trans. dipole moment [D]:             0.431624
      Cartesian components [D]:         [  0.019351,   0.026862,  -0.430353]
    <r_h> [Ang]:                        [ -1.562073,  -0.066637,   0.001764]
    <r_e> [Ang]:                        [ -1.528561,   0.002197,   0.007397]
    |<r_e - r_h>| [Ang]:                  0.076765
    Hole size [Ang]:                      1.213739
      Cartesian components [Ang]:       [  0.637939,   0.624613,   0.822226]
    Electron size [Ang]:                  2.301876
      Cartesian components [Ang]:       [  1.522703,   1.526348,   0.806393]
    RMS electron-hole separation [Ang]:   2.593427
      Cartesian components [Ang]:       [  1.643746,   1.643605,   1.150011]
    Covariance(r_h, r_e) [Ang^2]:         0.025911
    Correlation coefficient:              0.009274
    Center-of-mass size [Ang]:            1.306103
      Cartesian components [Ang]:       [  0.829217,   0.828109,   0.576662]

  Decomposition into state-averaged NTOs
    H- 0 -> L+ 1: -0.6787 ( 92.1%)
                   omega =  92.6%
  ----------------------------------------------------------------------------


  Excited state 4 (singlet, A)                                     [converged]
  ----------------------------------------------------------------------------
  Term symbol:  5 (1) A                                     R^2 =  6.71585e-14

  Total energy:                                            -77.9575979453 a.u.
  Excitation energy:                                               9.844985 eV

  Osc. strength:                                                      0.000053
  Trans. dip. moment [a.u.]:           [  -0.001040,    0.002515,   -0.014595]
  <i|r^2|0> [a.u.]:                    [   0.009626,    0.022164,   -0.037192]
  Two-photon absorption cross-section (SoS) [a.u.]:                 151.002772
  Two-photon absorption matrix (SoS) [a.u.]:
                                       |    0.291951    0.327674   -2.957697 |
                                       |    0.327674    0.367009   -3.113376 |
                                       |   -2.957697   -3.113376   -0.658674 |
  Two-photon absorption cross-section [a.u.]:                        91.676559
  Two-photon absorption matrix [a.u.]:
                                       |    0.234705    0.255982   -2.319031 |
                                       |    0.255982    0.278381   -2.412114 |
                                       |   -2.319031   -2.412114   -0.512936 |

  Dip. moment [a.u.]:                  [   0.124141,    0.096859,    0.011790]
  Total dipole [Debye]:                                               0.401336
  <r^2> [a.u.]:                        [ 181.613427,   40.629297,   10.738891]
  Total <r^2> [a.u.]:                                               232.981616

  V1^2 = 0.9636, V2^2 = 0.0364

  Important amplitudes:
      occ i     occ j     vir a      vir b          v   
    -----------------------------------------------------
     8 (A) A             11 (A) A                 0.6711
     7 (A) A              9 (A) A                 0.1436
     8 (A) A             21 (A) A                -0.0784
     8 (A) A             16 (A) A                -0.0654
     8 (A) A   8 (A) B    9 (A) A   13 (A) B     -0.0167
     5 (A) A   8 (A) B   11 (A) A   11 (A) B     -0.0156
     8 (A) A   8 (A) B   11 (A) A   17 (A) B      0.0140
     8 (A) A             10 (A) A                 0.0136
     7 (A) A             20 (A) A                 0.0129
     7 (A) A   8 (A) B   13 (A) A   11 (A) B      0.0128
     5 (A) A   8 (A) A   11 (A) A   21 (A) A     -0.0111
     4 (A) A   8 (A) B   12 (A) A   11 (A) B     -0.0110
     8 (A) A   8 (A) B    9 (A) A   22 (A) B     -0.0108
     7 (A) A   8 (A) A   11 (A) A   22 (A) A     -0.0096
     6 (A) A   8 (A) B   15 (A) A   11 (A) B      0.0091
     7 (A) A   8 (A) B   22 (A) A   11 (A) B      0.0089
     6 (A) A   8 (A) B   10 (A) A   11 (A) B      0.0089
     3 (A) A   4 (A) B   11 (A) A    9 (A) B      0.0083
     6 (A) A   8 (A) A   11 (A) A   15 (A) A     -0.0082
     3 (A) A   8 (A) B   11 (A) A   18 (A) B     -0.0081
     7 (A) A   8 (A) A   13 (A) A   16 (A) A      0.0078
     7 (A) A   8 (A) A   11 (A) A   13 (A) A     -0.0076
     5 (A) A   8 (A) B   21 (A) A   11 (A) B      0.0071
     4 (A) A   8 (A) B   19 (A) A   11 (A) B      0.0069
     5 (A) A   8 (A) B    9 (A) A    9 (A) B     -0.0065
     4 (A) A   8 (A) A   11 (A) A   12 (A) A      0.0062
     3 (A) A   6 (A) B   11 (A) A   28 (A) B     -0.0061
     6 (A) A   8 (A) A   11 (A) A   18 (A) A      0.0060
     6 (A) A   8 (A) B   18 (A) A   11 (A) B     -0.0058
     7 (A) A   8 (A) B   16 (A) A   13 (A) B     -0.0057
     3 (A) A   8 (A) A   11 (A) A   18 (A) A     -0.0056
     3 (A) A   8 (A) B   11 (A) A   30 (A) B     -0.0055
     5 (A) A   8 (A) B   10 (A) A   10 (A) B     -0.0055
     3 (A) A   5 (A) B   11 (A) A   25 (A) B     -0.0055
     6 (A) A   8 (A) B   11 (A) A   10 (A) B      0.0054
     7 (A) A   8 (A) B   12 (A) A   10 (A) B     -0.0054
     8 (A) A   8 (A) B   20 (A) A   22 (A) B     -0.0053
     3 (A) A   8 (A) A   11 (A) A   24 (A) A     -0.0052
     5 (A) A   8 (A) A   11 (A) A   16 (A) A     -0.0048
     6 (A) A   8 (A) A   10 (A) A   16 (A) A      0.0047
    -----------------------------------------------------

  Density matrix analysis:
  ------------------------
  NOs
    Occupation of frontier NOs:
       0.9449   1.0237
    Number of electrons: 16.000000
    Number of unpaired electrons: n_u =  2.31829, n_u,nl =  2.04619
    NO participation ratio (PR_NO):  2.889309
  
  
  Mulliken Population Analysis
  Atom      Charge (e)              h+              e-           Del q
  --------------------------------------------------------------------
   1 H       -0.118753        0.045963       -0.214002       -0.168039
   2 C        0.274403        0.498222       -0.124311        0.373911
   3 H       -0.152687        0.045760       -0.246955       -0.201196
   4 C        0.277430        0.500399       -0.122756        0.377643
   5 H       -0.115551        0.045109       -0.211591       -0.166481
   6 H       -0.164842        0.045967       -0.261805       -0.215838
  --------------------------------------------------------------------
  Sum:        0.000000        1.181420       -1.181420        0.000000
  
  Multipole moment analysis of the density matrix
    Molecular charge:                      0.000000
    Number of electrons:                   16.000000
      Center of electronic charge [Ang]: [ -1.562182,  -0.068806,   0.001588]
    Total nuclear charge:                  16.000000
      Center of nuclear charge [Ang]:    [ -1.558076,  -0.065602,   0.001978]
    Dipole moment [D]:                     0.401336
      Cartesian components [D]:          [  0.315535,   0.246192,   0.029967]
    RMS size of the density [Ang]:         1.277671
      Cartesian components [Ang]:        [  0.859154,   0.840447,   0.433529]
  
  Exciton analysis of the difference density matrix
    <r_h> [Ang]:                  [ -1.562414,  -0.068296,   0.001634]
    <r_e> [Ang]:                  [ -1.616834,  -0.112750,  -0.003684]
    |<r_e - r_h>| [Ang]:            0.070469
    Hole size [Ang]:                1.393071
      Cartesian components [Ang]: [  0.819331,   0.802278,   0.791008]
    Electron size [Ang]:            2.122236
      Cartesian components [Ang]: [  1.434830,   1.409928,   0.676204]

  Transition density matrix analysis:
  -----------------------------------
  
  CT numbers (Mulliken)
    omega =     0.9299
    <Phe> =    -0.0135
  
  Exciton analysis of the transition density matrix
    Trans. dipole moment [D]:             0.018868
      Cartesian components [D]:         [ -0.001322,   0.003196,  -0.018548]
    <r_h> [Ang]:                        [ -1.558820,  -0.065791,   0.001968]
    <r_e> [Ang]:                        [ -1.627770,  -0.122033,  -0.004769]
    |<r_e - r_h>| [Ang]:                  0.089233
    Hole size [Ang]:                      1.226494
      Cartesian components [Ang]:       [  0.659657,   0.644230,   0.808770]
    Electron size [Ang]:                  2.261574
      Cartesian components [Ang]:       [  1.529319,   1.503105,   0.718731]
    RMS electron-hole separation [Ang]:   2.563489
      Cartesian components [Ang]:       [  1.658235,   1.628518,   1.081508]
    Covariance(r_h, r_e) [Ang^2]:         0.027746
    Correlation coefficient:              0.010003
    Center-of-mass size [Ang]:            1.291752
      Cartesian components [Ang]:       [  0.837099,   0.821554,   0.541237]

  Decomposition into state-averaged NTOs
    H- 0 -> L+ 2: -0.6662 ( 88.8%)
    H- 1 -> L+ 0: -0.1416 (  4.0%)
                   omega =  93.0%
  ----------------------------------------------------------------------------


  Excited state 5 (singlet, A)                                     [converged]
  ----------------------------------------------------------------------------
  Term symbol:  6 (1) A                                     R^2 =  1.23653e-13

  Total energy:                                            -77.9433210405 a.u.
  Excitation energy:                                              10.233479 eV

  Osc. strength:                                                      0.000001
  Trans. dip. moment [a.u.]:           [  -0.000340,   -0.000359,    0.001421]
  <i|r^2|0> [a.u.]:                    [   0.081757,   -0.102124,    0.018842]
  Two-photon absorption cross-section (SoS) [a.u.]:                 227.836578
  Two-photon absorption matrix (SoS) [a.u.]:
                                       |    0.373790    0.050387   -3.837589 |
                                       |    0.050387   -0.434742    3.685445 |
                                       |   -3.837589    3.685445    0.077545 |
  Two-photon absorption cross-section [a.u.]:                       117.637000
[...]
    16   -1.440226026749e-03
    17   -1.888027643580e-03
    18    6.688491864189e-04
    19   -2.671248785909e-03
    20    6.217549663147e-03
    21    9.251546781093e-01
    22   -3.299445280963e-04
    23    1.403593395209e-02
    24    8.454524461119e-04
    25    7.064996371836e-02
    26   -5.213202983922e-02
    27   -1.419150667500e+00
    28    9.509668965728e-02
    29   -9.632686702685e-02
    30   -1.527294200649e-03
    31    3.687080919869e-01
    32   -3.732841739251e-01
    33   -5.993243643828e-03
    34    1.584639658265e-02
    35   -1.482091688705e-03
    36   -1.840006067303e-03
    37    4.900669797293e-05
    38   -3.453171864816e-03
    39    1.170641226570e-02
    40    9.636336621991e-01
    41    1.149479498710e-04
    42   -1.444840974796e-02
    43   -8.696561180118e-04
    44    8.453047639333e-03
    45    9.196300644327e-01
    46    1.394358338641e-02
    47    3.190555981107e-04
    48    6.648874715755e-04
Sym=X
Ene= 0.233700
Spin=Alpha
Occup=0
     1   -2.728454802133e-02
     2   -1.169842482792e+00
     3    1.361982783085e-02
     4    3.292550848301e-03
     5    8.462617149379e-04
     6    6.257858576362e-04
     7   -8.041030567813e-04
     8   -2.114111431456e-02
     9    1.496673308681e-01
    10    1.625262241611e-01
    11    1.702047528740e-02
    12    5.105651880539e-01
    13    5.720538696080e-01
    14    5.923591619477e-02
    15   -1.694507041287e-05
    16   -8.476030760351e-06
    17   -4.498569187251e-05
    18    1.720504897510e-04
    19    1.542041947040e-05
    20    2.584669344984e-02
    21    1.201229533314e+00
    22    2.682958860224e-03
    23    1.417805261761e-02
    24    9.940145315816e-04
    25    2.159011322716e-03
    26   -1.288743506895e-03
    27   -5.517755814507e-02
    28    1.572761063689e-01
    29    1.583282296155e-01
    30    1.681974335146e-02
    31    5.580207562149e-01
    32    5.657559000310e-01
    33    5.981798796126e-02
    34    6.064537139921e-04
    35   -1.866513831919e-05
    36   -6.731725617028e-05
    37    2.249503901926e-04
    38   -2.281969541089e-04
    39   -2.606124538869e-02
    40   -1.175153664302e+00
    41    2.677976620298e-03
    42    1.344371409426e-02
    43    9.319118331321e-04
    44    2.660465134832e-02
    45    1.239911841883e+00
    46    1.440444840149e-02
    47    3.627315211270e-03
    48    8.871378973398e-04
Sym=X
Ene= 0.238730
Spin=Alpha
Occup=0
     1    1.462058374810e-02
     2    1.065585879702e+00
     3   -1.629193225270e-02
     4   -1.007635764579e-02
     5   -1.369501119360e-03
     6    8.629996749986e-02
     7   -7.908406147988e-02
     8   -1.593817596978e+00
     9   -5.737071479961e-02
    10    5.744174168831e-02
    11    8.845304663929e-04
    12   -2.332202854094e-01
    13    2.499767975546e-01
    14    4.477668193659e-03
    15    2.283539572354e-02
    16   -2.546447959306e-03
    17   -3.087242758061e-03
    18    1.715747067933e-03
    19   -1.220580645812e-02
    20    1.571635982399e-02
    21    1.129064792988e+00
    22    8.704704316387e-03
    23    1.816044257858e-02
    24    1.520310234981e-03
    25   -8.614289253947e-02
    26    8.027181162712e-02
    27    1.569969779820e+00
    28   -5.708365730841e-02
    29    5.486933971797e-02
    30    6.869548928844e-04
    31   -2.428541883961e-01
    32    2.170777963712e-01
    33    1.788291658109e-03
    34   -2.233897318565e-02
    35    2.594610175884e-03
    36    2.927749851140e-03
    37   -4.684180543216e-05
    38    1.246882588986e-02
    39   -1.610847403796e-02
    40   -1.079243928826e+00
    41    8.602052967481e-03
    42    1.697831540983e-02
    43    1.434170548985e-03
    44   -1.669906587304e-02
    45   -1.087538359076e+00
    46   -1.692341095052e-02
    47   -9.275472458980e-03
    48   -1.348490669051e-03
Sym=X
Ene= 0.303520
Spin=Alpha
Occup=0
     1   -1.840351725487e-02
     2    1.709383235528e+00
     3   -2.371624342131e-02
     4    7.968586446775e-04
     5   -1.086872006877e-03
     6    1.146489028854e-03
     7    2.484142384213e-04
     8   -3.123003065812e-02
     9   -1.347686898780e-01
    10   -1.427252950562e-01
    11   -1.505611816883e-02
    12   -1.114253753124e+00
    13   -1.217627809705e+00
    14   -1.263128377094e-01
    15    6.473265702984e-04
    16   -1.752638504247e-03
    17    1.874674041765e-03
    18   -3.349608735047e-02
    19   -2.142640804747e-03
    20    2.076029008542e-02
    21   -1.702884548638e+00
    22    2.333939027614e-03
    23   -2.288209959712e-02
    24   -1.267059544759e-03
    25   -1.159906582210e-03
    26   -5.205457627571e-04
    27    5.111691657316e-02
    28    1.314119592139e-01
    29    1.405645823288e-01
    30    1.459837725260e-02
    31    1.146438721089e+00
    32    1.182052013277e+00
    33    1.251596222784e-01
    34   -7.908552492010e-04
    35   -1.602387182078e-03
    36    2.064033654806e-03
    37   -3.384605752806e-02
    38   -1.358293802668e-03
    39    2.100109969752e-02
    40   -1.695720025134e+00
    41   -1.502271041110e-03
    42    2.355632904042e-02
    43    1.331424654591e-03
    44   -2.081114483380e-02
    45    1.667782688135e+00
    46    2.277946130590e-02
    47   -6.714204373322e-04
    48    1.040588791958e-03
Sym=X
Ene= 0.464161
Spin=Alpha
Occup=0
     1   -1.075730794663e-01
     2   -7.193955802565e-01
     3   -1.507913760788e-02
     4   -8.702361872582e-03
     5   -1.252894157548e-03
     6    6.222487663240e-02
     7    1.289875715549e-02
     8   -3.618846753193e+00
     9    1.091812417190e-01
    10   -9.996396148426e-02
    11   -1.082987981380e-03
    12    2.448244077162e+00
    13   -2.318015290360e+00
    14   -2.158726896373e-02
    15    5.065619277003e-02
    16   -3.014124246646e-03
    17   -4.268156687906e-03
    18   -1.060275173998e-03
    19    2.075921731145e-02
    20   -9.570445284034e-02
    21   -7.544317861673e-01
    22    9.585910677626e-03
    23    1.567405792499e-02
    24    1.401126889208e-03
    25   -6.182366345187e-02
    26   -1.638661472871e-02
    27    3.625043240798e+00
    28    1.010183651470e-01
    29   -9.747125430211e-02
    30   -1.296653466103e-03
    31    2.456293007860e+00
    32   -2.334147815158e+00
    33   -2.203641963312e-02
    34   -5.385126227978e-02
    35    3.469762678720e-03
    36    4.644028820648e-03
    37    2.090519411357e-03
    38   -1.752529800185e-02
    39    1.190020265139e-01
    40    7.187073010277e-01
    41    9.497825141292e-03
    42    1.572350230184e-02
    43    1.380609969853e-03
    44    1.205887390816e-01
    45    7.158079537721e-01
    46   -1.591491810987e-02
    47   -1.059033379577e-02
    48   -1.386902447719e-03
Sym=X
Ene= 0.579480
Spin=Alpha
Occup=0
     1   -2.572358258470e-01
     2   -6.600195104359e-02
     3    1.897927505151e-02
     4   -2.515011003462e-02
     5   -6.188894563903e-04
     6    7.780133502679e-03
     7    1.667845423973e-01
     8    3.540478853234e-01
     9   -3.060242729138e-01
    10    2.800459395208e-01
    11    2.087902738372e-03
    12    8.331322738889e-01
    13   -7.628977176811e-01
    14   -6.409069976297e-03
    15    1.630764796067e-03
    16   -3.805360280775e-03
    17   -2.918863591921e-03
    18   -1.687313500646e-03
    19   -5.958485145120e-02
    20   -2.163077241125e-01
    21   -1.096406968363e-01
    22    2.885323703383e-02
    23   -2.095438338505e-02
    24    1.040815911637e-04
    25    3.902429778918e-03
    26    1.649502946024e-01
    27    5.290457769095e-01
    28    3.067291315117e-01
    29   -2.933455313923e-01
    30   -2.902788865235e-03
    31   -6.837238988252e-01
    32    6.600304531894e-01
    33    7.390201874227e-03
    34    2.171585897239e-03
    35   -3.484181629399e-03
    36   -3.383948901325e-03
    37    5.538521684981e-03
    38   -5.907188073883e-02
    39   -2.567729977838e-01
    40   -2.164142231383e-02
    41   -2.439476478340e-02
    42    1.702238849867e-02
    43   -1.296898953178e-04
    44   -2.264739858682e-01
    45   -3.534840794567e-02
    46   -2.159540080991e-02
    47    2.676206351473e-02
    48    5.857542420393e-04
Sym=X
Ene= 0.611041
Spin=Alpha
Occup=0
     1    5.031856503986e-01
     2   -2.238355083980e-01
     3    6.021506086783e-02
     4   -3.810948841890e-02
     5    5.410582109535e-04
     6   -6.743592196311e-04
     7   -1.879808933418e-03
     8    9.857552709643e-03
     9    3.327626550086e-02
    10    5.453076730705e-02
    11    4.795529365590e-03
    12   -2.367338183912e-01
    13   -3.720015061568e-01
    14   -3.395867799730e-02
    15    1.787660685449e-03
    16    7.303496447528e-03
    17   -8.742006628721e-03
    18    1.476277134283e-01
    19    8.526751377552e-03
    20   -5.365170627824e-01
    21    1.891266642700e-01
    22   -3.698740146502e-02
    23    5.762106865888e-02
    24    1.711107629076e-03
    25   -2.371216816183e-04
    26   -1.115399006763e-04
    27    6.428041126667e-02
    28    4.664556041702e-02
    29    3.526007318253e-02
    30    4.374768591150e-03
    31   -2.806252304201e-01
    32   -2.879111458340e-01
    33   -3.020774122399e-02
    34    7.673278856148e-05
    35   -7.427851141743e-03
    36    8.235610021478e-03
    37   -1.445379004562e-01
    38   -1.027147611634e-02
    39    5.005930187969e-01
    40   -2.013148410384e-01
    41   -4.224930463736e-02
    42    5.825039757139e-02
    43    1.511169229469e-03
    44   -5.215321916229e-01
    45    2.080692990945e-01
    46    5.879865753395e-02
    47   -3.609946453356e-02
    48    6.266941627571e-04
Sym=X
Ene= 0.689110
Spin=Alpha
Occup=0
     1    2.336917205609e-04
     2    5.469714135939e-04
     3    9.394351654160e-04
     4    1.323284071181e-03
     5   -2.104837765852e-02
     6    4.313264666749e-06
     7   -2.986535336701e-04
     8    7.929917680889e-04
     9    3.198946350680e-02
    10    4.031956865035e-02
    11   -6.695201897461e-01
    12   -3.059045839828e-02
    13   -3.583862779316e-02
    14    6.131363159574e-01
    15   -1.227536613233e-03
    16    8.298265222632e-02
    17   -7.877485856754e-02
    18   -8.622969616914e-03
    19   -1.116306167242e-03
    20    1.764463369457e-04
    21    8.549990494556e-04
    22    1.054945292145e-03
    23    1.443640428592e-03
    24   -2.247276700790e-02
    25   -2.509934884901e-05
    26    7.690894853380e-05
    27   -6.151264541497e-04
    28    3.163554844225e-02
    29    4.015660835938e-02
    30   -6.705308079269e-01
    31   -3.010962796416e-02
    32   -3.552379562894e-02
    33    6.140253379283e-01
    34    1.303575019000e-03
    35   -8.258683908990e-02
    36    7.824690807175e-02
    37    8.687869315135e-03
    38    1.091083270521e-03
    39   -4.663551672193e-04
    40   -4.288785902041e-04
    41    9.225569529410e-04
    42    1.265655360901e-03
    43   -2.107188109533e-02
    44   -3.773262451865e-04
    45   -7.152724142662e-04
    46    9.609657284756e-04
    47    1.290519935672e-03
    48   -2.104120854850e-02
Sym=X
Ene= 0.711710
Spin=Alpha
Occup=0
     1   -4.789530918746e-01
     2    1.167370106807e-01
     3   -7.827373403052e-02
     4   -4.564041498090e-02
     5   -6.519828057365e-03
     6   -4.468824583197e-02
     7   -3.251527215256e-01
     8    4.350228449165e-01
     9    1.990701726821e-01
    10   -1.817490317577e-01
    11   -1.238663657674e-03
    12    1.105318284653e-02
    13   -9.396174303751e-03
    14   -1.057440073507e-03
    15    1.922894728653e-01
    16   -2.033525814089e-02
    17   -2.379935421072e-02
    18    2.537358190262e-03
    19   -7.362703177181e-02
    20   -4.606525611500e-01
    21    9.636259347447e-02
    22    4.012846746274e-02
    23    8.003136464554e-02
    24    6.691677901498e-03
    25   -4.993199035814e-02
    26   -3.161884016021e-01
    27    6.000600406589e-01
    28   -1.917871526809e-01
    29    1.857320448839e-01
    30    2.180225975417e-03
    31    1.067946281350e-01
    32   -1.039993233430e-01
    33   -4.601046845164e-04
    34    1.972475764571e-01
    35   -2.080996838914e-02
    36   -2.475583075508e-02
    37    6.338022895129e-03
    38   -7.997158657506e-02
    39   -4.976591353744e-01
    40    1.718121739041e-01
    41   -4.181014429057e-02
    42   -8.473000898688e-02
    43   -6.996839120319e-03
    44   -4.879538820656e-01
    45    1.614737258322e-01
    46    8.023266788163e-02
    47    4.617246040366e-02
    48    6.615637111648e-03
Sym=X
Ene= 0.784923
Spin=Alpha
Occup=0
     1   -5.507566761040e-01
     2    4.406557582303e-01
     3   -1.112509013634e-01
     4   -2.873993232523e-02
     5   -7.051728864454e-03
     6   -9.208525346969e-02
     7    2.024149333041e-01
     8    6.109565968815e-01
     9   -1.123454836418e-01
    10    1.101039101579e-01
    11    1.198892022425e-03
    12   -2.363406039594e-01
    13    2.165460573404e-01
    14    1.405621929298e-03
    15    2.133013496037e-01
    16   -1.784213058556e-02
    17   -2.267798079805e-02
    18    5.745024437118e-04
    19   -3.097382196161e-03
    20   -5.428021782909e-01
    21    4.225697036218e-01
    22    1.961791135717e-02
    23    1.130679014909e-01
    24    7.745853079655e-03
    25    8.957543357153e-02
    26   -2.233351527332e-01
    27   -5.401962903933e-01
    28   -1.102047717257e-01
    29    1.149735057649e-01
    30    1.368018406737e-03
    31   -2.659541546781e-01
    32    2.350580956724e-01
    33    1.620235530881e-03
    34   -2.040738974903e-01
    35    1.713839616555e-02
    36    2.112381501539e-02
    37    4.781662171648e-03
    38    2.868517107658e-03
    39    5.167790484415e-01
    40   -4.322146752272e-01
    41    1.932073589268e-02
    42    1.077790301031e-01
    43    7.344352157412e-03
    44    5.254399320047e-01
    45   -4.571040234074e-01
    46   -1.119633435671e-01
    47   -2.399284052008e-02
    48   -6.732107743780e-03
Sym=X
Ene= 0.807884
Spin=Alpha
Occup=0
     1    7.194196948698e-05
     2   -6.128882182268e-04
     3   -1.469142226404e-03
     4   -2.039432487522e-03
     5    3.403474964257e-02
     6   -2.123056940678e-06
     7    3.113587051188e-04
     8   -2.145007812728e-04
     9   -3.660575804317e-02
    10   -4.607203269028e-02
    11    7.634229022721e-01
    12    5.426423251966e-02
    13    6.796572921595e-02
    14   -1.127194210576e+00
    15   -1.064207582112e-03
    16    6.507874365141e-02
    17   -6.174719706291e-02
    18   -6.684261736292e-03
    19   -9.074876689324e-04
    20    6.109827513468e-05
    21    2.793065499085e-04
    22   -1.547058156685e-03
    23   -2.079949300411e-03
    24    3.380120290416e-02
    25   -2.841029235479e-05
    26    3.571037498479e-04
    27   -1.617912079385e-04
    28    3.610951301068e-02
    29    4.535613723363e-02
    30   -7.626903150056e-01
    31   -5.328413426298e-02
    32   -6.696560266749e-02
    33    1.126686788485e+00
    34   -9.715692333772e-04
    35    6.521627818453e-02
    36   -6.172351602651e-02
    37   -6.924937752508e-03
    38   -9.088803122149e-04
    39   -5.939742267252e-05
    40   -4.367744896970e-04
    41    1.633304960040e-03
    42    2.151442924635e-03
    43   -3.420851867165e-02
    44   -8.776383525075e-05
    45    4.194286586970e-04
    46    1.591483397341e-03
    47    2.071067896367e-03
    48   -3.371466090785e-02
Sym=X
Ene= 0.862345
Spin=Alpha
Occup=0
     1    6.701141795106e-03
     2   -1.097546793714e+00
     3    1.482850137819e-01
     4    5.433696637235e-02
     5    1.024904140946e-02
     6   -1.558549812074e-03
     7   -6.805546805420e-03
     8   -7.545038753077e-04
     9   -4.052323355943e-01
    10   -4.232750571169e-01
    11   -4.512853632605e-02
    12    9.362933776122e-01
    13    9.945293625923e-01
    14    1.052060720005e-01
    15    4.760713851668e-03
    16    1.205969902506e-02
    17   -1.409447621949e-02
    18    2.399755383073e-01
    19    1.897915188946e-02
    20   -1.500799809861e-02
    21    1.094520614019e+00
    22    4.178090373912e-02
    23    1.523382856152e-01
    24    1.124527823213e-02
    25    5.780832505867e-04
    26   -9.618795745812e-03
    27    1.002376812923e-02
    28   -4.132650338390e-01
    29   -4.254738495999e-01
    30   -4.470273417704e-02
    31    9.588492981002e-01
    32    9.832889233907e-01
    33    1.035502940918e-01
    34   -6.721083926269e-04
    35   -1.194683043063e-02
    36    1.377537837777e-02
    37   -2.374607964775e-01
    38   -1.343912789869e-02
    39    2.260711006106e-02
    40   -1.105226634182e+00
    41    4.812196722907e-02
    42    1.533588162533e-01
    43    1.153691929714e-02
    44   -1.831108630985e-02
    45    1.108085803176e+00
    46    1.489899925424e-01
    47    5.530067312158e-02
    48    1.029226716639e-02
Sym=X
Ene= 0.936394
Spin=Alpha
Occup=0
     1    1.250575699897e-01
     2   -1.327422174448e+00
     3    1.893047867756e-01
     4   -1.530257226157e-03
     5    8.989813322116e-03
     6   -1.066574883008e-03
     7   -2.377577681402e-02
     8    6.751634258584e-03
     9   -4.888661979744e-01
    10   -4.852385298908e-01
    11   -5.250102104206e-02
    12    1.492088072450e+00
    13    1.488811747165e+00
    14    1.606751585886e-01
    15    6.985050396717e-04
    16    7.422277154542e-03
    17   -6.602583210254e-03
    18    1.265339564448e-01
    19    2.300637539166e-02
    20   -1.142178717747e-01
    21    1.247211002016e+00
    22   -2.365893401469e-02
    23    1.773614318139e-01
    24    9.513572769229e-03
    25    4.637967274824e-04
    26   -5.162734827296e-03
    27    3.397648351580e-02
    28    4.582815611110e-01
    29    5.084256793317e-01
    30    5.215858664346e-02
    31   -1.404349754246e+00
    32   -1.565659970076e+00
    33   -1.603024563374e-01
    34    1.074855214907e-04
    35    5.609189988405e-03
    36   -7.420887145248e-03
    37    1.226379392943e-01
    38   -3.328023993115e-03
    39   -1.202332296244e-01
    40    1.295970205428e+00
    41    1.177491885377e-02
    42   -1.839574193719e-01
    43   -1.037285255143e-02
    44    1.133302441743e-01
    45   -1.243840847185e+00
    46   -1.802044294140e-01
    47    7.803377933120e-03
    48   -8.115763515030e-03
Sym=X
Ene= 0.973884
Spin=Alpha
Occup=0
     1   -6.911014528220e-02
     2    8.382397236195e-01
     3   -8.037582761242e-02
     4   -9.833173964886e-02
     5   -9.615951050358e-03
     6    2.403071771940e-02
     7    2.169700378024e-01
     8    5.686108614043e-01
     9    4.575321595808e-01
    10   -4.662899744905e-01
    11   -6.323031147715e-03
    12   -1.416739278220e+00
    13    1.486423984893e+00
    14    2.192753446035e-02
    15   -4.634943356902e-02
    16   -1.228247555385e-02
    17   -1.069376114841e-02
    18    2.441856533401e-02
    19   -2.903142514700e-01
    20   -6.539936332165e-02
    21    9.695649983330e-01
    22    9.028106844529e-02
    23    1.029238483652e-01
    24    1.057719946902e-02
    25   -2.492175425757e-02
    26   -2.923810553550e-01
    27   -4.433028326014e-01
    28    4.959756479313e-01
    29   -4.421250470028e-01
    30   -2.959005277525e-03
    31   -1.563887318833e+00
    32    1.356599578937e+00
    33    6.920393537235e-03
    34    5.081662346476e-02
    35    1.311194231607e-02
    36    1.020331672441e-02
    37   -1.434488802595e-02
    38    3.017007289760e-01
    39    7.189357531545e-02
    40   -9.006875132869e-01
    41    9.637282003934e-02
    42    9.526255130098e-02
    43    1.039446069579e-02
    44    6.140460181314e-02
    45   -9.874597325567e-01
    46   -1.003174255136e-01
    47   -1.005015178693e-01
    48   -1.069338851780e-02
[5D]

======= END OF MOLDEN-FORMATTED INPUT FILE =======


        *************************************************************
        *                                                           *
        *  Thank you very much for using Q-Chem.  Have a nice day.  *
        *                                                           *
        *************************************************************


