                  Welcome to Q-Chem
     A Quantum Leap Into The Future Of Chemistry


 Q-Chem 5.4 (devel), Q-Chem, Inc., Pleasanton, CA (2021)

 E. Epifanovsky,  A. T. B. Gilbert,  Xintian Feng,  Joonho Lee,  Yuezhi Mao,  
 N. Mardirossian,  P. Pokhilko,  A. White,  M. Wormit,  M. P. Coons,  
 A. L. Dempwolff,  Zhengting Gan,  D. Hait,  P. R. Horn,  L. D. Jacobson,  
 I. Kaliman,  J. Kussmann,  A. W. Lange,  Ka Un Lao,  D. S. Levine,  Jie Liu,  
 S. C. McKenzie,  A. F. Morrison,  K. Nanda,  F. Plasser,  D. R. Rehn,  
 M. L. Vidal,  Zhi-Qiang You,  Ying Zhu,  B. Alam,  B. Albrecht,  
 A. Aldossary,  E. Alguire,  J. H. Andersen,  D. Barton,  K. Begam,  A. Behn,  
 Y. A. Bernard,  E. J. Berquist,  H. Burton,  A. Carreras,  K. Carter-Fenk,  
 R. Chakraborty,  A. D. Chien,  K. D. Closser,  V. Cofer-Shabica,  
 S. Dasgupta,  Jia Deng,  M. de Wergifosse,  M. Diedenhofen,  Hainam Do,  
 S. Ehlert,  Po-Tung Fang,  S. Fatehi,  Qingguo Feng,  T. Friedhoff,  
 J. Gayvert,  Qinghui Ge,  G. Gidofalvi,  M. Goldey,  J. Gomes,  
 C. Gonzalez-Espinoza,  S. Gulania,  A. Gunina,  M. W. D. Hanson-Heine,  
 P. H. P. Harbach,  A. W. Hauser,  M. F. Herbst,  M. Hernandez Vera,  
 M. Hodecker,  Z. C. Holden,  S. Houck,  Xunkun Huang,  Kerwin Hui,  
 B. C. Huynh,  M. Ivanov,  Hyunjun Ji,  Hanjie Jiang,  B. Kaduk,  S. Kaehler,  
 K. Khistyaev,  Jaehoon Kim,  P. Klunzinger,  Z. Koczor-Benda,  
 Joong Hoon Koh,  D. Kosenkov,  L. Koulias,  T. Kowalczyk,  C. M. Krauter,  
 K. Kue,  A. Kunitsa,  T. Kus,  A. Landau,  K. V. Lawler,  D. Lefrancois,  
 S. Lehtola,  Rain Li,  Yi-Pei Li,  Jiashu Liang,  M. Liebenthal,  
 Hung-Hsuan Lin,  You-Sheng Lin,  Fenglai Liu,  Kuan-Yu Liu,  
 M. Loipersberger,  A. Luenser,  A. Manjanath,  P. Manohar,  E. Mansoor,  
 S. F. Manzer,  Shan-Ping Mao,  A. V. Marenich,  T. Markovich,  S. Mason,  
 S. A. Maurer,  P. F. McLaughlin,  M. F. S. J. Menger,  J.-M. Mewes,  
 S. A. Mewes,  P. Morgante,  J. W. Mullinax,  K. J. Oosterbaan,  G. Paran,  
 Alexander C. Paul,  Suranjan K. Paul,  F. Pavosevic,  Zheng Pei,  S. Prager,  
 E. I. Proynov,  E. Ramos,  B. Rana,  A. E. Rask,  A. Rettig,  R. M. Richard,  
 F. Rob,  E. Rossomme,  T. Scheele,  M. Scheurer,  M. Schneider,  
 N. Sergueev,  S. M. Sharada,  W. Skomorowski,  D. W. Small,  C. J. Stein,  
 Yu-Chuan Su,  E. J. Sundstrom,  Zhen Tao,  J. Thirman,  T. Tsuchimochi,  
 N. M. Tubman,  S. P. Veccham,  O. Vydrov,  J. Wenzel,  J. Witte,  A. Yamada,  
 Kun Yao,  S. Yeganeh,  S. R. Yost,  A. Zech,  Igor Ying Zhang,  Xing Zhang,  
 Yu Zhang,  D. Zuev,  A. Aspuru-Guzik,  A. T. Bell,  N. A. Besley,  
 K. B. Bravaya,  B. R. Brooks,  D. Casanova,  Jeng-Da Chai,  S. Coriani,  
 C. J. Cramer,  A. E. DePrince, III,  R. A. DiStasio Jr.,  A. Dreuw,  
 B. D. Dunietz,  T. R. Furlani,  W. A. Goddard III,  S. Grimme,  
 S. Hammes-Schiffer,  T. Head-Gordon,  W. J. Hehre,  Chao-Ping Hsu,  
 T.-C. Jagau,  Yousung Jung,  A. Klamt,  Jing Kong,  D. S. Lambrecht,  
 WanZhen Liang,  N. J. Mayhall,  C. W. McCurdy,  J. B. Neaton,  
 C. Ochsenfeld,  J. A. Parkhill,  R. Peverati,  V. A. Rassolov,  Yihan Shao,  
 L. V. Slipchenko,  T. Stauch,  R. P. Steele,  J. E. Subotnik,  
 A. J. W. Thom,  A. Tkatchenko,  D. G. Truhlar,  T. Van Voorhis,  
 T. A. Wesolowski,  K. B. Whaley,  H. L. Woodcock III,  P. M. Zimmerman,  
 S. Faraji,  P. M. W. Gill,  M. Head-Gordon,  J. M. Herbert,  A. I. Krylov

 Additional authors for Version 5.4.1: 
 S. Kotaru,  Shaozhi Li,  Xiangyuan Li,  F. Matz,  A. Molle,  Haisheng Ren,  
 Yingli Su,  Hung-Yi Tsai,  C. Utku,  Fang Wang

 Contributors to earlier versions of Q-Chem not listed above: 
 R. D. Adamson,  B. Austin,  R. Baer,  J. Baker,  G. J. O. Beran,  
 K. Brandhorst,  S. T. Brown,  E. F. C. Byrd,  A. K. Chakraborty,  
 G. K. L. Chan,  Chun-Min Chang,  Yunqing Chen,  C.-L. Cheng,  
 Siu Hung Chien,  D. M. Chipman,  D. L. Crittenden,  H. Dachsel,  
 R. J. Doerksen,  A. D. Dutoi,  R. G. Edgar,  J. Fosso-Tande,  
 L. Fusti-Molnar,  D. Ghosh,  A. Ghysels,  A. Golubeva-Zadorozhnaya,  
 J. Gonthier,  M. S. Gordon,  S. R. Gwaltney,  G. Hawkins,  J. E. Herr,  
 A. Heyden,  S. Hirata,  E. G. Hohenstein,  G. Kedziora,  F. J. Keil,  
 C. Kelley,  Jihan Kim,  R. A. King,  R. Z. Khaliullin,  P. P. Korambath,  
 W. Kurlancheek,  A. Laurent,  A. M. Lee,  M. S. Lee,  S. V. Levchenko,  
 Ching Yeh Lin,  D. Liotard,  E. Livshits,  R. C. Lochan,  I. Lotan,  
 L. A. Martinez-Martinez,  P. E. Maslen,  N. Nair,  D. P. O'Neill,  
 D. Neuhauser,  E. Neuscamman,  C. M. Oana,  R. Olivares-Amaya,  R. Olson,  
 T. M. Perrine,  B. Peters,  P. A. Pieniazek,  A. Prociuk,  Y. M. Rhee,  
 J. Ritchie,  M. A. Rohrdanz,  E. Rosta,  N. J. Russ,  H. F. Schaefer III,  
 M. W. Schmidt,  N. E. Schultz,  S. Sharma,  N. Shenvi,  C. D. Sherrill,  
 A. C. Simmonett,  A. Sodt,  T. Stein,  D. Stuck,  K. S. Thanthiriwatte,  
 V. Vanovschi,  L. Vogt,  Tao Wang,  A. Warshel,  M. A. Watson,  
 C. F. Williams,  Q. Wu,  X. Xu,  Jun Yang,  W. Zhang,  Yan Zhao

 Please cite Q-Chem as follows:
 Y. Shao et al., Mol. Phys. 113, 184-215 (2015)
 DOI: 10.1080/00268976.2014.952696

 Q-Chem 5.4.1 for Intel X86 EM64T Linux

 Parts of Q-Chem use Armadillo 9.800.1 (Horizon Scraper).
 http://arma.sourceforge.net/

 Q-Chem begins on Mon Mar 20 18:13:55 2023  

 Host: cpu186.baobab
0

     Scratch files written to /scratch/fum/qchem70935//
 Processing $rem in /home/share/wesolowski/qc5.aug2021.FDE/config/preferences:
 Processing $rem in /home/fum/.qchemrc:

 Checking the input file for inconsistencies... 	...done.

--------------------------------------------------------------
User input:
--------------------------------------------------------------
$comment
generated from CCJob.Templates
$end

$rem
sym_ignore = true
method = adc(2)
ee_states = 10
basis = cc-pVDZ
mem_static = 1024
mem_total = 40000
adc_davidson_maxiter = 900
adc_davidson_conv = 6
adc_print = 3
adc_prop_es = true
adc_prop_es2es = true
adc_prop_tpa = true
molden_format = True
state_analysis = true
print_orbitals = 15
gen_scfman = false
fde_export_density = true
fde_details = 3
$end

$molecule
0 1
H -0.033851493960885284 -0.209693790866526 0.06629178514482403
C -1.0853172258134427 -0.5322178542610745 -0.002872380332147149
H -1.2633425457433733 -1.6034123508185278 -0.07710409857884018
C -2.052166119813379 0.3860431194390214 0.006100199967906136
H -1.7836472129435013 1.4521080826813761 0.08251684392085076
H -3.113438833460917 0.15369479043347398 -0.0596355081553145                     
$end
--------------------------------------------------------------
 ----------------------------------------------------------------
             Standard Nuclear Orientation (Angstroms)
    I     Atom           X                Y                Z
 ----------------------------------------------------------------
    1      H      -0.0338514940    -0.2096937909     0.0662917851
    2      C      -1.0853172258    -0.5322178543    -0.0028723803
    3      H      -1.2633425457    -1.6034123508    -0.0771040986
    4      C      -2.0521661198     0.3860431194     0.0061002000
    5      H      -1.7836472129     1.4521080827     0.0825168439
    6      H      -3.1134388335     0.1536947904    -0.0596355082
 ----------------------------------------------------------------
 Nuclear Repulsion Energy =          33.19989896 hartrees
 There are        8 alpha and        8 beta electrons
 Requested basis set is cc-pVDZ
 There are 24 shells and 48 basis functions
 Total memory of 40000 MB is distributed as follows: 
   MEM_STATIC is set to 1024 MB
   QALLOC/CCMAN JOB total memory use is  38976 MB
 Warning: actual memory use might exceed 40000 MB

 Total QAlloc Memory Limit  40000 MB
 Mega-Array Size      1001 MB
 MEM_STATIC part      1024 MB

                       Distance Matrix (Angstroms)
             H (  1)   C (  2)   H (  3)   C (  4)   H (  5)
   C (  2)  1.101992
   H (  3)  1.864045  1.088421
   C (  4)  2.105260  1.333447  2.141751
   H (  5)  2.413221  2.105352  3.103611  1.102015
   H (  6)  3.103509  2.141723  2.551585  1.088396  1.863982

 A cutoff of  1.0D-11 yielded    300 shell pairs
 There are      1220 function pairs (      1329 Cartesian)
 Smallest overlap matrix eigenvalue = 4.77E-03

 Scale SEOQF with 1.000000e-01/1.000000e-01/1.000000e+00

 Standard Electronic Orientation quadrupole field applied
 Nucleus-field energy     =     0.0000000022 hartrees
 Guess from superposition of atomic densities
 Warning:  Energy on first SCF cycle will be non-variational
 SAD guess density has 16.000000 electrons
 A restricted Hartree-Fock SCF calculation will be
 performed using Pulay DIIS extrapolation
 SCF converges when DIIS error is below 1.0E-08
 using 10 threads for integral computing
 -------------------------------------------------------
 OpenMP Integral computing Module                
 Release: version 1.0, May 2013, Q-Chem Inc. Pittsburgh 
 -------------------------------------------------------
 ---------------------------------------
  Cycle       Energy         DIIS Error
 ---------------------------------------
    1     -78.3956406455      9.92E-02
    2     -78.0170517001      7.13E-03
    3     -78.0375015741      1.82E-03
    4     -78.0389763040      5.63E-04
    5     -78.0390933903      5.81E-05
    6     -78.0390952537      9.30E-06
    7     -78.0390953153      1.95E-06
    8     -78.0390953180      1.68E-07
    9     -78.0390953180      2.06E-08
   10     -78.0390953180      9.12E-09 Convergence criterion met
 ---------------------------------------
 SCF time:  CPU 1.93 s  wall 2.73 s
 SCF   energy in the final basis set = -78.03909532
 Total energy in the final basis set = -78.03909532
Exporting Density Matrix to file 'Densmat_SCF.txt'.
Export successful
================================================================================
|                                                                              |
|                                 A D C  M A N                                 |
|                                                                              |
 ------------------------------------------------------------------------------ 
|                                                                              |
| Components:                                                                  |
|                                                                              |
| - libvmm - 1.3-trunk                                                         |
|   Authors:                                                                   |
|   Evgeny Epifanovsky, Ilya Kaliman                                           |
|                                                                              |
| - libtensor - 2.5-trunk                                                      |
|   Authors:                                                                   |
|   Evgeny Epifanovsky, Michael Wormit, Dmitry Zuev, Sam Manzer,               |
|   Ilya Kaliman                                                               |
|                                                                              |
| - libwfa - 1.1-trunk                                                         |
|   Authors:                                                                   |
|   Felix Plasser, Stefanie Mewes (Baeppler), Benjamin Thomitzni,              |
|   Michael Wormit, Feng Chen, Anna I. Krylov, Pavel Pokhilko                  |
|                                                                              |
| - libadc - 1.1-trunk                                                         |
|   Authors:                                                                   |
|   Michael Wormit, Adrian L. Dempwolff, Philipp H. P. Harbach,                |
|   Caroline Krauter, Dirk Rehn, Matthias Schneider, Jan Wenzel                |
|                                                                              |
| - adcman - 2.6-trunk                                                         |
|   Authors:                                                                   |
|   Michael Wormit, Adrian L. Dempwolff, Philipp H. P. Harbach,                |
|   Caroline Krauter, Daniel Lefrancois, Jan-Michael Mewes, Dirk Rehn,         |
|   Matthias Schneider, Jan Wenzel, Andreas Dreuw                              |
|                                                                              |
| Authors of earlier versions of ADCMAN:                                       |
| Andreas Dreuw, Jan Hendrik Starcke, Dirk Rehn, Michael Wormit                |
|                                                                              |
================================================================================

 Created directory /scratch/fum/qchem70935/plots
  Import QC data ...  CPU 0.00 s  wall 0.00 s

 Alpha MOs, Restricted
 -- Occupied --                  
-11.239 -11.237  -1.030  -0.786  -0.635  -0.582  -0.499  -0.375
  1 A     2 A     3 A     4 A     5 A     6 A     7 A     8 A                  
 -- Virtual --                   
  0.168   0.202   0.231   0.236   0.303   0.463   0.579   0.610
  9 A    10 A    11 A    12 A    13 A    14 A    15 A    16 A                  
  0.689   0.705   0.775   0.807   0.858   0.927   0.971   1.006
 17 A    18 A    19 A    20 A    21 A    22 A    23 A    24 A                  
  1.130   1.230   1.248   1.262   1.291   1.592   1.726   1.743
 25 A    26 A    27 A    28 A    29 A    30 A    31 A    32 A                  
  1.810   1.834   1.856   1.919   1.962   1.973   2.220   2.246
 33 A    34 A    35 A    36 A    37 A    38 A    39 A    40 A                  
  2.358   2.422   2.491   2.621   2.676   2.796   3.090   3.373
 41 A    42 A    43 A    44 A    45 A    46 A    47 A    48 A                  

 Beta MOs, Restricted
 -- Occupied --                  
-11.239 -11.237  -1.030  -0.786  -0.635  -0.582  -0.499  -0.375
  1 A     2 A     3 A     4 A     5 A     6 A     7 A     8 A                  
 -- Virtual --                   
  0.168   0.202   0.231   0.236   0.303   0.463   0.579   0.610
  9 A    10 A    11 A    12 A    13 A    14 A    15 A    16 A                  
  0.689   0.705   0.775   0.807   0.858   0.927   0.971   1.006
 17 A    18 A    19 A    20 A    21 A    22 A    23 A    24 A                  
  1.130   1.230   1.248   1.262   1.291   1.592   1.726   1.743
 25 A    26 A    27 A    28 A    29 A    30 A    31 A    32 A                  
  1.810   1.834   1.856   1.919   1.962   1.973   2.220   2.246
 33 A    34 A    35 A    36 A    37 A    38 A    39 A    40 A                  
  2.358   2.422   2.491   2.621   2.676   2.796   3.090   3.373
 41 A    42 A    43 A    44 A    45 A    46 A    47 A    48 A                  
  Import AO data ...  CPU 0.00 s  wall 0.01 s
  Using point group: C1
  Irreducible representations in point group: A
  Molecular orbitals: 
  Occupied MOs:
  Block   0:   1 (  A) A   2 (  A) A   3 (  A) A   4 (  A) A   5 (  A) A
                  -11.24      -11.24       -1.03     -0.7856     -0.6352
               6 (  A) A   7 (  A) A   8 (  A) A
                  -0.582     -0.4988     -0.3745
  Block   1:   1 (  A) B   2 (  A) B   3 (  A) B   4 (  A) B   5 (  A) B
                  -11.24      -11.24       -1.03     -0.7856     -0.6352
               6 (  A) B   7 (  A) B   8 (  A) B
                  -0.582     -0.4988     -0.3745
  Virtual MOs:
  Block   0:   9 (  A) A  10 (  A) A  11 (  A) A  12 (  A) A  13 (  A) A
                  0.1679      0.2023      0.2311      0.2362      0.3033
              14 (  A) A  15 (  A) A  16 (  A) A  17 (  A) A  18 (  A) A
                  0.4626      0.5791      0.6101      0.6886      0.7049
              19 (  A) A  20 (  A) A  21 (  A) A  22 (  A) A
                  0.7746      0.8073      0.8578       0.927
  Block   1:  23 (  A) A  24 (  A) A  25 (  A) A  26 (  A) A  27 (  A) A
                  0.9708       1.006        1.13        1.23       1.248
              28 (  A) A  29 (  A) A  30 (  A) A  31 (  A) A  32 (  A) A
                   1.262       1.291       1.592       1.726       1.743
              33 (  A) A  34 (  A) A  35 (  A) A  36 (  A) A
                    1.81       1.834       1.856       1.919
  Block   2:  37 (  A) A  38 (  A) A  39 (  A) A  40 (  A) A  41 (  A) A
                   1.962       1.973        2.22       2.246       2.358
              42 (  A) A  43 (  A) A  44 (  A) A  45 (  A) A  46 (  A) A
                   2.422       2.491       2.621       2.676       2.796
              47 (  A) A  48 (  A) A
                    3.09       3.373
  Block   3:   9 (  A) B  10 (  A) B  11 (  A) B  12 (  A) B  13 (  A) B
                  0.1679      0.2023      0.2311      0.2362      0.3033
              14 (  A) B  15 (  A) B  16 (  A) B  17 (  A) B  18 (  A) B
                  0.4626      0.5791      0.6101      0.6886      0.7049
              19 (  A) B  20 (  A) B  21 (  A) B  22 (  A) B
                  0.7746      0.8073      0.8578       0.927
  Block   4:  23 (  A) B  24 (  A) B  25 (  A) B  26 (  A) B  27 (  A) B
                  0.9708       1.006        1.13        1.23       1.248
              28 (  A) B  29 (  A) B  30 (  A) B  31 (  A) B  32 (  A) B
                   1.262       1.291       1.592       1.726       1.743
              33 (  A) B  34 (  A) B  35 (  A) B  36 (  A) B
                    1.81       1.834       1.856       1.919
  Block   5:  37 (  A) B  38 (  A) B  39 (  A) B  40 (  A) B  41 (  A) B
                   1.962       1.973        2.22       2.246       2.358
              42 (  A) B  43 (  A) B  44 (  A) B  45 (  A) B  46 (  A) B
                   2.422       2.491       2.621       2.676       2.796
              47 (  A) B  48 (  A) B
                    3.09       3.373
  Import MO data ...  CPU 0.27 s  wall 0.07 s
  Import HF data ...  CPU 0.81 s  wall 0.24 s
  Import 2e integrals ...  CPU 1.19 s  wall 0.29 s

--------------------------------------------------------------------------------
                                   HF Summary                                   
--------------------------------------------------------------------------------
  Energy:                                                  -78.0390953180 a.u.
  Dip. moment [a.u.]:                  [  -0.001224,   -0.001265,   -0.001065]
  Total dipole [Debye]:                                               0.005229
  <r^2> [a.u.]:                        [ 176.252906,   35.331258,   11.683547]
  Total <r^2> [a.u.]:                                               223.267711
--------------------------------------------------------------------------------
  HF properties ...  CPU 0.03 s  wall 0.04 s
  MP(1) calculation ...  CPU 0.01 s  wall 0.02 s
  N^6 prerequesite intermediates ...  CPU 0.80 s  wall 0.14 s
  Difference density matrix of state mp2_gs printed to ASCII file 'State_mp2_gs_Difference.txt'
Exporting MP density matrix to file 'Densmat_MP.txt'.
Export successful
  Total density matrix of state mp2_gs printed to ASCII file 'State_mp2_gs_Total.txt'
Exporting MP density matrix to file 'Densmat_MP.txt'.
Export successful

--------------------------------------------------------------------------------
                                 MP(2) Summary                                  
--------------------------------------------------------------------------------
  MP energy contribution:                                   -0.2805726429 a.u.
  Total energy:                                            -78.3196679610 a.u.
  Dip. moment [a.u.]:                  [   0.000770,    0.000831,   -0.000831]
  Total dipole [Debye]:                                               0.003570
  <r^2> [a.u.]:                        [ 176.304613,   35.367267,   11.510823]
  Total <r^2> [a.u.]:                                               223.182704

  Density matrix analysis:
  ------------------------
  NOs
    Occupation of frontier NOs:
       0.0455   1.9380
    Number of electrons: 16.000000
    Number of unpaired electrons: n_u =  0.40758, n_u,nl =  0.04587
    NO participation ratio (PR_NO): 13.898897
  
  
  Mulliken Population Analysis
  Atom      Charge (e)              h+              e-           Del q
  --------------------------------------------------------------------
   1 H        0.055176        0.013959       -0.011281        0.002678
   2 C       -0.110220        0.094699       -0.099861       -0.005162
   3 H        0.055055        0.013851       -0.011366        0.002485
   4 C       -0.110232        0.094696       -0.099862       -0.005166
   5 H        0.055179        0.013959       -0.011281        0.002678
   6 H        0.055042        0.013852       -0.011366        0.002486
  --------------------------------------------------------------------
  Sum:        0.000000        0.245017       -0.245017       -0.000000
  
  Multipole moment analysis of the density matrix
    Molecular charge:                      0.000000
    Number of electrons:                   16.000000
      Center of electronic charge [Ang]: [ -1.563724,  -0.067799,   0.001992]
    Total nuclear charge:                  16.000000
      Center of nuclear charge [Ang]:    [ -1.563699,  -0.067772,   0.001965]
    Dipole moment [D]:                     0.003570
      Cartesian components [D]:          [  0.001956,   0.002113,  -0.002112]
    RMS size of the density [Ang]:         1.206756
      Cartesian components [Ang]:        [  0.800257,   0.783833,   0.448838]
  
  Exciton analysis of the difference density matrix
    <r_h> [Ang]:                  [ -1.560666,  -0.064588,   0.002480]
    <r_e> [Ang]:                  [ -1.564972,  -0.069114,   0.001975]
    |<r_e - r_h>| [Ang]:            0.006268
    Hole size [Ang]:                1.402053
      Cartesian components [Ang]: [  0.853315,   0.840566,   0.728736]
    Electron size [Ang]:            1.361814
      Cartesian components [Ang]: [  0.879650,   0.864349,   0.577627]
--------------------------------------------------------------------------------
  MP(2) calculation ...  CPU 0.52 s  wall 1.05 s
  Start ADC(2)-s ...  CPU 0.02 s  wall 0.02 s
  ADC(2) intermediates ...  CPU 0.11 s  wall 0.02 s
  Starting Davidson for singlet states of irrep A ... 
--------------------------------------------------------------------------------
   It NVec Conv  Avg. Norm  Max. Norm  Conv. states           Remark
--------------------------------------------------------------------------------
        10    0  1.329e-01  4.685e-01  0.4107 n n n n n n n n Guess.
    1   20    0  2.314e-02  1.109e-01  0.3261 n n n n n n n n 
    2   30    0  5.858e-03  2.489e-02  0.3213 n n n n n n n n 
    3   40    0  1.768e-03  1.041e-02  0.3209 n n n n n n n n 
    4   50    0  5.080e-04  3.427e-03  0.3209 n n n n n n n n 
    5   20    0  2.643e-04  1.744e-03  0.3209 n n n n n n n n Subspace collapsed.
    6   30    0  1.124e-04  7.699e-04  0.3209 n n n n n n n n 
    7   40    0  8.296e-05  7.452e-04  0.3209 n n n n n n n n 
    8   50    0  3.677e-05  3.062e-04  0.3209 n n n n n n n n 
    9   20    0  1.950e-05  1.558e-04  0.3209 n n n n n n n n Subspace collapsed.
   10   30    4  1.649e-05  1.438e-04  0.3209 n n y y y y n n 
   11   40    6  7.779e-06  5.819e-05  0.3209 y y y y y y n n 
   12   50    6  3.771e-06  2.516e-05  0.3209 y y y y y y n n 
   13   20    6  1.889e-06  1.367e-05  0.3209 y y y y y y n n Subspace collapsed.
   14   30    6  1.542e-06  1.222e-05  0.3209 y y y y y y n n 
   15   40    6  7.411e-07  5.124e-06  0.3209 y y y y y y n n 
   16   50    7  4.451e-07  3.440e-06  0.3209 y y y y y y n y 
   17   20    7  2.676e-07  1.943e-06  0.3209 y y y y y y n y Subspace collapsed.
   18   30    8  2.795e-07  1.930e-06  0.3209 y y y y y y y y 
   19   40    8  2.769e-07  2.156e-06  0.3209 y y y y y y y y 
   20   50    9  1.766e-07  1.534e-06  0.3209 y y y y y y y y 
   21   20   10  6.900e-08  5.891e-07  0.3209 y y y y y y y y Converged.
--------------------------------------------------------------------------------
  Davidson Summary: 
 ------------------------------------------------------------
  State  0: excitation energy =   0.3209 a.u.   (converged)
  State  1: excitation energy =   0.3282 a.u.   (converged)
  State  2: excitation energy =   0.3352 a.u.   (converged)
  State  3: excitation energy =   0.3584 a.u.   (converged)
  State  4: excitation energy =   0.3732 a.u.   (converged)
  State  5: excitation energy =   0.3865 a.u.   (converged)
  State  6: excitation energy =   0.4189 a.u.   (converged)
  State  7: excitation energy =   0.4436 a.u.   (converged)
  State  8: excitation energy =   0.4538 a.u.   (converged)
  State  9: excitation energy =   0.4582 a.u.   (converged)
 ------------------------------------------------------------

  Singlet states of irrep A ...  CPU 161.04 s  wall 50.86 s
  TDMs ...  CPU 2.28 s  wall 0.81 s
  SDMs ...  CPU 4.83 s  wall 1.48 s
  Starting TPA DIIS iterations ... 
------------------------------------ 
   It     Res. Norm  Remark
------------------------------------
                       Guess.
    1     4.395e+00  
    2     5.831e+00  
    3     1.086e+00  
    4     2.627e-01  
    5     6.544e-02  
    6     2.767e-02  
    7     8.471e-03  
    8     1.559e-03  
    9     5.864e-04  
   10     9.849e-05  
   11     3.195e-05  
   12     4.932e-06  
   13     1.752e-06  
   14     5.026e-07  Converged.
   ... Converged in 14 steps (norm: 5.02552e-07)
------------------------------------
  Starting TPA DIIS iterations ... 
------------------------------------ 
   It     Res. Norm  Remark
------------------------------------
                       Guess.
    1     4.186e+00  
    2     5.542e+00  
    3     1.037e+00  
    4     2.609e-01  
    5     6.518e-02  
    6     2.767e-02  
    7     8.330e-03  
    8     1.579e-03  
    9     5.954e-04  
   10     9.798e-05  
   11     3.225e-05  
   12     4.893e-06  
   13     1.768e-06  
   14     4.857e-07  Converged.
   ... Converged in 14 steps (norm: 4.8572e-07)
------------------------------------
  Starting TPA DIIS iterations ... 
------------------------------------ 
   It     Res. Norm  Remark
------------------------------------
                       Guess.
    1     6.862e-01  
    2     4.805e-01  
    3     1.689e-01  
    4     6.367e-02  
    5     1.884e-02  
    6     6.823e-03  
    7     1.195e-03  
    8     4.690e-04  
    9     1.956e-04  
   10     3.758e-05  
   11     2.894e-05  
   12     7.806e-06  
   13     4.883e-06  
   14     2.090e-06  
   15     6.421e-07  Converged.
   ... Converged in 15 steps (norm: 6.42061e-07)
------------------------------------
  Starting TPA DIIS iterations ... 
------------------------------------ 
   It     Res. Norm  Remark
------------------------------------
                       Guess.
    1     4.570e+00  
    2     6.144e+00  
    3     1.136e+00  
    4     2.805e-01  
    5     7.049e-02  
    6     2.999e-02  
    7     9.169e-03  
    8     1.687e-03  
    9     6.372e-04  
   10     1.074e-04  
   11     3.506e-05  
   12     5.441e-06  
   13     1.948e-06  
   14     5.576e-07  Converged.
   ... Converged in 14 steps (norm: 5.57592e-07)
------------------------------------
  Starting TPA DIIS iterations ... 
------------------------------------ 
   It     Res. Norm  Remark
------------------------------------
                       Guess.
    1     4.352e+00  
    2     5.840e+00  
    3     1.084e+00  
    4     2.783e-01  
    5     7.021e-02  
    6     3.000e-02  
    7     9.017e-03  
    8     1.709e-03  
    9     6.473e-04  
   10     1.069e-04  
   11     3.537e-05  
   12     5.396e-06  
   13     1.966e-06  
   14     5.376e-07  Converged.
   ... Converged in 14 steps (norm: 5.37609e-07)
------------------------------------
  Starting TPA DIIS iterations ... 
------------------------------------ 
   It     Res. Norm  Remark
------------------------------------
                       Guess.
    1     6.937e-01  
    2     4.911e-01  
    3     1.748e-01  
    4     6.874e-02  
    5     1.974e-02  
    6     7.209e-03  
    7     1.289e-03  
    8     5.138e-04  
    9     2.158e-04  
   10     4.285e-05  
   11     3.220e-05  
   12     8.589e-06  
   13     5.623e-06  
   14     2.457e-06  
   15     7.432e-07  Converged.
   ... Converged in 15 steps (norm: 7.43158e-07)
------------------------------------
  Starting TPA DIIS iterations ... 
------------------------------------ 
   It     Res. Norm  Remark
------------------------------------
                       Guess.
    1     4.752e+00  
    2     6.473e+00  
    3     1.188e+00  
    4     2.994e-01  
    5     7.587e-02  
    6     3.247e-02  
    7     9.915e-03  
    8     1.823e-03  
    9     6.918e-04  
   10     1.170e-04  
   11     3.843e-05  
   12     5.992e-06  
   13     2.163e-06  
   14     6.178e-07  Converged.
   ... Converged in 14 steps (norm: 6.17807e-07)
------------------------------------
  Starting TPA DIIS iterations ... 
------------------------------------ 
   It     Res. Norm  Remark
------------------------------------
                       Guess.
    1     4.524e+00  
    2     6.152e+00  
    3     1.133e+00  
    4     2.970e-01  
    5     7.558e-02  
    6     3.249e-02  
    7     9.751e-03  
    8     1.848e-03  
    9     7.029e-04  
   10     1.164e-04  
   11     3.876e-05  
   12     5.941e-06  
   13     2.184e-06  
   14     5.942e-07  Converged.
   ... Converged in 14 steps (norm: 5.94171e-07)
------------------------------------
  Starting TPA DIIS iterations ... 
------------------------------------ 
   It     Res. Norm  Remark
------------------------------------
                       Guess.
    1     7.011e-01  
    2     5.018e-01  
    3     1.809e-01  
    4     7.421e-02  
    5     2.066e-02  
    6     7.619e-03  
    7     1.391e-03  
    8     5.620e-04  
    9     2.375e-04  
   10     4.883e-05  
   11     3.578e-05  
   12     9.479e-06  
   13     6.467e-06  
   14     2.886e-06  
   15     8.527e-07  Converged.
   ... Converged in 15 steps (norm: 8.52714e-07)
------------------------------------
  Starting TPA DIIS iterations ... 
------------------------------------ 
   It     Res. Norm  Remark
------------------------------------
                       Guess.
    1     5.437e+00  
    2     7.747e+00  
    3     1.382e+00  
    4     3.753e-01  
    5     9.743e-02  
    6     4.252e-02  
    7     1.291e-02  
    8     2.369e-03  
    9     9.126e-04  
   10     1.559e-04  
   11     5.236e-05  
   12     8.281e-06  
   13     3.090e-06  
   14     8.752e-07  Converged.
   ... Converged in 14 steps (norm: 8.75225e-07)
------------------------------------
  Starting TPA DIIS iterations ... 
------------------------------------ 
   It     Res. Norm  Remark
------------------------------------
                       Guess.
    1     5.174e+00  
    2     7.362e+00  
    3     1.318e+00  
    4     3.715e-01  
    5     9.708e-02  
    6     4.260e-02  
    7     1.270e-02  
    8     2.407e-03  
    9     9.283e-04  
   10     1.552e-04  
   11     5.275e-05  
   12     8.197e-06  
   13     3.119e-06  
   14     8.340e-07  Converged.
   ... Converged in 14 steps (norm: 8.34039e-07)
------------------------------------
  Starting TPA DIIS iterations ... 
------------------------------------ 
   It     Res. Norm  Remark
------------------------------------
                       Guess.
    1     7.265e-01  
    2     5.402e-01  
    3     2.034e-01  
    4     9.675e-02  
    5     2.410e-02  
    6     9.258e-03  
    7     1.812e-03  
    8     7.547e-04  
    9     3.252e-04  
   10     7.582e-05  
   11     5.139e-05  
   12     1.372e-05  
   13     1.047e-05  
   14     4.968e-06  
   15     1.308e-06  
   16     5.986e-07  Converged.
   ... Converged in 16 steps (norm: 5.98615e-07)
------------------------------------
  Starting TPA DIIS iterations ... 
------------------------------------ 
   It     Res. Norm  Remark
------------------------------------
                       Guess.
    1     5.965e+00  
    2     8.763e+00  
    3     1.530e+00  
    4     4.382e-01  
    5     1.153e-01  
    6     5.096e-02  
    7     1.539e-02  
    8     2.822e-03  
    9     1.098e-03  
   10     1.886e-04  
   11     6.430e-05  
   12     1.024e-05  
   13     3.923e-06  
   14     1.109e-06  
   15     5.238e-07  Converged.
   ... Converged in 15 steps (norm: 5.23837e-07)
------------------------------------
  Starting TPA DIIS iterations ... 
------------------------------------ 
   It     Res. Norm  Remark
------------------------------------
                       Guess.
    1     5.675e+00  
    2     8.326e+00  
    3     1.459e+00  
    4     4.333e-01  
    5     1.149e-01  
    6     5.111e-02  
    7     1.515e-02  
    8     2.870e-03  
    9     1.118e-03  
   10     1.877e-04  
   11     6.472e-05  
   12     1.013e-05  
   13     3.957e-06  
   14     1.050e-06  
   15     4.949e-07  Converged.
   ... Converged in 15 steps (norm: 4.94891e-07)
------------------------------------
  Starting TPA DIIS iterations ... 
------------------------------------ 
   It     Res. Norm  Remark
------------------------------------
                       Guess.
    1     7.438e-01  
    2     5.679e-01  
    3     2.202e-01  
    4     1.159e-01  
    5     2.680e-02  
    6     1.062e-02  
    7     2.176e-03  
    8     9.058e-04  
    9     3.975e-04  
   10     1.008e-04  
   11     6.581e-05  
   12     1.819e-05  
   13     1.463e-05  
   14     7.051e-06  
   15     1.734e-06  
   16     7.928e-07  Converged.
   ... Converged in 16 steps (norm: 7.92779e-07)
------------------------------------
  Starting TPA DIIS iterations ... 
------------------------------------ 
   It     Res. Norm  Remark
------------------------------------
                       Guess.
    1     6.513e+00  
    2     9.846e+00  
    3     1.683e+00  
    4     5.074e-01  
    5     1.349e-01  
    6     6.034e-02  
    7     1.812e-02  
    8     3.318e-03  
    9     1.303e-03  
   10     2.249e-04  
   11     7.767e-05  
   12     1.244e-05  
   13     4.893e-06  
   14     1.389e-06  
   15     6.965e-07  Converged.
   ... Converged in 15 steps (norm: 6.96462e-07)
------------------------------------
  Starting TPA DIIS iterations ... 
------------------------------------ 
   It     Res. Norm  Remark
------------------------------------
                       Guess.
    1     6.195e+00  
    2     9.355e+00  
    3     1.604e+00  
    4     5.010e-01  
    5     1.345e-01  
    6     6.055e-02  
    7     1.784e-02  
    8     3.379e-03  
    9     1.327e-03  
   10     2.238e-04  
   11     7.809e-05  
   12     1.229e-05  
   13     4.931e-06  
   14     1.308e-06  
   15     6.534e-07  Converged.
   ... Converged in 15 steps (norm: 6.53433e-07)
------------------------------------
  Starting TPA DIIS iterations ... 
------------------------------------ 
   It     Res. Norm  Remark
------------------------------------
                       Guess.
    1     7.600e-01  
    2     5.950e-01  
    3     2.371e-01  
    4     1.373e-01  
    5     2.967e-02  
    6     1.211e-02  
    7     2.588e-03  
    8     1.057e-03  
    9     4.755e-04  
   10     1.300e-04  
   11     8.311e-05  
   12     2.416e-05  
   13     2.020e-05  
   14     9.625e-06  
   15     2.301e-06  
   16     1.025e-06  
   17     3.904e-07  Converged.
   ... Converged in 17 steps (norm: 3.90426e-07)
------------------------------------
  Starting TPA DIIS iterations ... 
------------------------------------ 
   It     Res. Norm  Remark
------------------------------------
                       Guess.
    1     8.252e+00  
    2     1.346e+01  
    3     2.162e+00  
    4     7.486e-01  
    5     2.034e-01  
    6     9.369e-02  
    7     2.767e-02  
    8     5.047e-03  
    9     2.032e-03  
   10     3.532e-04  
   11     1.248e-04  
   12     2.028e-05  
   13     8.599e-06  
   14     2.597e-06  
   15     1.482e-06  
   16     5.679e-07  Converged.
   ... Converged in 16 steps (norm: 5.67853e-07)
------------------------------------
  Starting TPA DIIS iterations ... 
------------------------------------ 
   It     Res. Norm  Remark
------------------------------------
                       Guess.
    1     7.846e+00  
    2     1.279e+01  
    3     2.059e+00  
    4     7.364e-01  
    5     2.028e-01  
    6     9.421e-02  
    7     2.725e-02  
    8     5.155e-03  
    9     2.071e-03  
   10     3.516e-04  
   11     1.252e-04  
   12     2.000e-05  
   13     8.636e-06  
   14     2.404e-06  
   15     1.359e-06  
   16     5.081e-07  Converged.
   ... Converged in 16 steps (norm: 5.08116e-07)
------------------------------------
  Starting TPA DIIS iterations ... 
------------------------------------ 
   It     Res. Norm  Remark
------------------------------------
                       Guess.
    1     8.030e-01  
    2     6.734e-01  
    3     2.879e-01  
    4     2.119e-01  
    5     3.939e-02  
    6     1.728e-02  
    7     4.094e-03  
    8     1.463e-03  
    9     7.374e-04  
   10     2.400e-04  
   11     1.538e-04  
   12     5.325e-05  
   13     4.704e-05  
   14     2.041e-05  
   15     5.407e-06  
   16     1.938e-06  
   17     6.889e-07  Converged.
   ... Converged in 17 steps (norm: 6.88862e-07)
------------------------------------
  Starting TPA DIIS iterations ... 
------------------------------------ 
   It     Res. Norm  Remark
------------------------------------
                       Guess.
    1     1.014e+01  
    2     1.766e+01  
    3     2.669e+00  
    4     1.040e+00  
    5     2.868e-01  
    6     1.353e-01  
    7     3.932e-02  
    8     7.150e-03  
    9     2.938e-03  
   10     5.115e-04  
   11     1.805e-04  
   12     3.010e-05  
   13     1.368e-05  
   14     4.640e-06  
   15     2.866e-06  
   16     1.311e-06  
   17     8.947e-07  Converged.
   ... Converged in 17 steps (norm: 8.94653e-07)
------------------------------------
  Starting TPA DIIS iterations ... 
------------------------------------ 
   It     Res. Norm  Remark
------------------------------------
                       Guess.
    1     9.640e+00  
    2     1.678e+01  
    3     2.541e+00  
    4     1.020e+00  
    5     2.860e-01  
    6     1.363e-01  
    7     3.874e-02  
    8     7.319e-03  
    9     2.996e-03  
   10     5.090e-04  
   11     1.813e-04  
   12     2.973e-05  
   13     1.366e-05  
   14     4.196e-06  
   15     2.564e-06  
   16     1.132e-06  
   17     7.569e-07  Converged.
   ... Converged in 17 steps (norm: 7.56941e-07)
------------------------------------
  Starting TPA DIIS iterations ... 
------------------------------------ 
   It     Res. Norm  Remark
------------------------------------
                       Guess.
    1     8.396e-01  
    2     7.486e-01  
    3     3.392e-01  
    4     2.963e-01  
    5     5.080e-02  
    6     2.327e-02  
    7     5.978e-03  
    8     1.805e-03  
    9     1.043e-03  
   10     3.816e-04  
   11     2.567e-04  
   12     1.005e-04  
   13     8.673e-05  
   14     3.664e-05  
   15     1.143e-05  
   16     3.275e-06  
   17     1.136e-06  
   18     5.650e-07  Converged.
   ... Converged in 18 steps (norm: 5.65004e-07)
------------------------------------
  Starting TPA DIIS iterations ... 
------------------------------------ 
   It     Res. Norm  Remark
------------------------------------
                       Guess.
    1     1.113e+01  
    2     1.996e+01  
    3     2.929e+00  
    4     1.202e+00  
    5     3.336e-01  
    6     1.591e-01  
    7     4.586e-02  
    8     8.329e-03  
    9     3.452e-03  
   10     6.007e-04  
   11     2.109e-04  
   12     3.583e-05  
   13     1.686e-05  
   14     6.071e-06  
   15     3.881e-06  
   16     1.906e-06  
   17     1.217e-06  
   18     4.954e-07  Converged.
   ... Converged in 18 steps (norm: 4.9537e-07)
------------------------------------
  Starting TPA DIIS iterations ... 
------------------------------------ 
   It     Res. Norm  Remark
------------------------------------
                       Guess.
    1     1.058e+01  
    2     1.896e+01  
    3     2.788e+00  
    4     1.177e+00  
    5     3.327e-01  
    6     1.603e-01  
    7     4.519e-02  
    8     8.534e-03  
    9     3.520e-03  
   10     5.977e-04  
   11     2.119e-04  
   12     3.544e-05  
   13     1.676e-05  
   14     5.403e-06  
   15     3.434e-06  
   16     1.588e-06  
   17     1.004e-06  
   18     4.821e-07  Converged.
   ... Converged in 18 steps (norm: 4.82075e-07)
------------------------------------
  Starting TPA DIIS iterations ... 
------------------------------------ 
   It     Res. Norm  Remark
------------------------------------
                       Guess.
    1     8.560e-01  
    2     7.850e-01  
    3     3.648e-01  
    4     3.387e-01  
    5     5.702e-02  
    6     2.639e-02  
    7     7.027e-03  
    8     1.977e-03  
    9     1.212e-03  
   10     4.625e-04  
   11     3.204e-04  
   12     1.301e-04  
   13     1.082e-04  
   14     4.703e-05  
   15     1.570e-05  
   16     4.180e-06  
   17     1.459e-06  
   18     8.175e-07  Converged.
   ... Converged in 18 steps (norm: 8.17512e-07)
------------------------------------
  Starting TPA DIIS iterations ... 
------------------------------------ 
   It     Res. Norm  Remark
------------------------------------
                       Guess.
    1     1.160e+01  
    2     2.108e+01  
    3     3.051e+00  
    4     1.280e+00  
    5     3.565e-01  
    6     1.707e-01  
    7     4.906e-02  
    8     8.906e-03  
    9     3.705e-03  
   10     6.443e-04  
   11     2.255e-04  
   12     3.870e-05  
   13     1.851e-05  
   14     6.839e-06  
   15     4.443e-06  
   16     2.246e-06  
   17     1.389e-06  
   18     5.856e-07  Converged.
   ... Converged in 18 steps (norm: 5.85635e-07)
------------------------------------
  Starting TPA DIIS iterations ... 
------------------------------------ 
   It     Res. Norm  Remark
------------------------------------
                       Guess.
    1     1.102e+01  
    2     2.002e+01  
    3     2.904e+00  
    4     1.253e+00  
    5     3.556e-01  
    6     1.721e-01  
    7     4.834e-02  
    8     9.128e-03  
    9     3.778e-03  
   10     6.411e-04  
   11     2.268e-04  
   12     3.830e-05  
   13     1.834e-05  
   14     6.038e-06  
   15     3.911e-06  
   16     1.836e-06  
   17     1.133e-06  
   18     5.599e-07  Converged.
   ... Converged in 18 steps (norm: 5.59906e-07)
------------------------------------
  Starting TPA DIIS iterations ... 
------------------------------------ 
   It     Res. Norm  Remark
------------------------------------
                       Guess.
    1     8.632e-01  
    2     8.017e-01  
    3     3.766e-01  
    4     3.580e-01  
    5     6.002e-02  
    6     2.784e-02  
    7     7.535e-03  
    8     2.061e-03  
    9     1.294e-03  
   10     5.023e-04  
   11     3.528e-04  
   12     1.453e-04  
   13     1.179e-04  
   14     5.241e-05  
   15     1.799e-05  
   16     4.680e-06  
   17     1.648e-06  
   18     9.527e-07  Converged.
   ... Converged in 18 steps (norm: 9.52658e-07)
------------------------------------
  Two-photon absorbption ...  CPU 178.27 s  wall 45.88 s
  Transition density matrix of state singlet_A_1 printed to ASCII file 'State_singlet_A_1_Transition.txt'
  Transition density matrix of state singlet_A_2 printed to ASCII file 'State_singlet_A_2_Transition.txt'
  Transition density matrix of state singlet_A_3 printed to ASCII file 'State_singlet_A_3_Transition.txt'
  Transition density matrix of state singlet_A_4 printed to ASCII file 'State_singlet_A_4_Transition.txt'
  Transition density matrix of state singlet_A_5 printed to ASCII file 'State_singlet_A_5_Transition.txt'
  Transition density matrix of state singlet_A_6 printed to ASCII file 'State_singlet_A_6_Transition.txt'
  Transition density matrix of state singlet_A_7 printed to ASCII file 'State_singlet_A_7_Transition.txt'
  Transition density matrix of state singlet_A_8 printed to ASCII file 'State_singlet_A_8_Transition.txt'
  Transition density matrix of state singlet_A_9 printed to ASCII file 'State_singlet_A_9_Transition.txt'
  Transition density matrix of state singlet_A_10 printed to ASCII file 'State_singlet_A_10_Transition.txt'
  Transition properties ...  CPU 0.34 s  wall 0.59 s
  Difference density matrix of state singlet_A_1 printed to ASCII file 'State_singlet_A_1_Difference.txt'
  Total density matrix of state singlet_A_1 printed to ASCII file 'State_singlet_A_1_Total.txt'
  Difference density matrix of state singlet_A_2 printed to ASCII file 'State_singlet_A_2_Difference.txt'
  Total density matrix of state singlet_A_2 printed to ASCII file 'State_singlet_A_2_Total.txt'
  Difference density matrix of state singlet_A_3 printed to ASCII file 'State_singlet_A_3_Difference.txt'
  Total density matrix of state singlet_A_3 printed to ASCII file 'State_singlet_A_3_Total.txt'
  Difference density matrix of state singlet_A_4 printed to ASCII file 'State_singlet_A_4_Difference.txt'
  Total density matrix of state singlet_A_4 printed to ASCII file 'State_singlet_A_4_Total.txt'
  Difference density matrix of state singlet_A_5 printed to ASCII file 'State_singlet_A_5_Difference.txt'
  Total density matrix of state singlet_A_5 printed to ASCII file 'State_singlet_A_5_Total.txt'
  Difference density matrix of state singlet_A_6 printed to ASCII file 'State_singlet_A_6_Difference.txt'
  Total density matrix of state singlet_A_6 printed to ASCII file 'State_singlet_A_6_Total.txt'
  Difference density matrix of state singlet_A_7 printed to ASCII file 'State_singlet_A_7_Difference.txt'
  Total density matrix of state singlet_A_7 printed to ASCII file 'State_singlet_A_7_Total.txt'
  Difference density matrix of state singlet_A_8 printed to ASCII file 'State_singlet_A_8_Difference.txt'
  Total density matrix of state singlet_A_8 printed to ASCII file 'State_singlet_A_8_Total.txt'
  Difference density matrix of state singlet_A_9 printed to ASCII file 'State_singlet_A_9_Difference.txt'
  Total density matrix of state singlet_A_9 printed to ASCII file 'State_singlet_A_9_Total.txt'
  Difference density matrix of state singlet_A_10 printed to ASCII file 'State_singlet_A_10_Difference.txt'
  Total density matrix of state singlet_A_10 printed to ASCII file 'State_singlet_A_10_Total.txt'
  Properties ...  CPU 0.65 s  wall 1.00 s
  ISR TDMS ...  CPU 31.14 s  wall 9.58 s
  ISR transition properties ...  CPU 0.57 s  wall 0.27 s
  Sum-over-states TPA ...  CPU 0.00 s  wall 0.00 s

--------------------------------------------------------------------------------
                   State-averaged natural transition orbitals
--------------------------------------------------------------------------------
--------------------------------------------------------------------------------
  SA-NTO decomposition ...  CPU 0.01 s  wall 0.03 s

--------------------------------------------------------------------------------
                             Excited State Summary
--------------------------------------------------------------------------------
--------------------------------------------------------------------------------

  Excited state 1 (singlet, A)                                     [converged]
  ----------------------------------------------------------------------------
  Term symbol:  2 (1) A                                     R^2 =  1.96555e-11

  Total energy:                                            -77.9987688149 a.u.
  Excitation energy:                                               8.732110 eV

  Osc. strength:                                                      0.446172
  Trans. dip. moment [a.u.]:           [  -1.047125,    0.994489,    0.009739]
  <i|r^2|0> [a.u.]:                    [  -6.168822,    0.235479,   -0.000401]
  Two-photon absorption cross-section (SoS) [a.u.]:                   0.054340
  Two-photon absorption matrix (SoS) [a.u.]:
                                       |    0.082075    0.004253    0.002991 |
                                       |    0.004253   -0.082218   -0.004158 |
                                       |    0.002991   -0.004158   -0.000173 |
  Two-photon absorption cross-section [a.u.]:                         0.142282
  Two-photon absorption matrix [a.u.]:
                                       |    0.132973    0.006760    0.005764 |
                                       |    0.006760   -0.132943   -0.005334 |
                                       |    0.005764   -0.005334    0.000019 |

  Dip. moment [a.u.]:                  [   0.003046,    0.003226,   -0.000777]
  Total dipole [Debye]:                                               0.011450
  <r^2> [a.u.]:                        [ 177.065178,   36.054608,   11.921626]
  Total <r^2> [a.u.]:                                               225.041411

  V1^2 = 0.9713, V2^2 = 0.0287

  Important amplitudes:
      occ i     occ j     vir a      vir b          v   
    -----------------------------------------------------
     8 (A) A              9 (A) A                -0.6808
     6 (A) A             14 (A) A                -0.0617
     4 (A) A             10 (A) A                 0.0612
     7 (A) A             16 (A) A                 0.0565
     5 (A) A             13 (A) A                -0.0523
     6 (A) A             23 (A) A                -0.0474
     8 (A) A             20 (A) A                -0.0349
     6 (A) A             19 (A) A                -0.0302
     3 (A) A             12 (A) A                -0.0285
     5 (A) A             22 (A) A                 0.0210
     4 (A) A             24 (A) A                 0.0188
     8 (A) A   8 (A) B   17 (A) A   20 (A) B      0.0184
     7 (A) A             11 (A) A                 0.0180
     8 (A) A   8 (A) B    9 (A) A   28 (A) B     -0.0168
     7 (A) A             21 (A) A                -0.0154
     3 (A) A             26 (A) A                 0.0151
     6 (A) A             26 (A) A                -0.0147
     3 (A) A             14 (A) A                 0.0143
     6 (A) A             12 (A) A                -0.0132
     3 (A) A   4 (A) B    9 (A) A    9 (A) B     -0.0129
     3 (A) A             19 (A) A                 0.0121
     8 (A) A   8 (A) B   18 (A) A   19 (A) B     -0.0110
     3 (A) A             27 (A) A                -0.0110
     7 (A) A             15 (A) A                -0.0103
     7 (A) A             10 (A) A                -0.0101
     7 (A) A             32 (A) A                -0.0095
     6 (A) A             22 (A) A                 0.0085
     3 (A) A             23 (A) A                 0.0081
     6 (A) A             27 (A) A                 0.0078
     8 (A) A   8 (A) B   25 (A) A   29 (A) B      0.0076
     6 (A) A             13 (A) A                -0.0075
     7 (A) A             36 (A) A                 0.0073
     6 (A) A             35 (A) A                 0.0071
     5 (A) A             23 (A) A                 0.0067
     6 (A) A             40 (A) A                -0.0066
     3 (A) A   6 (A) B    9 (A) A   28 (A) B      0.0064
     5 (A) A   8 (A) B   11 (A) A    9 (A) B      0.0061
     7 (A) A   8 (A) B   13 (A) A   20 (A) B      0.0060
     5 (A) A   8 (A) B   11 (A) A   20 (A) B     -0.0060
     5 (A) A   7 (A) B    9 (A) A    9 (A) B      0.0060
    -----------------------------------------------------

  Density matrix analysis:
  ------------------------
  NOs
    Occupation of frontier NOs:
       0.9488   1.0222
    Number of electrons: 16.000000
    Number of unpaired electrons: n_u =  2.31705, n_u,nl =  2.03341
    NO participation ratio (PR_NO):  2.876003
  
  
  Mulliken Population Analysis
  Atom      Charge (e)              h+              e-           Del q
  --------------------------------------------------------------------
   1 H        0.063094        0.020566       -0.012649        0.007918
   2 C       -0.126179        0.490583       -0.506543       -0.015959
   3 H        0.063098        0.020352       -0.012309        0.008043
   4 C       -0.126197        0.490581       -0.506546       -0.015965
   5 H        0.063101        0.020568       -0.012647        0.007921
   6 H        0.063084        0.020351       -0.012309        0.008042
  --------------------------------------------------------------------
  Sum:        0.000000        1.063003       -1.063003       -0.000000
  
  Multipole moment analysis of the density matrix
    Molecular charge:                      0.000000
    Number of electrons:                   16.000000
      Center of electronic charge [Ang]: [ -1.563799,  -0.067879,   0.001990]
    Total nuclear charge:                  16.000000
      Center of nuclear charge [Ang]:    [ -1.563699,  -0.067772,   0.001965]
    Dipole moment [D]:                     0.011450
      Cartesian components [D]:          [  0.007742,   0.008201,  -0.001975]
    RMS size of the density [Ang]:         1.220060
      Cartesian components [Ang]:        [  0.808386,   0.791462,   0.456778]
  
  Exciton analysis of the difference density matrix
    <r_h> [Ang]:                  [ -1.566373,  -0.070597,   0.002150]
    <r_e> [Ang]:                  [ -1.567506,  -0.071790,   0.002124]
    |<r_e - r_h>| [Ang]:            0.001645
    Hole size [Ang]:                1.287420
      Cartesian components [Ang]: [  0.730319,   0.714932,   0.782916]
    Electron size [Ang]:            1.464026
      Cartesian components [Ang]: [  0.854500,   0.831880,   0.849221]

  Transition density matrix analysis:
  -----------------------------------
  
  CT numbers (Mulliken)
    omega =     0.9531
    <Phe> =    -0.1601
  
  Exciton analysis of the transition density matrix
    Trans. dipole moment [D]:             1.835333
      Cartesian components [D]:         [ -1.330763,   1.263869,   0.012377]
    <r_h> [Ang]:                        [ -1.566968,  -0.071226,   0.001996]
    <r_e> [Ang]:                        [ -1.567253,  -0.071524,   0.002230]
    |<r_e - r_h>| [Ang]:                  0.000474
    Hole size [Ang]:                      1.214411
      Cartesian components [Ang]:       [  0.649996,   0.637140,   0.803961]
    Electron size [Ang]:                  1.486856
      Cartesian components [Ang]:       [  0.864926,   0.840718,   0.869388]
    RMS electron-hole separation [Ang]:   1.937073
      Cartesian components [Ang]:       [  1.106760,   1.076276,   1.170027]
    Covariance(r_h, r_e) [Ang^2]:        -0.033358
    Correlation coefficient:             -0.018474
    Center-of-mass size [Ang]:            0.951159
      Cartesian components [Ang]:       [  0.528267,   0.516512,   0.599044]

  Decomposition into state-averaged NTOs
    H- 0 -> L+ 0: -0.6696 ( 89.7%)
    H- 2 -> L+ 5: -0.0829 (  1.4%)
                   omega =  95.3%
  ----------------------------------------------------------------------------


  Excited state 2 (singlet, A)                                     [converged]
  ----------------------------------------------------------------------------
  Term symbol:  3 (1) A                                     R^2 =  5.72379e-11

  Total energy:                                            -77.9914936292 a.u.
  Excitation energy:                                               8.930078 eV

  Osc. strength:                                                      0.000919
  Trans. dip. moment [a.u.]:           [   0.001697,    0.006149,   -0.064489]
  <i|r^2|0> [a.u.]:                    [  -0.054804,   -0.083723,    0.150898]
  Two-photon absorption cross-section (SoS) [a.u.]:                   5.586795
  Two-photon absorption matrix (SoS) [a.u.]:
                                       |   -0.055676   -0.063281    0.569149 |
                                       |   -0.063281   -0.071903    0.598568 |
                                       |    0.569149    0.598568    0.126452 |
  Two-photon absorption cross-section [a.u.]:                         0.056006
  Two-photon absorption matrix [a.u.]:
                                       |    0.004035    0.006527   -0.057018 |
                                       |    0.006527    0.007881   -0.059805 |
                                       |   -0.057018   -0.059805   -0.013461 |

  Dip. moment [a.u.]:                  [  -0.066454,   -0.069736,   -0.009349]
  Total dipole [Debye]:                                               0.245994
  <r^2> [a.u.]:                        [ 175.246627,   34.648475,   13.117941]
  Total <r^2> [a.u.]:                                               223.013043

  V1^2 = 0.9543, V2^2 = 0.0457

  Important amplitudes:
      occ i     occ j     vir a      vir b          v   
    -----------------------------------------------------
     7 (A) A              9 (A) A                 0.6543
     8 (A) A             11 (A) A                -0.1521
     8 (A) A             10 (A) A                 0.1368
     7 (A) A             20 (A) A                 0.0741
     5 (A) A   8 (A) B    9 (A) A    9 (A) B     -0.0306
     8 (A) A             16 (A) A                 0.0275
     8 (A) A             21 (A) A                 0.0194
     5 (A) A             28 (A) A                 0.0146
     4 (A) A   7 (A) B    9 (A) A   19 (A) B     -0.0133
     5 (A) A   7 (A) B    9 (A) A   16 (A) B     -0.0129
     7 (A) A   8 (A) B   20 (A) A   17 (A) B     -0.0103
     7 (A) A   8 (A) A    9 (A) A   28 (A) A     -0.0096
     5 (A) A   8 (A) B    9 (A) A   20 (A) B     -0.0092
     8 (A) A             18 (A) A                -0.0088
     5 (A) A   6 (A) A    9 (A) A   23 (A) A      0.0087
     5 (A) A   6 (A) A    9 (A) A   14 (A) A      0.0087
     4 (A) A   6 (A) B    9 (A) A   16 (A) B      0.0086
     6 (A) A   7 (A) B    9 (A) A   18 (A) B      0.0084
     8 (A) A   7 (A) B    9 (A) A   28 (A) B      0.0084
     5 (A) A   6 (A) B    9 (A) A   19 (A) B      0.0083
     8 (A) A             15 (A) A                -0.0083
     4 (A) A   5 (A) A    9 (A) A   10 (A) A      0.0082
     8 (A) A             24 (A) A                 0.0081
     3 (A) A   7 (A) B    9 (A) A   18 (A) B      0.0078
     5 (A) A   7 (A) A    9 (A) A   16 (A) A     -0.0076
     5 (A) A   6 (A) B    9 (A) A   23 (A) B      0.0076
     4 (A) A   8 (A) B    9 (A) A   25 (A) B      0.0075
     4 (A) A   7 (A) B   19 (A) A    9 (A) B     -0.0073
     7 (A) A   8 (A) B   17 (A) A   20 (A) B     -0.0073
     5 (A) A   5 (A) B    9 (A) A   13 (A) B      0.0070
     7 (A) A   8 (A) B   19 (A) A   18 (A) B      0.0069
     5 (A) A   8 (A) A    9 (A) A   20 (A) A     -0.0066
     4 (A) A   5 (A) B    9 (A) A   18 (A) B     -0.0066
     7 (A) A   7 (A) B   20 (A) A   22 (A) B      0.0064
     7 (A) A   8 (A) B   17 (A) A    9 (A) B     -0.0063
     5 (A) A   6 (A) B    9 (A) A   14 (A) B      0.0061
     5 (A) A   7 (A) B   11 (A) A   20 (A) B      0.0060
     4 (A) A   5 (A) B   10 (A) A    9 (A) B     -0.0060
     4 (A) A   7 (A) A    9 (A) A   19 (A) A     -0.0060
     6 (A) A   7 (A) B   18 (A) A    9 (A) B      0.0058
    -----------------------------------------------------

  Density matrix analysis:
  ------------------------
  NOs
    Occupation of frontier NOs:
       0.9166   1.0934
    Number of electrons: 16.000000
    Number of unpaired electrons: n_u =  2.35844, n_u,nl =  2.09518
    NO participation ratio (PR_NO):  3.277050
  
  
  Mulliken Population Analysis
  Atom      Charge (e)              h+              e-           Del q
  --------------------------------------------------------------------
   1 H        0.127325        0.129114       -0.056965        0.072149
   2 C       -0.284964        0.273421       -0.448166       -0.174744
   3 H        0.157634        0.112433       -0.009854        0.102579
   4 C       -0.284976        0.273447       -0.448191       -0.174743
   5 H        0.127323        0.129113       -0.056970        0.072144
   6 H        0.157658        0.112469       -0.009852        0.102616
  --------------------------------------------------------------------
  Sum:        0.000000        1.029998       -1.029998       -0.000000
  
  Multipole moment analysis of the density matrix
    Molecular charge:                      0.000000
    Number of electrons:                   16.000000
      Center of electronic charge [Ang]: [ -1.561501,  -0.065466,   0.002274]
    Total nuclear charge:                  16.000000
      Center of nuclear charge [Ang]:    [ -1.563699,  -0.067772,   0.001965]
    Dipole moment [D]:                     0.245994
      Cartesian components [D]:          [ -0.168909,  -0.177251,  -0.023764]
    RMS size of the density [Ang]:         1.208532
      Cartesian components [Ang]:        [  0.792996,   0.775967,   0.479147]
  
  Exciton analysis of the difference density matrix
    <r_h> [Ang]:                  [ -1.535091,  -0.037586,   0.005075]
    <r_e> [Ang]:                  [ -1.500554,  -0.001331,   0.009451]
    |<r_e - r_h>| [Ang]:            0.050263
    Hole size [Ang]:                1.494471
      Cartesian components [Ang]: [  1.007140,   0.994688,   0.479281]
    Electron size [Ang]:            1.514433
      Cartesian components [Ang]: [  0.911886,   0.891849,   0.816442]

  Transition density matrix analysis:
  -----------------------------------
  
  CT numbers (Mulliken)
    omega =     0.9215
    <Phe> =    -0.0110
  
  Exciton analysis of the transition density matrix
    Trans. dipole moment [D]:             0.082358
      Cartesian components [D]:         [  0.002157,   0.007815,  -0.081958]
    <r_h> [Ang]:                        [ -1.533885,  -0.036303,   0.005090]
    <r_e> [Ang]:                        [ -1.499945,  -0.000703,   0.009642]
    |<r_e - r_h>| [Ang]:                  0.049397
    Hole size [Ang]:                      1.514602
      Cartesian components [Ang]:       [  1.024464,   1.011844,   0.469751]
    Electron size [Ang]:                  1.512452
      Cartesian components [Ang]:       [  0.904987,   0.884290,   0.828578]
    RMS electron-hole separation [Ang]:   2.124052
      Cartesian components [Ang]:       [  1.353635,   1.331762,   0.951672]
    Covariance(r_h, r_e) [Ang^2]:         0.036188
    Correlation coefficient:              0.015797
    Center-of-mass size [Ang]:            1.078646
      Cartesian components [Ang]:       [  0.690268,   0.678099,   0.476644]

  Decomposition into state-averaged NTOs
    H- 1 -> L+ 0: -0.6467 ( 83.6%)
    H- 0 -> L+ 1: -0.1675 (  5.6%)
    H- 0 -> L+ 2: -0.1154 (  2.7%)
                   omega =  92.2%
  ----------------------------------------------------------------------------


  Excited state 3 (singlet, A)                                     [converged]
  ----------------------------------------------------------------------------
  Term symbol:  4 (1) A                                     R^2 =  6.36299e-12

  Total energy:                                            -77.9844191493 a.u.
  Excitation energy:                                               9.122584 eV

  Osc. strength:                                                      0.021591
  Trans. dip. moment [a.u.]:           [   0.015000,    0.018405,   -0.309905]
  <i|r^2|0> [a.u.]:                    [   0.099018,    0.019703,   -0.022131]
  Two-photon absorption cross-section (SoS) [a.u.]:                   3.322188
  Two-photon absorption matrix (SoS) [a.u.]:
                                       |   -0.048313   -0.048830    0.439058 |
                                       |   -0.048830   -0.053314    0.461951 |
                                       |    0.439058    0.461951    0.090552 |
  Two-photon absorption cross-section [a.u.]:                         2.504064
  Two-photon absorption matrix [a.u.]:
                                       |   -0.044467   -0.041112    0.380946 |
                                       |   -0.041112   -0.049919    0.400828 |
                                       |    0.380946    0.400828    0.080668 |

  Dip. moment [a.u.]:                  [  -0.389722,   -0.409957,   -0.042426]
  Total dipole [Debye]:                                               1.441750
  <r^2> [a.u.]:                        [ 179.160868,   40.575210,   11.153211]
  Total <r^2> [a.u.]:                                               230.889289

  V1^2 = 0.9580, V2^2 = 0.0420

  Important amplitudes:
      occ i     occ j     vir a      vir b          v   
    -----------------------------------------------------
     8 (A) A             10 (A) A                 0.6719
     7 (A) A              9 (A) A                -0.1471
     8 (A) A             24 (A) A                 0.0488
     8 (A) A             18 (A) A                -0.0325
     8 (A) A             11 (A) A                -0.0324
     4 (A) A              9 (A) A                -0.0242
     8 (A) A   8 (A) B    9 (A) A   12 (A) B      0.0213
     8 (A) A   8 (A) B   10 (A) A   17 (A) B      0.0167
     5 (A) A   8 (A) B   11 (A) A   10 (A) B     -0.0162
     7 (A) A             20 (A) A                -0.0159
     8 (A) A             15 (A) A                -0.0154
     7 (A) A   8 (A) B   13 (A) A   10 (A) B      0.0140
     8 (A) A             21 (A) A                 0.0124
     4 (A) A   8 (A) B   12 (A) A   10 (A) B     -0.0109
     7 (A) A   8 (A) B   22 (A) A   10 (A) B     -0.0106
     4 (A) A   8 (A) A   10 (A) A   12 (A) A      0.0104
     6 (A) A   8 (A) A   10 (A) A   15 (A) A     -0.0103
     6 (A) A   8 (A) B   15 (A) A   10 (A) B      0.0102
     7 (A) A   8 (A) A   10 (A) A   22 (A) A      0.0097
     7 (A) A   8 (A) A   10 (A) A   13 (A) A     -0.0096
     5 (A) A   8 (A) A   10 (A) A   11 (A) A      0.0094
     6 (A) A   8 (A) B   10 (A) A   10 (A) B      0.0091
     5 (A) A   8 (A) B   21 (A) A   10 (A) B      0.0090
     6 (A) A   8 (A) A   10 (A) A   18 (A) A      0.0085
     7 (A) A   8 (A) A   12 (A) A   16 (A) A     -0.0078
     3 (A) A   4 (A) B   10 (A) A    9 (A) B      0.0078
     5 (A) A   8 (A) A   10 (A) A   21 (A) A     -0.0077
     4 (A) A   8 (A) B   19 (A) A   10 (A) B      0.0073
     8 (A) A   8 (A) B   10 (A) A   28 (A) B      0.0071
     5 (A) A   8 (A) B    9 (A) A    9 (A) B      0.0071
     8 (A) A   8 (A) B    9 (A) A   23 (A) B      0.0070
     3 (A) A   8 (A) B   10 (A) A   10 (A) B      0.0070
     3 (A) A   8 (A) A   10 (A) A   24 (A) A     -0.0069
     5 (A) A   8 (A) B   10 (A) A   11 (A) B     -0.0068
     7 (A) A   8 (A) B   16 (A) A   12 (A) B      0.0068
     8 (A) A   8 (A) B    9 (A) A   19 (A) B     -0.0067
     3 (A) A   8 (A) B   10 (A) A   18 (A) B     -0.0066
     6 (A) A   8 (A) B   18 (A) A   10 (A) B     -0.0065
     3 (A) A   6 (A) B   10 (A) A   28 (A) B     -0.0060
     7 (A) A   8 (A) B   12 (A) A   11 (A) B     -0.0057
    -----------------------------------------------------

  Density matrix analysis:
  ------------------------
  NOs
    Occupation of frontier NOs:
       0.9401   1.0256
    Number of electrons: 16.000000
    Number of unpaired electrons: n_u =  2.32898, n_u,nl =  2.05137
    NO participation ratio (PR_NO):  2.933395
  
  
  Mulliken Population Analysis
  Atom      Charge (e)              h+              e-           Del q
  --------------------------------------------------------------------
   1 H       -0.202675        0.056283       -0.314133       -0.257850
   2 C        0.276442        0.504752       -0.118090        0.386662
   3 H       -0.073764        0.058865       -0.187684       -0.128819
   4 C        0.276440        0.504750       -0.118077        0.386672
   5 H       -0.202663        0.056285       -0.314127       -0.257843
   6 H       -0.073781        0.058866       -0.187688       -0.128822
  --------------------------------------------------------------------
  Sum:        0.000000        1.239800       -1.239800       -0.000000
  
  Multipole moment analysis of the density matrix
    Molecular charge:                      0.000000
    Number of electrons:                   16.000000
      Center of electronic charge [Ang]: [ -1.550809,  -0.054213,   0.003368]
    Total nuclear charge:                  16.000000
      Center of nuclear charge [Ang]:    [ -1.563699,  -0.067772,   0.001965]
    Dipole moment [D]:                     1.441749
      Cartesian components [D]:          [ -0.990573,  -1.042006,  -0.107835]
    RMS size of the density [Ang]:         1.277894
      Cartesian components [Ang]:        [  0.854766,   0.840951,   0.441803]
  
  Exciton analysis of the difference density matrix
    <r_h> [Ang]:                  [ -1.559042,  -0.062877,   0.002752]
    <r_e> [Ang]:                  [ -1.392371,   0.112457,   0.020506]
    |<r_e - r_h>| [Ang]:            0.242563
    Hole size [Ang]:                1.427526
      Cartesian components [Ang]: [  0.849715,   0.836021,   0.785419]
    Electron size [Ang]:            2.064290
      Cartesian components [Ang]: [  1.363474,   1.366212,   0.731914]

  Transition density matrix analysis:
  -----------------------------------
  
  CT numbers (Mulliken)
    omega =     0.9250
    <Phe> =    -0.0118
  
  Exciton analysis of the transition density matrix
    Trans. dipole moment [D]:             0.395005
      Cartesian components [D]:         [  0.019063,   0.023390,  -0.393850]
    <r_h> [Ang]:                        [ -1.573482,  -0.078072,   0.001366]
    <r_e> [Ang]:                        [ -1.343333,   0.164042,   0.025795]
    |<r_e - r_h>| [Ang]:                  0.334940
    Hole size [Ang]:                      1.229753
      Cartesian components [Ang]:       [  0.661405,   0.648933,   0.808531]
    Electron size [Ang]:                  2.238065
      Cartesian components [Ang]:       [  1.476452,   1.480952,   0.797374]
    RMS electron-hole separation [Ang]:   2.564008
      Cartesian components [Ang]:       [  1.625329,   1.626592,   1.134302]
    Covariance(r_h, r_e) [Ang^2]:         0.029638
    Correlation coefficient:              0.010769
    Center-of-mass size [Ang]:            1.282625
      Cartesian components [Ang]:       [  0.813328,   0.812632,   0.568554]

  Decomposition into state-averaged NTOs
    H- 0 -> L+ 1: -0.6514 ( 84.9%)
    H- 1 -> L+ 0:  0.1454 (  4.2%)
    H- 0 -> L+ 2:  0.1267 (  3.2%)
                   omega =  92.5%
  ----------------------------------------------------------------------------


  Excited state 4 (singlet, A)                                     [converged]
  ----------------------------------------------------------------------------
  Term symbol:  5 (1) A                                     R^2 =  1.89617e-11

  Total energy:                                            -77.9612811676 a.u.
  Excitation energy:                                               9.752201 eV

  Osc. strength:                                                      0.000957
  Trans. dip. moment [a.u.]:           [   0.002581,    0.004372,   -0.063078]
  <i|r^2|0> [a.u.]:                    [   0.029567,    0.020232,   -0.032782]
  Two-photon absorption cross-section (SoS) [a.u.]:                 129.103756
  Two-photon absorption matrix (SoS) [a.u.]:
                                       |    0.263791    0.305328   -2.735868 |
                                       |    0.305328    0.349534   -2.876531 |
                                       |   -2.735868   -2.876531   -0.615558 |
  Two-photon absorption cross-section [a.u.]:                        76.894234
  Two-photon absorption matrix [a.u.]:
                                       |    0.203344    0.236128   -2.111352 |
                                       |    0.236128    0.268215   -2.220102 |
                                       |   -2.111352   -2.220102   -0.474795 |

  Dip. moment [a.u.]:                  [   0.495804,    0.522024,    0.056645]
  Total dipole [Debye]:                                               1.835590
  <r^2> [a.u.]:                        [ 184.964885,   41.268688,   10.792162]
  Total <r^2> [a.u.]:                                               237.025736

  V1^2 = 0.9630, V2^2 = 0.0370

  Important amplitudes:
      occ i     occ j     vir a      vir b          v   
    -----------------------------------------------------
     8 (A) A             11 (A) A                 0.6678
     7 (A) A              9 (A) A                 0.1440
     8 (A) A             21 (A) A                -0.0764
     8 (A) A             16 (A) A                -0.0658
     8 (A) A             10 (A) A                 0.0640
     8 (A) A   8 (A) B    9 (A) A   13 (A) B     -0.0162
     5 (A) A   8 (A) B   11 (A) A   11 (A) B     -0.0159
     8 (A) A   8 (A) B   11 (A) A   17 (A) B      0.0138
     7 (A) A             20 (A) A                 0.0130
     7 (A) A   8 (A) B   13 (A) A   11 (A) B      0.0126
     8 (A) A             24 (A) A                 0.0121
     8 (A) A             15 (A) A                 0.0117
     4 (A) A   8 (A) B   12 (A) A   11 (A) B     -0.0111
     5 (A) A   8 (A) A   11 (A) A   21 (A) A     -0.0109
     8 (A) A   8 (A) B    9 (A) A   22 (A) B      0.0104
     7 (A) A   8 (A) A   11 (A) A   22 (A) A      0.0093
     6 (A) A   8 (A) B   15 (A) A   11 (A) B      0.0091
     6 (A) A   8 (A) B   10 (A) A   11 (A) B      0.0088
     7 (A) A   8 (A) B   22 (A) A   11 (A) B     -0.0087
     3 (A) A   4 (A) B   11 (A) A    9 (A) B      0.0083
     6 (A) A   8 (A) A   11 (A) A   15 (A) A     -0.0082
     3 (A) A   8 (A) B   11 (A) A   18 (A) B     -0.0079
     7 (A) A   8 (A) A   13 (A) A   16 (A) A      0.0076
     7 (A) A   8 (A) A   11 (A) A   13 (A) A     -0.0075
     4 (A) A   8 (A) B   19 (A) A   11 (A) B      0.0070
     5 (A) A   8 (A) B   21 (A) A   11 (A) B      0.0070
     5 (A) A   8 (A) B    9 (A) A    9 (A) B     -0.0063
     4 (A) A   8 (A) A   11 (A) A   12 (A) A      0.0063
     3 (A) A   6 (A) B   11 (A) A   28 (A) B     -0.0060
     6 (A) A   8 (A) A   11 (A) A   18 (A) A      0.0058
     8 (A) A   8 (A) B    9 (A) A   12 (A) B      0.0058
     6 (A) A   8 (A) B   18 (A) A   11 (A) B     -0.0057
     3 (A) A   8 (A) B   11 (A) A   30 (A) B     -0.0056
     7 (A) A   8 (A) B   16 (A) A   13 (A) B     -0.0055
     3 (A) A   8 (A) A   11 (A) A   18 (A) A     -0.0054
     3 (A) A   5 (A) B   11 (A) A   25 (A) B     -0.0054
     7 (A) A   8 (A) B   12 (A) A   10 (A) B     -0.0053
     3 (A) A   8 (A) A   11 (A) A   24 (A) A     -0.0053
     4 (A) A              9 (A) A                -0.0053
     8 (A) A   8 (A) B   20 (A) A   22 (A) B      0.0052
    -----------------------------------------------------

  Density matrix analysis:
  ------------------------
  NOs
    Occupation of frontier NOs:
       0.9446   1.0236
    Number of electrons: 16.000000
    Number of unpaired electrons: n_u =  2.32240, n_u,nl =  2.04729
    NO participation ratio (PR_NO):  2.899954
  
  
  Mulliken Population Analysis
  Atom      Charge (e)              h+              e-           Del q
  --------------------------------------------------------------------
   1 H       -0.035426        0.045122       -0.135724       -0.090602
   2 C        0.257594        0.499922       -0.132108        0.367814
   3 H       -0.222206        0.046649       -0.323910       -0.277261
   4 C        0.257518        0.499883       -0.132133        0.367750
   5 H       -0.035615        0.045113       -0.135908       -0.090795
   6 H       -0.221864        0.046662       -0.323568       -0.276906
  --------------------------------------------------------------------
  Sum:        0.000000        1.183351       -1.183351       -0.000000
  
  Multipole moment analysis of the density matrix
    Molecular charge:                      0.000000
    Number of electrons:                   16.000000
      Center of electronic charge [Ang]: [ -1.580097,  -0.085037,   0.000091]
    Total nuclear charge:                  16.000000
      Center of nuclear charge [Ang]:    [ -1.563699,  -0.067772,   0.001965]
    Dipole moment [D]:                     1.835589
      Cartesian components [D]:          [  1.260207,   1.326852,   0.143976]
    RMS size of the density [Ang]:         1.282356
      Cartesian components [Ang]:        [  0.860529,   0.845603,   0.434606]
  
  Exciton analysis of the difference density matrix
    <r_h> [Ang]:                  [ -1.579386,  -0.084316,   0.000537]
    <r_e> [Ang]:                  [ -1.800758,  -0.317386,  -0.025166]
    |<r_e - r_h>| [Ang]:            0.322471
    Hole size [Ang]:                1.395753
      Cartesian components [Ang]: [  0.820213,   0.806831,   0.790190]
    Electron size [Ang]:            2.093184
      Cartesian components [Ang]: [  1.404938,   1.397808,   0.673575]

  Transition density matrix analysis:
  -----------------------------------
  
  CT numbers (Mulliken)
    omega =     0.9290
    <Phe> =    -0.0142
  
  Exciton analysis of the transition density matrix
    Trans. dipole moment [D]:             0.080423
      Cartesian components [D]:         [  0.003280,   0.005556,  -0.080164]
    <r_h> [Ang]:                        [ -1.565622,  -0.069810,   0.002248]
    <r_e> [Ang]:                        [ -1.846912,  -0.365972,  -0.030462]
    |<r_e - r_h>| [Ang]:                  0.409764
    Hole size [Ang]:                      1.227024
      Cartesian components [Ang]:       [  0.658842,   0.646393,   0.808511]
    Electron size [Ang]:                  2.224444
      Cartesian components [Ang]:       [  1.492714,   1.485794,   0.715801]
    RMS electron-hole separation [Ang]:   2.561499
      Cartesian components [Ang]:       [  1.646433,   1.638471,   1.079793]
    Covariance(r_h, r_e) [Ang^2]:         0.030182
    Correlation coefficient:              0.011058
    Center-of-mass size [Ang]:            1.276137
      Cartesian components [Ang]:       [  0.820506,   0.814546,   0.540194]

  Decomposition into state-averaged NTOs
    H- 0 -> L+ 2:  0.6589 ( 86.8%)
    H- 1 -> L+ 0: -0.1421 (  4.0%)
    H- 0 -> L+ 1:  0.0972 (  1.9%)
                   omega =  92.9%
  ----------------------------------------------------------------------------


  Excited state 5 (singlet, A)                                     [converged]
  ----------------------------------------------------------------------------
  Term symbol:  6 (1) A                                     R^2 =  1.23571e-11

  Total energy:                                            -77.9464747163 a.u.
  Excitation energy:                                              10.155105 eV

  Osc. strength:                                                      0.000000
  Trans. dip. moment [a.u.]:           [   0.000349,   -0.000495,   -0.000023]
  <i|r^2|0> [a.u.]:                    [   0.083062,   -0.096832,    0.015747]
  Two-photon absorption cross-section (SoS) [a.u.]:                 222.891101
  Two-photon absorption matrix (SoS) [a.u.]:
                                       |    0.367175    0.056046   -3.818726 |
                                       |    0.056046   -0.436975    3.620798 |
                                       |   -3.818726    3.620798    0.070987 |
  Two-photon absorption cross-section [a.u.]:                       115.313392
  Two-photon absorption matrix [a.u.]:
                                       |    0.264302    0.040662   -2.746720 |
                                       |    0.040662   -0.313370    2.604366 |
                                       |   -2.746720    2.604366    0.050936 |

  Dip. moment [a.u.]:                  [   0.057816,    0.060289,    0.006390]
  Total dipole [Debye]:                                               0.212934
  <r^2> [a.u.]:                        [ 181.170814,   39.820803,   11.598308]
  Total <r^2> [a.u.]:                                               232.589926

  V1^2 = 0.9554, V2^2 = 0.0446

  Important amplitudes:
      occ i     occ j     vir a      vir b          v   
    -----------------------------------------------------
     8 (A) A             12 (A) A                 0.5704
[...]
    16   -1.314682296306e-03
    17   -1.825221080541e-03
    18    1.690294998243e-03
    19   -2.674383155603e-03
    20    4.237181302716e-03
    21    8.277732401453e-01
    22   -1.695037744243e-03
    23    1.276871035788e-02
    24    7.018965525861e-04
    25    7.001082510501e-02
    26   -5.209253081424e-02
    27   -1.371121144297e+00
    28    7.979297469727e-02
    29   -1.138912835511e-01
    30   -2.927790487384e-03
    31    3.181247811519e-01
    32   -4.260923988652e-01
    33   -1.001063564601e-02
    34    1.495802001481e-02
    35   -1.503300112404e-03
    36   -1.607372328627e-03
    37   -1.432991958511e-03
    38   -2.832433735606e-03
    39    1.926088987720e-02
    40    1.012689768629e+00
    41   -6.342828404413e-04
    42   -1.432323573600e-02
    43   -8.860851837780e-04
    44    4.234695552561e-03
    45    8.278043912232e-01
    46    1.284458183430e-02
    47   -1.038003698207e-03
    48    5.618958883537e-04
Sym=X
Ene= 0.231072
Spin=Alpha
Occup=0
     1   -3.005494241842e-02
     2   -1.048615646638e+00
     3    1.118816627071e-02
     4    3.007884803686e-03
     5    7.207284912678e-04
     6    6.936304870490e-03
     7   -5.215253372605e-03
     8   -1.800048634402e-01
     9    1.375025348140e-01
    10    1.764969557993e-01
    11    1.732876814419e-02
    12    4.564825464825e-01
    13    6.185752942302e-01
    14    5.954037362375e-02
    15    1.175745088897e-03
    16   -2.047020293362e-04
    17   -9.056112544197e-05
    18   -1.324584244921e-03
    19   -5.818434671538e-04
    20    2.924584268564e-02
    21    1.277371703780e+00
    22    3.016248580061e-03
    23    1.476205433384e-02
    24    1.042680037326e-03
    25    6.813911617463e-03
    26   -5.085648696719e-03
    27   -1.780656550229e-01
    28    1.692627280487e-01
    29    1.463325326281e-01
    30    1.693817336334e-02
    31    5.942941589168e-01
    32    4.874795054216e-01
    33    5.786374981346e-02
    34    1.150795492993e-03
    35   -6.416772998803e-05
    36   -2.328915388882e-04
    37    1.376473010874e-03
    38   -4.295359563436e-04
    39   -3.008626412580e-02
    40   -1.049852019130e+00
    41    2.446500212657e-03
    42    1.133688984922e-02
    43    8.004454261963e-04
    44    2.921027195614e-02
    45    1.275752765006e+00
    46    1.457591688958e-02
    47    3.752762493284e-03
    48    9.262365161676e-04
Sym=X
Ene= 0.236151
Spin=Alpha
Occup=0
     1   -1.757276776086e-02
     2   -9.872446615348e-01
     3    1.359100821562e-02
     4    9.849332087104e-03
     5    1.223778655568e-03
     6   -8.692906709592e-02
     7    8.286238002764e-02
     8    1.531379792874e+00
     9    5.548768009863e-02
    10   -5.944238838592e-02
    11   -1.349949639383e-03
    12    1.969155577353e-01
    13   -2.903840914737e-01
    14   -9.782508052322e-03
    15   -2.100956438779e-02
    16    2.227615660226e-03
    17    3.122156880844e-03
    18   -4.748258135188e-03
    19    1.202507128689e-02
    20   -2.107112594773e-02
    21   -1.155336859817e+00
    22   -7.469555941570e-03
    23   -1.832749020918e-02
    24   -1.497104291922e-03
    25    8.693555119688e-02
    26   -8.286279572612e-02
    27   -1.531614815644e+00
    28    6.246823111779e-02
    29   -5.215484247577e-02
    30    2.479080874996e-04
    31    3.010919044962e-01
    32   -1.810670380233e-01
    33    5.140058385245e-03
    34    2.102069004517e-02
    35   -2.723762553551e-03
    36   -2.567591959702e-03
    37   -3.537201878460e-03
    38   -1.244787757335e-02
    39    1.753802877495e-02
    40    9.857379755493e-01
    41   -9.146592379628e-03
    42   -1.405107479253e-02
    43   -1.264789516808e-03
    44    2.109901360189e-02
    45    1.157134552117e+00
    46    1.795417476214e-02
    47    8.397500055161e-03
    48    1.396819932990e-03
Sym=X
Ene= 0.303250
Spin=Alpha
Occup=0
     1    1.862548572096e-02
     2   -1.702545485117e+00
     3    2.519024347958e-02
     4    6.763056541498e-04
     5    1.231225968867e-03
     6   -5.753794266656e-03
     7   -2.030789451985e-03
     8    2.105115015181e-01
     9    1.375324631593e-01
    10    1.412400757256e-01
    11    1.515097429136e-02
    12    1.038008106673e+00
    13    1.260462839809e+00
    14    1.260403170444e-01
    15   -3.597557277011e-03
    16    2.084370684275e-03
    17   -1.535802889247e-03
    18    3.358025812720e-02
    19    3.870548492036e-03
    20   -2.387514592734e-02
    21    1.607715012217e+00
    22   -2.325312303622e-03
    23    2.141591375076e-02
    24    1.200314724535e-03
    25    5.751651535972e-03
    26    2.035779927621e-03
    27   -2.104645528588e-01
    28   -1.341131287527e-01
    29   -1.445084963074e-01
    30   -1.513901742831e-02
    31   -1.206489910836e+00
    32   -1.100443108190e+00
    33   -1.243269986875e-01
    34    3.532766092676e-03
    35    1.360420569054e-03
    36   -2.371335984892e-03
    37    3.379273252744e-02
    38   -4.265695662632e-04
    39   -1.861942194854e-02
    40    1.702561940888e+00
    41    6.111957917720e-04
    42   -2.517944699561e-02
    43   -1.468223497223e-03
    44    2.386742682025e-02
    45   -1.607772036471e+00
    46   -2.151815602379e-02
    47    1.230306139149e-03
    48   -9.748522415390e-04
Sym=X
Ene= 0.462593
Spin=Alpha
Occup=0
     1   -1.265097876004e-01
     2   -6.619942172901e-01
     3   -1.418891231794e-02
     4   -7.928099941322e-03
     5   -1.173038750223e-03
     6    6.271525569574e-02
     7    1.642370034646e-02
     8   -3.644999557846e+00
     9    1.108369022001e-01
    10   -9.242200029724e-02
    11   -5.103205457706e-04
    12    2.446325880013e+00
    13   -2.297714371911e+00
    14   -2.217913917373e-02
    15    5.294350914142e-02
    16   -3.130815134265e-03
    17   -4.675866608140e-03
    18    1.771787353129e-03
    19    2.045183864357e-02
    20   -1.010627545633e-01
    21   -7.341517117835e-01
    22    1.198135090298e-02
    23    1.644878511843e-02
    24    1.562035892650e-03
    25   -6.271678399854e-02
    26   -1.640733379886e-02
    27    3.644993513207e+00
    28    9.804012983474e-02
    29   -1.059360598301e-01
    30   -1.486045951466e-03
    31    2.420663074919e+00
    32   -2.324623363972e+00
    33   -2.302956929855e-02
    34   -5.293941876797e-02
    35    3.366056150973e-03
    36    4.369237594200e-03
    37    3.944873480977e-03
    38   -2.017083697614e-02
    39    1.264160683862e-01
    40    6.620889791271e-01
    41    7.200344617191e-03
    42    1.456340997644e-02
    43    1.232191350735e-03
    44    1.010297202558e-01
    45    7.341813988807e-01
    46   -1.582543714957e-02
    47   -1.279084035777e-02
    48   -1.521155184231e-03
Sym=X
Ene= 0.579091
Spin=Alpha
Occup=0
     1   -3.238032993664e-01
     2    3.246270302099e-02
     3    1.252678367778e-02
     4   -1.799763126534e-02
     5   -5.006909497266e-04
     6    6.657646856083e-03
     7    1.717246901826e-01
     8    3.937381851356e-01
     9   -3.178386578182e-01
    10    2.706831191101e-01
    11    1.037861477494e-03
    12    7.791909761544e-01
    13   -6.429235500204e-01
    14   -1.626860071272e-03
    15    1.340049477319e-03
    16   -4.574956882289e-03
    17   -2.046601663555e-03
    18   -1.664233188291e-02
    19   -6.084841798872e-02
    20   -1.338718415711e-01
    21   -1.206848885778e-01
    22    3.540835969172e-02
    23   -2.918455111426e-02
    24   -8.993578067671e-05
    25    6.671823369934e-03
    26    1.717373060888e-01
    27    3.929677496810e-01
    28    2.866877163453e-01
    29   -3.034017597403e-01
    30   -4.578423136755e-03
    31   -6.828094072397e-01
    32    7.453803900490e-01
    33    1.201992659416e-02
    34    1.308144059434e-03
    35   -2.561590144211e-03
    36   -4.330743868085e-03
    37    2.274361477516e-02
    38   -5.883251592900e-02
    39   -3.237695340987e-01
    40    3.223367396303e-02
    41   -1.863143891983e-02
    42    1.159286823787e-02
    43   -2.091509217100e-04
    44   -1.338966704702e-01
    45   -1.208771316251e-01
    46   -3.096707572703e-02
    47    3.386076907273e-02
    48    5.302613193279e-04
Sym=X
Ene= 0.610103
Spin=Alpha
Occup=0
     1    4.317803276577e-01
     2   -2.591460342778e-01
     3    6.177115678303e-02
     4   -4.601843959256e-02
     5    1.206735673114e-04
     6   -2.471171149063e-03
     7   -3.040680793528e-03
     8    1.745662361311e-01
     9   -8.776596230487e-03
    10    7.553178922717e-02
    11    4.088558106388e-03
    12   -9.044143720416e-02
    13   -4.224513549058e-01
    14   -3.001640656792e-02
    15    6.746570902375e-03
    16    6.428555476899e-03
    17   -9.785420190823e-03
    18    1.476305966286e-01
    19    1.041715327905e-03
    20   -5.866529016096e-01
    21    2.129034189471e-01
    22   -2.912337736753e-02
    23    5.457184570823e-02
    24    1.945004538024e-03
    25   -2.458769961628e-03
    26   -3.068106531060e-03
    27    1.747053673442e-01
    28    7.590810603368e-02
    29   -4.874270900074e-03
    30    3.332457888618e-03
    31   -4.175338318885e-01
    32   -1.119785236729e-01
    33   -2.676309007345e-02
    34    6.986368663698e-03
    35   -8.657631489925e-03
    36    7.325898930634e-03
    37   -1.469991524226e-01
    38   -1.402308337110e-02
    39    4.319395643046e-01
    40   -2.593062627720e-01
    41   -4.912581090378e-02
    42    5.932032744310e-02
    43    1.167189230106e-03
    44   -5.865882498004e-01
    45    2.128421834612e-01
    46    5.600846233140e-02
    47   -2.628634279582e-02
    48    1.152733667725e-03
Sym=X
Ene= 0.688559
Spin=Alpha
Occup=0
     1   -7.782890033957e-04
     2    6.127751328837e-04
     3    6.104395221189e-04
     4    9.965945359939e-04
     5   -1.746218226073e-02
     6   -5.009960006202e-05
     7   -8.553836343310e-04
     8    6.481751456575e-04
     9    3.249406294084e-02
    10    4.037237471723e-02
    11   -6.706188445392e-01
    12   -2.973663786922e-02
    13   -3.681912469941e-02
    14    6.126267386162e-01
    15   -1.026303746063e-03
    16    8.250028163854e-02
    17   -7.847684860224e-02
    18   -8.712783235254e-03
    19   -1.318653840236e-03
    20   -6.105047352547e-04
    21    5.476999726058e-04
    22    1.013779047509e-03
    23    1.419180019432e-03
    24   -1.991163319374e-02
    25   -5.348108515619e-05
    26   -8.203201875572e-04
    27    5.359307863491e-04
    28    3.197438940684e-02
    29    4.070407076449e-02
    30   -6.706216924486e-01
    31   -2.931026552107e-02
    32   -3.698310321566e-02
    33    6.126335363604e-01
    34    1.627244705074e-03
    35   -8.270130135883e-02
    36    7.825595147244e-02
    37    8.752814422099e-03
    38    1.100653735463e-03
    39   -8.651426538973e-04
    40    5.882381061170e-04
    41    7.701967285447e-04
    42    8.238811162813e-04
    43   -1.746083091767e-02
    44   -6.506198954623e-04
    45    3.601669000253e-04
    46    1.150704009210e-03
    47    1.267145016371e-03
    48   -1.991931127902e-02
Sym=X
Ene= 0.704865
Spin=Alpha
Occup=0
     1   -5.279636804962e-01
     2    2.023629983410e-01
     3   -8.218123697178e-02
     4   -4.523379191299e-02
     5   -6.645452420132e-03
     6   -4.570787816344e-02
     7   -2.986199727195e-01
     8    4.532329379249e-01
     9    2.089578919302e-01
    10   -1.729287086295e-01
    11    7.274159773656e-04
    12   -5.798696313382e-02
    13    6.366490739810e-02
    14   -2.827976322493e-04
    15    1.909834198662e-01
    16   -2.102083137000e-02
    17   -2.340960433976e-02
    18   -6.797837293454e-03
    19   -7.747804303178e-02
    20   -4.446686899244e-01
    21    1.319386199799e-01
    22    3.924866084012e-02
    23    7.585218315952e-02
    24    6.505075259429e-03
    25   -4.569584522977e-02
    26   -2.986238072148e-01
    27    4.526356796189e-01
    28   -1.834052517613e-01
    29    1.997810117997e-01
    30    4.397429946122e-03
    31    6.600767372386e-02
    32   -5.441001660333e-02
    33   -1.323589221801e-03
    34    1.909698205961e-01
    35   -1.987694108953e-02
    36   -2.463310897969e-02
    37    1.433332306811e-02
    38   -7.638032228405e-02
    39   -5.279605184194e-01
    40    2.023960831342e-01
    41   -4.099602110868e-02
    42   -8.435275801104e-02
    43   -7.010288807591e-03
    44   -4.446107063286e-01
    45    1.316177146789e-01
    46    7.377265864859e-02
    47    4.305151888542e-02
    48    6.180175790386e-03
Sym=X
Ene= 0.774569
Spin=Alpha
Occup=0
     1    5.339690127201e-01
     2   -4.571404644977e-01
     3    9.875851491941e-02
     4    3.140526205834e-02
     5    6.640640078084e-03
     6    8.875304892186e-02
     7   -2.257495657195e-01
     8   -5.597226366806e-01
     9    1.160015974895e-01
    10   -8.420151799103e-02
    11   -4.123234542926e-04
    12    2.675148381440e-01
    13   -2.974271806411e-01
    14   -3.019386010500e-03
    15   -2.025097855874e-01
    16    1.643877971873e-02
    17    2.270895664374e-02
    18   -1.497569256079e-02
    19    5.809394519394e-03
    20    5.438458531063e-01
    21   -5.006116245626e-01
    22   -1.487977163450e-02
    23   -1.166113702886e-01
    24   -7.778651192794e-03
    25   -8.875713689587e-02
    26    2.257256899588e-01
    27    5.599010112058e-01
    28    9.011737542268e-02
    29   -1.114692461074e-01
    30   -1.466881572791e-03
    31    3.105547249390e-01
    32   -2.519089226726e-01
    33   -2.387116260702e-03
    34    2.025646502204e-01
    35   -1.824385192515e-02
    36   -2.060980564379e-02
    37   -1.468490626130e-02
    38   -7.323912640710e-03
    39   -5.339475507367e-01
    40    4.572093238206e-01
    41   -2.636183623843e-02
    42   -1.001763301120e-01
    43   -7.298562396435e-03
    44   -5.439957658388e-01
    45    5.004653050433e-01
    46    1.157668494712e-01
    47    2.080031185467e-02
    48    6.819114169087e-03
Sym=X
Ene= 0.807335
Spin=Alpha
Occup=0
     1   -4.992319937007e-04
     2    9.482119421144e-04
     3    1.311211313952e-03
     4    2.020794168472e-03
     5   -3.270648935116e-02
     6   -1.076372678580e-04
     7    1.980078238102e-04
     8   -1.929874787790e-04
     9    3.628539659700e-02
    10    4.669655278539e-02
    11   -7.642755499095e-01
    12   -5.427087835397e-02
    13   -6.813663536081e-02
    14    1.124214240463e+00
    15    1.469862485045e-03
    16   -6.525632498007e-02
    17    6.225416968545e-02
    18    6.888554035129e-03
    19    1.070756748316e-03
    20   -6.190203602406e-04
    21    6.785119268950e-04
    22    1.332174807558e-03
    23    2.048720891906e-03
    24   -2.982856966623e-02
    25    1.117478439212e-04
    26   -2.525626509811e-04
    27    2.242323113343e-04
    28   -3.711163983707e-02
    29   -4.558979483817e-02
    30    7.643056199049e-01
    31    5.396263781760e-02
    32    6.787996428254e-02
    33   -1.124245173653e+00
    34    6.314448077553e-04
    35   -6.560341202045e-02
    36    6.189721244719e-02
    37    6.964123934405e-03
    38    8.545181272620e-04
    39    5.018774456497e-04
    40   -6.784191479648e-04
    41   -1.640794287483e-03
    42   -1.758479884087e-03
    43    3.269444661519e-02
    44    6.319515410228e-04
    45   -9.224509326659e-04
    46   -1.700830180208e-03
    47   -1.736717526942e-03
    48    2.983666381469e-02
Sym=X
Ene= 0.857787
Spin=Alpha
Occup=0
     1    8.160025729633e-03
     2   -1.069397711028e+00
     3    1.451592748044e-01
     4    6.240407388609e-02
     5    1.067762537875e-02
     6   -2.147193642598e-03
     7   -3.228795366963e-02
     8    1.104191718683e-02
     9   -4.020029677644e-01
    10   -4.423816392364e-01
    11   -4.617566828900e-02
    12    8.880787554268e-01
    13    1.030518620250e+00
    14    1.052031022184e-01
    15    9.196522687824e-03
    16    1.163412190543e-02
    17   -1.362548011818e-02
    18    2.281797963918e-01
    19    2.453111754188e-02
    20   -1.801711300742e-02
    21    1.076319787034e+00
    22    4.171099885639e-02
    23    1.487709556072e-01
    24    1.106627697463e-02
    25   -2.155539064917e-03
    26   -3.230011281463e-02
    27    1.101410304201e-02
    28   -4.215228112662e-01
    29   -4.238837289560e-01
    30   -4.571948092394e-02
    31    9.844400529261e-01
    32    9.390812500028e-01
    33    1.037205603899e-01
    34    9.638975780932e-03
    35   -1.177778056593e-02
    36    1.290629354197e-02
    37   -2.295243889313e-01
    38    1.130487989044e-03
    39    8.103705451176e-03
    40   -1.069289312914e+00
    41    5.493051454956e-02
    42    1.480691456804e-01
    43    1.151706352596e-02
    44   -1.803717784972e-02
    45    1.076383841768e+00
    46    1.465465772874e-01
    47    4.921792098590e-02
    48    1.005798258330e-02
Sym=X
Ene= 0.927048
Spin=Alpha
Occup=0
     1    1.674551021580e-01
     2   -1.352297259673e+00
     3    1.959487703852e-01
     4    1.500496869641e-02
     5    1.019916814277e-02
     6   -2.182398570439e-03
     7   -4.011498513769e-02
     8   -5.755279116085e-02
     9   -5.213908718926e-01
    10   -4.459714494784e-01
    11   -5.194502769176e-02
    12    1.527027227110e+00
    13    1.269983798884e+00
    14    1.499800366765e-01
    15   -1.910439670138e-03
    16    9.406709258929e-03
    17   -4.304491245457e-03
    18    1.193671708346e-01
    19    6.118606138276e-02
    20   -1.223420667802e-01
    21    1.073962226616e+00
    22   -3.235260919840e-02
    23    1.622341362320e-01
    24    8.357658135207e-03
    25    2.186943028824e-03
    26    4.024877601544e-02
    27    5.732000515378e-02
    28    4.190091876226e-01
    29    5.432093755234e-01
    30    5.283007905539e-02
    31   -1.190964753888e+00
    32   -1.589119386886e+00
    33   -1.529090680678e-01
    34    1.656253674403e-03
    35    3.108986052381e-03
    36   -9.851650665886e-03
    37    1.249848086779e-01
    38   -4.866937419778e-02
    39   -1.674330976520e-01
    40    1.352359513193e+00
    41   -4.972343583368e-03
    42   -1.963577445763e-01
    43   -1.195129831729e-02
    44    1.223714732458e-01
    45   -1.073894854116e+00
    46   -1.637566247001e-01
    47    2.401847217606e-02
    48   -6.510326246034e-03
Sym=X
Ene= 0.970796
Spin=Alpha
Occup=0
     1   -7.300909826928e-02
     2    6.743459280572e-01
     3   -5.699290014115e-02
     4   -9.829038795791e-02
     5   -8.544609636010e-03
     6    2.674497612875e-02
     7    2.511354273227e-01
     8    5.262118157541e-01
     9    4.193583020850e-01
    10   -5.192497317030e-01
    11   -1.179462883599e-02
    12   -1.207618316228e+00
    13    1.687415940425e+00
    14    4.549089070583e-02
    15   -5.865874469338e-02
    16   -1.081618416209e-02
    17   -1.015555370782e-02
    18    3.743709914485e-02
    19   -2.896664728160e-01
    20   -4.189654267134e-02
    21    1.105069344492e+00
    22    8.448035382432e-02
    23    1.193336167115e-01
    24    1.138750967258e-02
    25   -2.674226424778e-02
    26   -2.509277046277e-01
    27   -5.265610051239e-01
    28    5.402300995780e-01
    29   -3.920807467478e-01
    30    2.816023981827e-03
    31   -1.747703669761e+00
    32    1.119288782979e+00
    33   -1.787659346999e-02
    34    5.860372923382e-02
    35    1.320771822614e-02
    36    7.496517266229e-03
    37    7.625316193686e-03
    38    2.919405926028e-01
    39    7.303518391522e-02
    40   -6.742280125757e-01
    41    9.528573207768e-02
    42    6.189312552531e-02
    43    8.209783512061e-03
    44    4.189101277706e-02
    45   -1.104974740213e+00
    46   -1.149155269203e-01
    47   -9.041494505202e-02
    48   -1.108292421498e-02
[5D]

======= END OF MOLDEN-FORMATTED INPUT FILE =======


        *************************************************************
        *                                                           *
        *  Thank you very much for using Q-Chem.  Have a nice day.  *
        *                                                           *
        *************************************************************


