                  Welcome to Q-Chem
     A Quantum Leap Into The Future Of Chemistry


 Q-Chem 5.4 (devel), Q-Chem, Inc., Pleasanton, CA (2021)

 E. Epifanovsky,  A. T. B. Gilbert,  Xintian Feng,  Joonho Lee,  Yuezhi Mao,  
 N. Mardirossian,  P. Pokhilko,  A. White,  M. Wormit,  M. P. Coons,  
 A. L. Dempwolff,  Zhengting Gan,  D. Hait,  P. R. Horn,  L. D. Jacobson,  
 I. Kaliman,  J. Kussmann,  A. W. Lange,  Ka Un Lao,  D. S. Levine,  Jie Liu,  
 S. C. McKenzie,  A. F. Morrison,  K. Nanda,  F. Plasser,  D. R. Rehn,  
 M. L. Vidal,  Zhi-Qiang You,  Ying Zhu,  B. Alam,  B. Albrecht,  
 A. Aldossary,  E. Alguire,  J. H. Andersen,  D. Barton,  K. Begam,  A. Behn,  
 Y. A. Bernard,  E. J. Berquist,  H. Burton,  A. Carreras,  K. Carter-Fenk,  
 R. Chakraborty,  A. D. Chien,  K. D. Closser,  V. Cofer-Shabica,  
 S. Dasgupta,  Jia Deng,  M. de Wergifosse,  M. Diedenhofen,  Hainam Do,  
 S. Ehlert,  Po-Tung Fang,  S. Fatehi,  Qingguo Feng,  T. Friedhoff,  
 J. Gayvert,  Qinghui Ge,  G. Gidofalvi,  M. Goldey,  J. Gomes,  
 C. Gonzalez-Espinoza,  S. Gulania,  A. Gunina,  M. W. D. Hanson-Heine,  
 P. H. P. Harbach,  A. W. Hauser,  M. F. Herbst,  M. Hernandez Vera,  
 M. Hodecker,  Z. C. Holden,  S. Houck,  Xunkun Huang,  Kerwin Hui,  
 B. C. Huynh,  M. Ivanov,  Hyunjun Ji,  Hanjie Jiang,  B. Kaduk,  S. Kaehler,  
 K. Khistyaev,  Jaehoon Kim,  P. Klunzinger,  Z. Koczor-Benda,  
 Joong Hoon Koh,  D. Kosenkov,  L. Koulias,  T. Kowalczyk,  C. M. Krauter,  
 K. Kue,  A. Kunitsa,  T. Kus,  A. Landau,  K. V. Lawler,  D. Lefrancois,  
 S. Lehtola,  Rain Li,  Yi-Pei Li,  Jiashu Liang,  M. Liebenthal,  
 Hung-Hsuan Lin,  You-Sheng Lin,  Fenglai Liu,  Kuan-Yu Liu,  
 M. Loipersberger,  A. Luenser,  A. Manjanath,  P. Manohar,  E. Mansoor,  
 S. F. Manzer,  Shan-Ping Mao,  A. V. Marenich,  T. Markovich,  S. Mason,  
 S. A. Maurer,  P. F. McLaughlin,  M. F. S. J. Menger,  J.-M. Mewes,  
 S. A. Mewes,  P. Morgante,  J. W. Mullinax,  K. J. Oosterbaan,  G. Paran,  
 Alexander C. Paul,  Suranjan K. Paul,  F. Pavosevic,  Zheng Pei,  S. Prager,  
 E. I. Proynov,  E. Ramos,  B. Rana,  A. E. Rask,  A. Rettig,  R. M. Richard,  
 F. Rob,  E. Rossomme,  T. Scheele,  M. Scheurer,  M. Schneider,  
 N. Sergueev,  S. M. Sharada,  W. Skomorowski,  D. W. Small,  C. J. Stein,  
 Yu-Chuan Su,  E. J. Sundstrom,  Zhen Tao,  J. Thirman,  T. Tsuchimochi,  
 N. M. Tubman,  S. P. Veccham,  O. Vydrov,  J. Wenzel,  J. Witte,  A. Yamada,  
 Kun Yao,  S. Yeganeh,  S. R. Yost,  A. Zech,  Igor Ying Zhang,  Xing Zhang,  
 Yu Zhang,  D. Zuev,  A. Aspuru-Guzik,  A. T. Bell,  N. A. Besley,  
 K. B. Bravaya,  B. R. Brooks,  D. Casanova,  Jeng-Da Chai,  S. Coriani,  
 C. J. Cramer,  A. E. DePrince, III,  R. A. DiStasio Jr.,  A. Dreuw,  
 B. D. Dunietz,  T. R. Furlani,  W. A. Goddard III,  S. Grimme,  
 S. Hammes-Schiffer,  T. Head-Gordon,  W. J. Hehre,  Chao-Ping Hsu,  
 T.-C. Jagau,  Yousung Jung,  A. Klamt,  Jing Kong,  D. S. Lambrecht,  
 WanZhen Liang,  N. J. Mayhall,  C. W. McCurdy,  J. B. Neaton,  
 C. Ochsenfeld,  J. A. Parkhill,  R. Peverati,  V. A. Rassolov,  Yihan Shao,  
 L. V. Slipchenko,  T. Stauch,  R. P. Steele,  J. E. Subotnik,  
 A. J. W. Thom,  A. Tkatchenko,  D. G. Truhlar,  T. Van Voorhis,  
 T. A. Wesolowski,  K. B. Whaley,  H. L. Woodcock III,  P. M. Zimmerman,  
 S. Faraji,  P. M. W. Gill,  M. Head-Gordon,  J. M. Herbert,  A. I. Krylov

 Additional authors for Version 5.4.1: 
 S. Kotaru,  Shaozhi Li,  Xiangyuan Li,  F. Matz,  A. Molle,  Haisheng Ren,  
 Yingli Su,  Hung-Yi Tsai,  C. Utku,  Fang Wang

 Contributors to earlier versions of Q-Chem not listed above: 
 R. D. Adamson,  B. Austin,  R. Baer,  J. Baker,  G. J. O. Beran,  
 K. Brandhorst,  S. T. Brown,  E. F. C. Byrd,  A. K. Chakraborty,  
 G. K. L. Chan,  Chun-Min Chang,  Yunqing Chen,  C.-L. Cheng,  
 Siu Hung Chien,  D. M. Chipman,  D. L. Crittenden,  H. Dachsel,  
 R. J. Doerksen,  A. D. Dutoi,  R. G. Edgar,  J. Fosso-Tande,  
 L. Fusti-Molnar,  D. Ghosh,  A. Ghysels,  A. Golubeva-Zadorozhnaya,  
 J. Gonthier,  M. S. Gordon,  S. R. Gwaltney,  G. Hawkins,  J. E. Herr,  
 A. Heyden,  S. Hirata,  E. G. Hohenstein,  G. Kedziora,  F. J. Keil,  
 C. Kelley,  Jihan Kim,  R. A. King,  R. Z. Khaliullin,  P. P. Korambath,  
 W. Kurlancheek,  A. Laurent,  A. M. Lee,  M. S. Lee,  S. V. Levchenko,  
 Ching Yeh Lin,  D. Liotard,  E. Livshits,  R. C. Lochan,  I. Lotan,  
 L. A. Martinez-Martinez,  P. E. Maslen,  N. Nair,  D. P. O'Neill,  
 D. Neuhauser,  E. Neuscamman,  C. M. Oana,  R. Olivares-Amaya,  R. Olson,  
 T. M. Perrine,  B. Peters,  P. A. Pieniazek,  A. Prociuk,  Y. M. Rhee,  
 J. Ritchie,  M. A. Rohrdanz,  E. Rosta,  N. J. Russ,  H. F. Schaefer III,  
 M. W. Schmidt,  N. E. Schultz,  S. Sharma,  N. Shenvi,  C. D. Sherrill,  
 A. C. Simmonett,  A. Sodt,  T. Stein,  D. Stuck,  K. S. Thanthiriwatte,  
 V. Vanovschi,  L. Vogt,  Tao Wang,  A. Warshel,  M. A. Watson,  
 C. F. Williams,  Q. Wu,  X. Xu,  Jun Yang,  W. Zhang,  Yan Zhao

 Please cite Q-Chem as follows:
 Y. Shao et al., Mol. Phys. 113, 184-215 (2015)
 DOI: 10.1080/00268976.2014.952696

 Q-Chem 5.4.1 for Intel X86 EM64T Linux

 Parts of Q-Chem use Armadillo 9.800.1 (Horizon Scraper).
 http://arma.sourceforge.net/

 Q-Chem begins on Thu Nov 17 00:22:07 2022  

 Host: cpu317.baobab
0

     Scratch files written to /scratch/fum/qchem53736//
 Processing $rem in /home/share/wesolowski/qc5.aug2021.FDE/config/preferences:
 Processing $rem in /home/fum/.qchemrc:

 Checking the input file for inconsistencies... 	...done.

--------------------------------------------------------------
User input:
--------------------------------------------------------------
$comment
generated from CCJob.Templates
$end

$rem
sym_ignore = true
method = adc(2)
ee_states = 10
basis = cc-pVDZ
mem_static = 1024
mem_total = 30000
adc_davidson_maxiter = 900
adc_davidson_conv = 6
adc_print = 3
adc_prop_es = true
adc_prop_es2es = true
adc_prop_tpa = true
molden_format = True
state_analysis = true
print_orbitals = 15
gen_scfman = false
fde_export_density = true
fde_details = 3
$end

$molecule
0 1
H -0.0348278765 -0.2442097827 0.0636489606
C -1.0765972949 -0.5242748755 -0.0023551776
H -1.313264467 -1.5767591607 -0.0757276926
C -2.043634118 0.3926884087 0.0061254933
H -1.8137616575 1.4459188338 0.0854456828
H -3.085977293 0.114931858 -0.0593381042                     
$end
--------------------------------------------------------------
 ----------------------------------------------------------------
             Standard Nuclear Orientation (Angstroms)
    I     Atom           X                Y                Z
 ----------------------------------------------------------------
    1      H      -0.0348278765    -0.2442097827     0.0636489606
    2      C      -1.0765972949    -0.5242748755    -0.0023551776
    3      H      -1.3132644670    -1.5767591607    -0.0757276926
    4      C      -2.0436341180     0.3926884087     0.0061254933
    5      H      -1.8137616575     1.4459188338     0.0854456828
    6      H      -3.0859772930     0.1149318580    -0.0593381042
 ----------------------------------------------------------------
 Nuclear Repulsion Energy =          33.42246215 hartrees
 There are        8 alpha and        8 beta electrons
 Requested basis set is cc-pVDZ
 There are 24 shells and 48 basis functions
 Total memory of 30000 MB is distributed as follows: 
   MEM_STATIC is set to 1024 MB
   QALLOC/CCMAN JOB total memory use is  28976 MB
 Warning: actual memory use might exceed 30000 MB

 Total QAlloc Memory Limit  30000 MB
 Mega-Array Size      1001 MB
 MEM_STATIC part      1024 MB

                       Distance Matrix (Angstroms)
             H (  1)   C (  2)   H (  3)   C (  4)   H (  5)
   C (  2)  1.080776
   H (  3)  1.851895  1.081258
   C (  4)  2.108139  1.332687  2.102109
   H (  5)  2.453898  2.105418  3.068070  1.080938
   H (  6)  3.074674  2.109370  2.450428  1.080700  1.846895

 A cutoff of  1.0D-11 yielded    300 shell pairs
 There are      1220 function pairs (      1329 Cartesian)
 Smallest overlap matrix eigenvalue = 4.80E-03

 Scale SEOQF with 1.000000e-01/1.000000e-01/1.000000e+00

 Standard Electronic Orientation quadrupole field applied
 Nucleus-field energy     =     0.0000000022 hartrees
 Guess from superposition of atomic densities
 Warning:  Energy on first SCF cycle will be non-variational
 SAD guess density has 16.000000 electrons
 A restricted Hartree-Fock SCF calculation will be
 performed using Pulay DIIS extrapolation
 SCF converges when DIIS error is below 1.0E-08
 using 8 threads for integral computing
 -------------------------------------------------------
 OpenMP Integral computing Module                
 Release: version 1.0, May 2013, Q-Chem Inc. Pittsburgh 
 -------------------------------------------------------
 ---------------------------------------
  Cycle       Energy         DIIS Error
 ---------------------------------------
    1     -78.4385825403      1.01E-01
    2     -78.0176890338      7.21E-03
    3     -78.0383201960      1.84E-03
    4     -78.0398030954      5.73E-04
    5     -78.0399247109      5.79E-05
    6     -78.0399265862      9.30E-06
    7     -78.0399266468      2.17E-06
    8     -78.0399266496      8.31E-07
    9     -78.0399266498      9.20E-08
   10     -78.0399266498      9.72E-09 Convergence criterion met
 ---------------------------------------
 SCF time:  CPU 2.52 s  wall 2.45 s
 SCF   energy in the final basis set = -78.03992665
 Total energy in the final basis set = -78.03992665
Exporting Density Matrix to file 'Densmat_SCF.txt'.
Export successful
================================================================================
|                                                                              |
|                                 A D C  M A N                                 |
|                                                                              |
 ------------------------------------------------------------------------------ 
|                                                                              |
| Components:                                                                  |
|                                                                              |
| - libvmm - 1.3-trunk                                                         |
|   Authors:                                                                   |
|   Evgeny Epifanovsky, Ilya Kaliman                                           |
|                                                                              |
| - libtensor - 2.5-trunk                                                      |
|   Authors:                                                                   |
|   Evgeny Epifanovsky, Michael Wormit, Dmitry Zuev, Sam Manzer,               |
|   Ilya Kaliman                                                               |
|                                                                              |
| - libwfa - 1.1-trunk                                                         |
|   Authors:                                                                   |
|   Felix Plasser, Stefanie Mewes (Baeppler), Benjamin Thomitzni,              |
|   Michael Wormit, Feng Chen, Anna I. Krylov, Pavel Pokhilko                  |
|                                                                              |
| - libadc - 1.1-trunk                                                         |
|   Authors:                                                                   |
|   Michael Wormit, Adrian L. Dempwolff, Philipp H. P. Harbach,                |
|   Caroline Krauter, Dirk Rehn, Matthias Schneider, Jan Wenzel                |
|                                                                              |
| - adcman - 2.6-trunk                                                         |
|   Authors:                                                                   |
|   Michael Wormit, Adrian L. Dempwolff, Philipp H. P. Harbach,                |
|   Caroline Krauter, Daniel Lefrancois, Jan-Michael Mewes, Dirk Rehn,         |
|   Matthias Schneider, Jan Wenzel, Andreas Dreuw                              |
|                                                                              |
| Authors of earlier versions of ADCMAN:                                       |
| Andreas Dreuw, Jan Hendrik Starcke, Dirk Rehn, Michael Wormit                |
|                                                                              |
================================================================================

 Created directory /scratch/fum/qchem53736/plots
  Import QC data ...  CPU 0.00 s  wall 0.00 s

 Alpha MOs, Restricted
 -- Occupied --                  
-11.235 -11.233  -1.032  -0.790  -0.641  -0.582  -0.505  -0.374
  1 A     2 A     3 A     4 A     5 A     6 A     7 A     8 A                  
 -- Virtual --                   
  0.168   0.204   0.233   0.239   0.303   0.462   0.577   0.615
  9 A    10 A    11 A    12 A    13 A    14 A    15 A    16 A                  
  0.689   0.709   0.784   0.808   0.862   0.936   0.972   1.010
 17 A    18 A    19 A    20 A    21 A    22 A    23 A    24 A                  
  1.130   1.235   1.254   1.266   1.293   1.601   1.726   1.750
 25 A    26 A    27 A    28 A    29 A    30 A    31 A    32 A                  
  1.819   1.859   1.867   1.921   1.977   1.978   2.221   2.257
 33 A    34 A    35 A    36 A    37 A    38 A    39 A    40 A                  
  2.376   2.454   2.506   2.633   2.721   2.822   3.140   3.399
 41 A    42 A    43 A    44 A    45 A    46 A    47 A    48 A                  

 Beta MOs, Restricted
 -- Occupied --                  
-11.235 -11.233  -1.032  -0.790  -0.641  -0.582  -0.505  -0.374
  1 A     2 A     3 A     4 A     5 A     6 A     7 A     8 A                  
 -- Virtual --                   
  0.168   0.204   0.233   0.239   0.303   0.462   0.577   0.615
  9 A    10 A    11 A    12 A    13 A    14 A    15 A    16 A                  
  0.689   0.709   0.784   0.808   0.862   0.936   0.972   1.010
 17 A    18 A    19 A    20 A    21 A    22 A    23 A    24 A                  
  1.130   1.235   1.254   1.266   1.293   1.601   1.726   1.750
 25 A    26 A    27 A    28 A    29 A    30 A    31 A    32 A                  
  1.819   1.859   1.867   1.921   1.977   1.978   2.221   2.257
 33 A    34 A    35 A    36 A    37 A    38 A    39 A    40 A                  
  2.376   2.454   2.506   2.633   2.721   2.822   3.140   3.399
 41 A    42 A    43 A    44 A    45 A    46 A    47 A    48 A                  
  Import AO data ...  CPU 0.00 s  wall 0.00 s
  Using point group: C1
  Irreducible representations in point group: A
  Molecular orbitals: 
  Occupied MOs:
  Block   0:   1 (  A) A   2 (  A) A   3 (  A) A   4 (  A) A   5 (  A) A
                  -11.24      -11.23      -1.032     -0.7897     -0.6411
               6 (  A) A   7 (  A) A   8 (  A) A
                 -0.5819     -0.5046      -0.374
  Block   1:   1 (  A) B   2 (  A) B   3 (  A) B   4 (  A) B   5 (  A) B
                  -11.24      -11.23      -1.032     -0.7897     -0.6411
               6 (  A) B   7 (  A) B   8 (  A) B
                 -0.5819     -0.5046      -0.374
  Virtual MOs:
  Block   0:   9 (  A) A  10 (  A) A  11 (  A) A  12 (  A) A  13 (  A) A
                  0.1684      0.2037      0.2329      0.2394      0.3033
              14 (  A) A  15 (  A) A  16 (  A) A  17 (  A) A  18 (  A) A
                   0.462      0.5775      0.6152      0.6891      0.7089
              19 (  A) A  20 (  A) A  21 (  A) A  22 (  A) A
                  0.7845       0.808      0.8622      0.9359
  Block   1:  23 (  A) A  24 (  A) A  25 (  A) A  26 (  A) A  27 (  A) A
                  0.9724        1.01        1.13       1.235       1.254
              28 (  A) A  29 (  A) A  30 (  A) A  31 (  A) A  32 (  A) A
                   1.266       1.293       1.601       1.726        1.75
              33 (  A) A  34 (  A) A  35 (  A) A  36 (  A) A
                   1.819       1.859       1.867       1.921
  Block   2:  37 (  A) A  38 (  A) A  39 (  A) A  40 (  A) A  41 (  A) A
                   1.977       1.978       2.221       2.257       2.376
              42 (  A) A  43 (  A) A  44 (  A) A  45 (  A) A  46 (  A) A
                   2.454       2.506       2.633       2.721       2.822
              47 (  A) A  48 (  A) A
                    3.14       3.399
  Block   3:   9 (  A) B  10 (  A) B  11 (  A) B  12 (  A) B  13 (  A) B
                  0.1684      0.2037      0.2329      0.2394      0.3033
              14 (  A) B  15 (  A) B  16 (  A) B  17 (  A) B  18 (  A) B
                   0.462      0.5775      0.6152      0.6891      0.7089
              19 (  A) B  20 (  A) B  21 (  A) B  22 (  A) B
                  0.7845       0.808      0.8622      0.9359
  Block   4:  23 (  A) B  24 (  A) B  25 (  A) B  26 (  A) B  27 (  A) B
                  0.9724        1.01        1.13       1.235       1.254
              28 (  A) B  29 (  A) B  30 (  A) B  31 (  A) B  32 (  A) B
                   1.266       1.293       1.601       1.726        1.75
              33 (  A) B  34 (  A) B  35 (  A) B  36 (  A) B
                   1.819       1.859       1.867       1.921
  Block   5:  37 (  A) B  38 (  A) B  39 (  A) B  40 (  A) B  41 (  A) B
                   1.977       1.978       2.221       2.257       2.376
              42 (  A) B  43 (  A) B  44 (  A) B  45 (  A) B  46 (  A) B
                   2.454       2.506       2.633       2.721       2.822
              47 (  A) B  48 (  A) B
                    3.14       3.399
  Import MO data ...  CPU 0.61 s  wall 0.21 s
  Import HF data ...  CPU 7.41 s  wall 2.48 s
  Import 2e integrals ...  CPU 3.17 s  wall 1.07 s

--------------------------------------------------------------------------------
                                   HF Summary                                   
--------------------------------------------------------------------------------
  Energy:                                                  -78.0399266498 a.u.
  Dip. moment [a.u.]:                  [  -0.000761,    0.000506,    0.001823]
  Total dipole [Debye]:                                               0.005184
  <r^2> [a.u.]:                        [ 175.319780,   34.919600,   11.628690]
  Total <r^2> [a.u.]:                                               221.868071
--------------------------------------------------------------------------------
  HF properties ...  CPU 0.54 s  wall 0.19 s
  MP(1) calculation ...  CPU 0.19 s  wall 0.06 s
  N^6 prerequesite intermediates ...  CPU 1.54 s  wall 0.52 s
  Difference density matrix of state mp2_gs printed to ASCII file 'State_mp2_gs_Difference.txt'
Exporting MP density matrix to file 'Densmat_MP.txt'.
Export successful
  Total density matrix of state mp2_gs printed to ASCII file 'State_mp2_gs_Total.txt'
Exporting MP density matrix to file 'Densmat_MP.txt'.
Export successful

--------------------------------------------------------------------------------
                                 MP(2) Summary                                  
--------------------------------------------------------------------------------
  MP energy contribution:                                   -0.2797096961 a.u.
  Total energy:                                            -78.3196363459 a.u.
  Dip. moment [a.u.]:                  [  -0.000742,    0.000414,    0.001795]
  Total dipole [Debye]:                                               0.005049
  <r^2> [a.u.]:                        [ 175.366511,   34.960108,   11.460543]
  Total <r^2> [a.u.]:                                               221.787162

  Density matrix analysis:
  ------------------------
  NOs
    Occupation of frontier NOs:
       0.0453   1.9383
    Number of electrons: 16.000000
    Number of unpaired electrons: n_u =  0.40345, n_u,nl =  0.04508
    NO participation ratio (PR_NO): 13.857834
  
  
  Mulliken Population Analysis
  Atom      Charge (e)              h+              e-           Del q
  --------------------------------------------------------------------
   1 H        0.050953        0.014032       -0.011202        0.002830
   2 C       -0.100711        0.093218       -0.098847       -0.005629
   3 H        0.050544        0.014074       -0.011191        0.002883
   4 C       -0.101583        0.093007       -0.098909       -0.005902
   5 H        0.050223        0.014116       -0.011186        0.002930
   6 H        0.050574        0.014081       -0.011193        0.002888
  --------------------------------------------------------------------
  Sum:       -0.000000        0.242528       -0.242528        0.000000
  
  Multipole moment analysis of the density matrix
    Molecular charge:                      -0.000000
    Number of electrons:                   16.000000
      Center of electronic charge [Ang]: [ -1.560552,  -0.065616,   0.002231]
    Total nuclear charge:                  16.000000
      Center of nuclear charge [Ang]:    [ -1.560576,  -0.065602,   0.002291]
    Dipole moment [D]:                     0.005049
      Cartesian components [D]:          [ -0.001886,   0.001054,   0.004564]
    RMS size of the density [Ang]:         1.200849
      Cartesian components [Ang]:        [  0.796181,   0.779461,   0.447856]
  
  Exciton analysis of the difference density matrix
    <r_h> [Ang]:                  [ -1.560425,  -0.065805,   0.001933]
    <r_e> [Ang]:                  [ -1.560466,  -0.065606,   0.001994]
    |<r_e - r_h>| [Ang]:            0.000212
    Hole size [Ang]:                1.393737
      Cartesian components [Ang]: [  0.846651,   0.834216,   0.727853]
    Electron size [Ang]:            1.359773
      Cartesian components [Ang]: [  0.877865,   0.861808,   0.579329]
--------------------------------------------------------------------------------
  MP(2) calculation ...  CPU 3.60 s  wall 1.26 s
  Start ADC(2)-s ...  CPU 0.18 s  wall 0.06 s
  ADC(2) intermediates ...  CPU 1.06 s  wall 0.36 s
  Starting Davidson for singlet states of irrep A ... 
--------------------------------------------------------------------------------
   It NVec Conv  Avg. Norm  Max. Norm  Conv. states           Remark
--------------------------------------------------------------------------------
        10    0  1.330e-01  4.687e-01  0.4119 n n n n n n n n Guess.
    1   20    0  2.304e-02  1.109e-01  0.3262 n n n n n n n n 
    2   30    0  5.862e-03  2.553e-02  0.3215 n n n n n n n n 
    3   40    0  2.024e-03  1.342e-02  0.3211 n n n n n n n n 
    4   50    0  5.810e-04  3.968e-03  0.3211 n n n n n n n n 
    5   20    0  2.683e-04  1.887e-03  0.3211 n n n n n n n n Subspace collapsed.
    6   30    0  1.617e-04  1.362e-03  0.3211 n n n n n n n n 
    7   40    0  1.250e-04  9.678e-04  0.3211 n n n n n n n n 
    8   50    0  1.320e-04  1.266e-03  0.3211 n n n n n n n n 
    9   20    1  6.834e-05  6.470e-04  0.3211 n y n n n n n n Subspace collapsed.
   10   30    3  4.648e-05  4.271e-04  0.3211 n y y y n n n n 
   11   40    4  2.767e-05  2.654e-04  0.3211 n y y y y n n n 
   12   50    6  4.211e-05  4.184e-04  0.3211 y y y y y y n n 
   13   20    6  2.253e-05  2.240e-04  0.3211 y y y y y y n n Subspace collapsed.
   14   30    6  2.727e-05  2.714e-04  0.3211 y y y y y y n n 
   15   40    6  2.530e-05  2.524e-04  0.3211 y y y y y y n n 
   16   50    6  2.900e-05  2.897e-04  0.3211 y y y y y y n n 
   17   20    6  1.405e-05  1.403e-04  0.3211 y y y y y y n n Subspace collapsed.
   18   30    7  1.266e-05  1.265e-04  0.3211 y y y y y y y n 
   19   40    8  7.998e-06  7.992e-05  0.3211 y y y y y y y y 
   20   50    8  9.978e-06  9.973e-05  0.3211 y y y y y y y y 
   21   20    8  5.692e-06  5.689e-05  0.3211 y y y y y y y y Subspace collapsed.
   22   30    8  7.721e-06  7.719e-05  0.3211 y y y y y y y y 
   23   32    8  6.482e-06  6.480e-05  0.3211 y y y y y y y y 
   24   34    8  6.293e-06  6.291e-05  0.3211 y y y y y y y y 
   25   42    8  7.486e-06  7.484e-05  0.3211 y y y y y y y y 
   26   50    8  7.662e-06  7.662e-05  0.3211 y y y y y y y y 
   27   16    9  3.248e-06  3.248e-05  0.3211 y y y y y y y y Subspace collapsed.
   28   22    9  2.647e-06  2.647e-05  0.3211 y y y y y y y y 
   29   28    9  1.708e-06  1.708e-05  0.3211 y y y y y y y y 
   30   28    9  1.708e-06  1.708e-05  0.3211 y y y y y y y y 
   31   38    9  1.327e-06  1.327e-05  0.3211 y y y y y y y y 
   32   43    9  1.325e-06  1.325e-05  0.3211 y y y y y y y y 
   33   47    9  1.681e-06  1.681e-05  0.3211 y y y y y y y y 
   34   50    9  1.163e-06  1.163e-05  0.3211 y y y y y y y y 
   35   14    9  4.462e-07  4.462e-06  0.3211 y y y y y y y y Subspace collapsed.
   36   18    9  3.165e-07  3.165e-06  0.3211 y y y y y y y y 
   37   22    9  2.236e-07  2.236e-06  0.3211 y y y y y y y y 
   38   26    9  1.203e-07  1.203e-06  0.3211 y y y y y y y y 
   39   30    9  1.330e-07  1.330e-06  0.3211 y y y y y y y y 
   40   34    9  1.478e-07  1.478e-06  0.3211 y y y y y y y y 
   41   38    9  1.411e-07  1.411e-06  0.3211 y y y y y y y y 
   42   42    9  1.041e-07  1.041e-06  0.3211 y y y y y y y y 
   43   46   10  4.926e-08  4.926e-07  0.3211 y y y y y y y y Converged.
--------------------------------------------------------------------------------
  Davidson Summary: 
 ------------------------------------------------------------
  State  0: excitation energy =   0.3211 a.u.   (converged)
  State  1: excitation energy =   0.3327 a.u.   (converged)
  State  2: excitation energy =   0.3370 a.u.   (converged)
  State  3: excitation energy =   0.3613 a.u.   (converged)
  State  4: excitation energy =   0.3753 a.u.   (converged)
  State  5: excitation energy =   0.3872 a.u.   (converged)
  State  6: excitation energy =   0.4247 a.u.   (converged)
  State  7: excitation energy =   0.4471 a.u.   (converged)
  State  8: excitation energy =   0.4563 a.u.   (converged)
  State  9: excitation energy =   0.4647 a.u.   (converged)
 ------------------------------------------------------------

  Singlet states of irrep A ...  CPU 636.97 s  wall 213.62 s
  TDMs ...  CPU 2.45 s  wall 0.72 s
  SDMs ...  CPU 4.43 s  wall 1.38 s
  Starting TPA DIIS iterations ... 
------------------------------------ 
   It     Res. Norm  Remark
------------------------------------
                       Guess.
    1     4.405e+00  
    2     5.840e+00  
    3     1.077e+00  
    4     2.567e-01  
    5     6.575e-02  
    6     2.674e-02  
    7     8.239e-03  
    8     1.440e-03  
    9     5.336e-04  
   10     9.062e-05  
   11     2.839e-05  
   12     4.935e-06  
   13     1.807e-06  
   14     8.037e-07  Converged.
   ... Converged in 14 steps (norm: 8.03687e-07)
------------------------------------
  Starting TPA DIIS iterations ... 
------------------------------------ 
   It     Res. Norm  Remark
------------------------------------
                       Guess.
    1     4.184e+00  
    2     5.541e+00  
    3     1.029e+00  
    4     2.556e-01  
    5     6.535e-02  
    6     2.674e-02  
    7     8.116e-03  
    8     1.458e-03  
    9     5.381e-04  
   10     9.105e-05  
   11     2.869e-05  
   12     5.075e-06  
   13     1.666e-06  
   14     8.569e-07  Converged.
   ... Converged in 14 steps (norm: 8.56881e-07)
------------------------------------
  Starting TPA DIIS iterations ... 
------------------------------------ 
   It     Res. Norm  Remark
------------------------------------
                       Guess.
    1     6.876e-01  
    2     4.823e-01  
    3     1.702e-01  
    4     5.381e-02  
    5     1.836e-02  
    6     6.814e-03  
    7     1.039e-03  
    8     4.483e-04  
    9     1.236e-04  
   10     3.011e-05  
   11     4.918e-06  
   12     1.513e-06  
   13     7.012e-07  Converged.
   ... Converged in 13 steps (norm: 7.01242e-07)
------------------------------------
  Starting TPA DIIS iterations ... 
------------------------------------ 
   It     Res. Norm  Remark
------------------------------------
                       Guess.
    1     4.693e+00  
    2     6.356e+00  
    3     1.158e+00  
    4     2.852e-01  
    5     7.407e-02  
    6     3.039e-02  
    7     9.344e-03  
    8     1.630e-03  
    9     6.087e-04  
   10     1.040e-04  
   11     3.293e-05  
   12     5.856e-06  
   13     2.184e-06  
   14     9.983e-07  Converged.
   ... Converged in 14 steps (norm: 9.9832e-07)
------------------------------------
  Starting TPA DIIS iterations ... 
------------------------------------ 
   It     Res. Norm  Remark
------------------------------------
                       Guess.
    1     4.456e+00  
    2     6.030e+00  
    3     1.107e+00  
    4     2.838e-01  
    5     7.363e-02  
    6     3.040e-02  
    7     9.208e-03  
    8     1.652e-03  
    9     6.141e-04  
   10     1.046e-04  
   11     3.328e-05  
   12     6.051e-06  
   13     2.003e-06  
   14     1.079e-06  
   15     2.865e-07  Converged.
   ... Converged in 15 steps (norm: 2.8646e-07)
------------------------------------
  Starting TPA DIIS iterations ... 
------------------------------------ 
   It     Res. Norm  Remark
------------------------------------
                       Guess.
    1     6.996e-01  
    2     4.996e-01  
    3     1.800e-01  
    4     6.066e-02  
    5     1.986e-02  
    6     7.425e-03  
    7     1.173e-03  
    8     5.285e-04  
    9     1.495e-04  
   10     3.458e-05  
   11     5.557e-06  
   12     1.779e-06  
   13     8.790e-07  Converged.
   ... Converged in 13 steps (norm: 8.79044e-07)
------------------------------------
  Starting TPA DIIS iterations ... 
------------------------------------ 
   It     Res. Norm  Remark
------------------------------------
                       Guess.
    1     4.806e+00  
    2     6.562e+00  
    3     1.190e+00  
    4     2.968e-01  
    5     7.744e-02  
    6     3.187e-02  
    7     9.791e-03  
    8     1.707e-03  
    9     6.393e-04  
   10     1.095e-04  
   11     3.480e-05  
   12     6.243e-06  
   13     2.344e-06  
   14     1.083e-06  
   15     3.363e-07  Converged.
   ... Converged in 15 steps (norm: 3.36338e-07)
------------------------------------
  Starting TPA DIIS iterations ... 
------------------------------------ 
   It     Res. Norm  Remark
------------------------------------
                       Guess.
    1     4.563e+00  
    2     6.224e+00  
    3     1.137e+00  
    4     2.952e-01  
    5     7.699e-02  
    6     3.189e-02  
    7     9.650e-03  
    8     1.731e-03  
    9     6.450e-04  
   10     1.101e-04  
   11     3.518e-05  
   12     6.464e-06  
   13     2.147e-06  
   14     1.177e-06  
   15     3.126e-07  Converged.
   ... Converged in 15 steps (norm: 3.12648e-07)
------------------------------------
  Starting TPA DIIS iterations ... 
------------------------------------ 
   It     Res. Norm  Remark
------------------------------------
                       Guess.
    1     7.041e-01  
    2     5.062e-01  
    3     1.838e-01  
    4     6.348e-02  
    5     2.043e-02  
    6     7.672e-03  
    7     1.228e-03  
    8     5.620e-04  
    9     1.603e-04  
   10     3.607e-05  
   11     5.809e-06  
   12     1.891e-06  
   13     9.576e-07  Converged.
   ... Converged in 13 steps (norm: 9.576e-07)
------------------------------------
  Starting TPA DIIS iterations ... 
------------------------------------ 
   It     Res. Norm  Remark
------------------------------------
                       Guess.
    1     5.545e+00  
    2     7.942e+00  
    3     1.397e+00  
    4     3.768e-01  
    5     1.008e-01  
    6     4.224e-02  
    7     1.290e-02  
    8     2.239e-03  
    9     8.528e-04  
   10     1.479e-04  
   11     4.819e-05  
   12     9.125e-06  
   13     3.574e-06  
   14     1.754e-06  
   15     5.093e-07  Converged.
   ... Converged in 15 steps (norm: 5.09304e-07)
------------------------------------
  Starting TPA DIIS iterations ... 
------------------------------------ 
   It     Res. Norm  Remark
------------------------------------
                       Guess.
    1     5.264e+00  
    2     7.532e+00  
    3     1.334e+00  
    4     3.742e-01  
    5     1.002e-01  
    6     4.234e-02  
    7     1.272e-02  
    8     2.274e-03  
    9     8.611e-04  
   10     1.491e-04  
   11     4.876e-05  
   12     9.584e-06  
   13     3.260e-06  
   14     1.976e-06  
   15     5.362e-07  Converged.
   ... Converged in 15 steps (norm: 5.3624e-07)
------------------------------------
  Starting TPA DIIS iterations ... 
------------------------------------ 
   It     Res. Norm  Remark
------------------------------------
                       Guess.
    1     7.309e-01  
    2     5.473e-01  
    3     2.081e-01  
    4     8.376e-02  
    5     2.408e-02  
    6     9.385e-03  
    7     1.627e-03  
    8     8.008e-04  
    9     2.360e-04  
   10     4.201e-05  
   11     7.498e-06  
   12     2.721e-06  
   13     1.600e-06  
   14     5.402e-07  Converged.
   ... Converged in 14 steps (norm: 5.40214e-07)
------------------------------------
  Starting TPA DIIS iterations ... 
------------------------------------ 
   It     Res. Norm  Remark
------------------------------------
                       Guess.
    1     6.056e+00  
    2     8.927e+00  
    3     1.539e+00  
    4     4.363e-01  
    5     1.181e-01  
    6     5.002e-02  
    7     1.520e-02  
    8     2.632e-03  
    9     1.013e-03  
   10     1.769e-04  
   11     5.851e-05  
   12     1.148e-05  
   13     4.610e-06  
   14     2.350e-06  
   15     6.448e-07  Converged.
   ... Converged in 15 steps (norm: 6.44849e-07)
------------------------------------
  Starting TPA DIIS iterations ... 
------------------------------------ 
   It     Res. Norm  Remark
------------------------------------
                       Guess.
    1     5.747e+00  
    2     8.467e+00  
    3     1.470e+00  
    4     4.327e-01  
    5     1.175e-01  
    6     5.020e-02  
    7     1.500e-02  
    8     2.677e-03  
    9     1.023e-03  
   10     1.785e-04  
   11     5.928e-05  
   12     1.219e-05  
   13     4.222e-06  
   14     2.710e-06  
   15     7.555e-07  Converged.
   ... Converged in 15 steps (norm: 7.55476e-07)
------------------------------------
  Starting TPA DIIS iterations ... 
------------------------------------ 
   It     Res. Norm  Remark
------------------------------------
                       Guess.
    1     7.472e-01  
    2     5.737e-01  
    3     2.243e-01  
    4     9.951e-02  
    5     2.656e-02  
    6     1.067e-02  
    7     1.940e-03  
    8     9.736e-04  
    9     2.897e-04  
   10     4.334e-05  
   11     8.733e-06  
   12     3.388e-06  
   13     2.174e-06  
   14     6.716e-07  Converged.
   ... Converged in 14 steps (norm: 6.71603e-07)
------------------------------------
  Starting TPA DIIS iterations ... 
------------------------------------ 
   It     Res. Norm  Remark
------------------------------------
                       Guess.
    1     6.556e+00  
    2     9.916e+00  
    3     1.678e+00  
    4     4.974e-01  
    5     1.359e-01  
    6     5.811e-02  
    7     1.757e-02  
    8     3.035e-03  
    9     1.179e-03  
   10     2.070e-04  
   11     6.938e-05  
   12     1.408e-05  
   13     5.773e-06  
   14     3.046e-06  
   15     7.882e-07  Converged.
   ... Converged in 15 steps (norm: 7.88242e-07)
------------------------------------
  Starting TPA DIIS iterations ... 
------------------------------------ 
   It     Res. Norm  Remark
------------------------------------
                       Guess.
    1     6.221e+00  
    2     9.404e+00  
    3     1.601e+00  
    4     4.928e-01  
    5     1.352e-01  
    6     5.836e-02  
    7     1.734e-02  
    8     3.090e-03  
    9     1.192e-03  
   10     2.091e-04  
   11     7.038e-05  
   12     1.511e-05  
   13     5.335e-06  
   14     3.593e-06  
   15     1.034e-06  
   16     7.310e-07  Converged.
   ... Converged in 16 steps (norm: 7.30961e-07)
------------------------------------
  Starting TPA DIIS iterations ... 
------------------------------------ 
   It     Res. Norm  Remark
------------------------------------
                       Guess.
    1     7.616e-01  
    2     5.982e-01  
    3     2.397e-01  
    4     1.162e-01  
    5     2.902e-02  
    6     1.199e-02  
    7     2.274e-03  
    8     1.138e-03  
    9     3.413e-04  
   10     4.386e-05  
   11     1.002e-05  
   12     4.112e-06  
   13     2.838e-06  
   14     8.082e-07  Converged.
   ... Converged in 14 steps (norm: 8.08207e-07)
------------------------------------
  Starting TPA DIIS iterations ... 
------------------------------------ 
   It     Res. Norm  Remark
------------------------------------
                       Guess.
    1     8.661e+00  
    2     1.432e+01  
    3     2.250e+00  
    4     7.823e-01  
    5     2.190e-01  
    6     9.657e-02  
    7     2.863e-02  
    8     4.905e-03  
    9     1.966e-03  
   10     3.507e-04  
   11     1.216e-04  
   12     2.844e-05  
   13     1.225e-05  
   14     7.426e-06  
   15     1.525e-06  
   16     1.134e-06  
   17     2.570e-07  Converged.
   ... Converged in 17 steps (norm: 2.57045e-07)
------------------------------------
  Starting TPA DIIS iterations ... 
------------------------------------ 
   It     Res. Norm  Remark
------------------------------------
                       Guess.
    1     8.215e+00  
    2     1.358e+01  
    3     2.146e+00  
    4     7.722e-01  
    5     2.181e-01  
    6     9.727e-02  
    7     2.828e-02  
    8     5.013e-03  
    9     1.992e-03  
   10     3.563e-04  
   11     1.246e-04  
   12     3.195e-05  
   13     1.241e-05  
   14     9.431e-06  
   15     3.089e-06  
   16     1.929e-06  
   17     4.816e-07  Converged.
   ... Converged in 17 steps (norm: 4.81574e-07)
------------------------------------
  Starting TPA DIIS iterations ... 
------------------------------------ 
   It     Res. Norm  Remark
------------------------------------
                       Guess.
    1     8.113e-01  
    2     6.905e-01  
    3     3.006e-01  
    4     1.981e-01  
    5     4.017e-02  
    6     1.816e-02  
    7     3.946e-03  
    8     1.664e-03  
    9     5.398e-04  
   10     5.211e-05  
   11     1.635e-05  
   12     7.848e-06  
   13     6.589e-06  
   14     1.454e-06  
   15     6.048e-07  Converged.
   ... Converged in 15 steps (norm: 6.04846e-07)
------------------------------------
  Starting TPA DIIS iterations ... 
------------------------------------ 
   It     Res. Norm  Remark
------------------------------------
                       Guess.
    1     1.049e+01  
    2     1.842e+01  
    3     2.734e+00  
    4     1.057e+00  
    5     2.999e-01  
    6     1.349e-01  
    7     3.939e-02  
    8     6.713e-03  
    9     2.746e-03  
   10     4.938e-04  
   11     1.728e-04  
   12     4.579e-05  
   13     1.988e-05  
   14     1.353e-05  
   15     2.521e-06  
   16     2.244e-06  
   17     4.936e-07  Converged.
   ... Converged in 17 steps (norm: 4.93628e-07)
------------------------------------
  Starting TPA DIIS iterations ... 
------------------------------------ 
   It     Res. Norm  Remark
------------------------------------
                       Guess.
    1     9.943e+00  
    2     1.747e+01  
    3     2.606e+00  
    4     1.041e+00  
    5     2.988e-01  
    6     1.361e-01  
    7     3.893e-02  
    8     6.877e-03  
    9     2.788e-03  
   10     5.042e-04  
   11     1.793e-04  
   12     5.319e-05  
   13     2.291e-05  
   14     1.772e-05  
   15     6.253e-06  
   16     3.418e-06  
   17     9.134e-07  Converged.
   ... Converged in 17 steps (norm: 9.13443e-07)
------------------------------------
  Starting TPA DIIS iterations ... 
------------------------------------ 
   It     Res. Norm  Remark
------------------------------------
                       Guess.
    1     8.445e-01  
    2     7.600e-01  
    3     3.492e-01  
    4     2.780e-01  
    5     5.080e-02  
    6     2.385e-02  
    7     5.639e-03  
    8     1.882e-03  
    9     6.924e-04  
   10     6.955e-05  
   11     2.291e-05  
   12     1.184e-05  
   13     1.086e-05  
   14     2.107e-06  
   15     9.373e-07  Converged.
   ... Converged in 15 steps (norm: 9.37268e-07)
------------------------------------
  Starting TPA DIIS iterations ... 
------------------------------------ 
   It     Res. Norm  Remark
------------------------------------
                       Guess.
    1     1.142e+01  
    2     2.062e+01  
    3     2.978e+00  
    4     1.206e+00  
    5     3.441e-01  
    6     1.561e-01  
    7     4.528e-02  
    8     7.699e-03  
    9     3.178e-03  
   10     5.731e-04  
   11     2.006e-04  
   12     5.665e-05  
   13     2.460e-05  
   14     1.766e-05  
   15     3.280e-06  
   16     3.083e-06  
   17     6.431e-07  Converged.
   ... Converged in 17 steps (norm: 6.43129e-07)
------------------------------------
  Starting TPA DIIS iterations ... 
------------------------------------ 
   It     Res. Norm  Remark
------------------------------------
                       Guess.
    1     1.083e+01  
    2     1.955e+01  
    3     2.838e+00  
    4     1.186e+00  
    5     3.430e-01  
    6     1.577e-01  
    7     4.476e-02  
    8     7.897e-03  
    9     3.230e-03  
   10     5.868e-04  
   11     2.099e-04  
   12     6.673e-05  
   13     3.037e-05  
   14     2.323e-05  
   15     8.383e-06  
   16     4.324e-06  
   17     1.168e-06  
   18     3.921e-07  Converged.
   ... Converged in 18 steps (norm: 3.92131e-07)
------------------------------------
  Starting TPA DIIS iterations ... 
------------------------------------ 
   It     Res. Norm  Remark
------------------------------------
                       Guess.
    1     8.592e-01  
    2     7.930e-01  
    3     3.730e-01  
    4     3.198e-01  
    5     5.651e-02  
    6     2.673e-02  
    7     6.561e-03  
    8     1.940e-03  
    9     7.665e-04  
   10     8.024e-05  
   11     2.665e-05  
   12     1.417e-05  
   13     1.337e-05  
   14     2.492e-06  
   15     1.158e-06  
   16     4.661e-07  Converged.
   ... Converged in 16 steps (norm: 4.6606e-07)
------------------------------------
  Starting TPA DIIS iterations ... 
------------------------------------ 
   It     Res. Norm  Remark
------------------------------------
                       Guess.
    1     1.239e+01  
    2     2.295e+01  
    3     3.227e+00  
    4     1.364e+00  
    5     3.915e-01  
    6     1.791e-01  
    7     5.159e-02  
    8     8.753e-03  
    9     3.642e-03  
   10     6.587e-04  
   11     2.305e-04  
   12     6.931e-05  
   13     3.012e-05  
   14     2.268e-05  
   15     4.305e-06  
   16     4.199e-06  
   17     8.239e-07  Converged.
   ... Converged in 17 steps (norm: 8.23876e-07)
------------------------------------
  Starting TPA DIIS iterations ... 
------------------------------------ 
   It     Res. Norm  Remark
------------------------------------
                       Guess.
    1     1.175e+01  
    2     2.177e+01  
    3     3.075e+00  
    4     1.339e+00  
    5     3.903e-01  
    6     1.809e-01  
    7     5.100e-02  
    8     8.989e-03  
    9     3.708e-03  
   10     6.763e-04  
   11     2.435e-04  
   12     8.265e-05  
   13     3.965e-05  
   14     2.979e-05  
   15     1.088e-05  
   16     5.366e-06  
   17     1.442e-06  
   18     5.099e-07  Converged.
   ... Converged in 18 steps (norm: 5.09853e-07)
------------------------------------
  Starting TPA DIIS iterations ... 
------------------------------------ 
   It     Res. Norm  Remark
------------------------------------
                       Guess.
    1     8.730e-01  
    2     8.256e-01  
    3     3.967e-01  
    4     3.624e-01  
    5     6.253e-02  
    6     2.961e-02  
    7     7.536e-03  
    8     1.984e-03  
    9     8.409e-04  
   10     9.177e-05  
   11     3.079e-05  
   12     1.680e-05  
   13     1.620e-05  
   14     2.947e-06  
   15     1.441e-06  
   16     5.922e-07  Converged.
   ... Converged in 16 steps (norm: 5.92183e-07)
------------------------------------
  Two-photon absorbption ...  CPU 112.36 s  wall 27.28 s
  Transition density matrix of state singlet_A_1 printed to ASCII file 'State_singlet_A_1_Transition.txt'
  Transition density matrix of state singlet_A_2 printed to ASCII file 'State_singlet_A_2_Transition.txt'
  Transition density matrix of state singlet_A_3 printed to ASCII file 'State_singlet_A_3_Transition.txt'
  Transition density matrix of state singlet_A_4 printed to ASCII file 'State_singlet_A_4_Transition.txt'
  Transition density matrix of state singlet_A_5 printed to ASCII file 'State_singlet_A_5_Transition.txt'
  Transition density matrix of state singlet_A_6 printed to ASCII file 'State_singlet_A_6_Transition.txt'
  Transition density matrix of state singlet_A_7 printed to ASCII file 'State_singlet_A_7_Transition.txt'
  Transition density matrix of state singlet_A_8 printed to ASCII file 'State_singlet_A_8_Transition.txt'
  Transition density matrix of state singlet_A_9 printed to ASCII file 'State_singlet_A_9_Transition.txt'
  Transition density matrix of state singlet_A_10 printed to ASCII file 'State_singlet_A_10_Transition.txt'
  Transition properties ...  CPU 0.13 s  wall 0.31 s
  Difference density matrix of state singlet_A_1 printed to ASCII file 'State_singlet_A_1_Difference.txt'
  Total density matrix of state singlet_A_1 printed to ASCII file 'State_singlet_A_1_Total.txt'
  Difference density matrix of state singlet_A_2 printed to ASCII file 'State_singlet_A_2_Difference.txt'
  Total density matrix of state singlet_A_2 printed to ASCII file 'State_singlet_A_2_Total.txt'
  Difference density matrix of state singlet_A_3 printed to ASCII file 'State_singlet_A_3_Difference.txt'
  Total density matrix of state singlet_A_3 printed to ASCII file 'State_singlet_A_3_Total.txt'
  Difference density matrix of state singlet_A_4 printed to ASCII file 'State_singlet_A_4_Difference.txt'
  Total density matrix of state singlet_A_4 printed to ASCII file 'State_singlet_A_4_Total.txt'
  Difference density matrix of state singlet_A_5 printed to ASCII file 'State_singlet_A_5_Difference.txt'
  Total density matrix of state singlet_A_5 printed to ASCII file 'State_singlet_A_5_Total.txt'
  Difference density matrix of state singlet_A_6 printed to ASCII file 'State_singlet_A_6_Difference.txt'
  Total density matrix of state singlet_A_6 printed to ASCII file 'State_singlet_A_6_Total.txt'
  Difference density matrix of state singlet_A_7 printed to ASCII file 'State_singlet_A_7_Difference.txt'
  Total density matrix of state singlet_A_7 printed to ASCII file 'State_singlet_A_7_Total.txt'
  Difference density matrix of state singlet_A_8 printed to ASCII file 'State_singlet_A_8_Difference.txt'
  Total density matrix of state singlet_A_8 printed to ASCII file 'State_singlet_A_8_Total.txt'
  Difference density matrix of state singlet_A_9 printed to ASCII file 'State_singlet_A_9_Difference.txt'
  Total density matrix of state singlet_A_9 printed to ASCII file 'State_singlet_A_9_Total.txt'
  Difference density matrix of state singlet_A_10 printed to ASCII file 'State_singlet_A_10_Difference.txt'
  Total density matrix of state singlet_A_10 printed to ASCII file 'State_singlet_A_10_Total.txt'
  Properties ...  CPU 0.28 s  wall 0.46 s
  ISR TDMS ...  CPU 20.89 s  wall 5.52 s
  ISR transition properties ...  CPU 0.21 s  wall 0.10 s
  Sum-over-states TPA ...  CPU 0.00 s  wall 0.00 s

--------------------------------------------------------------------------------
                   State-averaged natural transition orbitals
--------------------------------------------------------------------------------
--------------------------------------------------------------------------------
  SA-NTO decomposition ...  CPU 0.01 s  wall 0.02 s

--------------------------------------------------------------------------------
                             Excited State Summary
--------------------------------------------------------------------------------
--------------------------------------------------------------------------------

  Excited state 1 (singlet, A)                                     [converged]
  ----------------------------------------------------------------------------
  Term symbol:  2 (1) A                                     R^2 =  2.04750e-13

  Total energy:                                            -77.9985596800 a.u.
  Excitation energy:                                               8.736940 eV

  Osc. strength:                                                      0.445391
  Trans. dip. moment [a.u.]:           [   1.045263,   -0.994040,   -0.009009]
  <i|r^2|0> [a.u.]:                    [   6.165257,   -0.245666,   -0.003186]
  Two-photon absorption cross-section (SoS) [a.u.]:                   0.000475
  Two-photon absorption matrix (SoS) [a.u.]:
                                       |    0.005598   -0.001122   -0.001510 |
                                       |   -0.001122    0.001461    0.000721 |
                                       |   -0.001510    0.000721    0.003999 |
  Two-photon absorption cross-section [a.u.]:                         0.002408
  Two-photon absorption matrix [a.u.]:
                                       |   -0.000383   -0.003460    0.007631 |
                                       |   -0.003460   -0.007597    0.013633 |
                                       |    0.007631    0.013633    0.005343 |

  Dip. moment [a.u.]:                  [  -0.000678,    0.000189,    0.002219]
  Total dipole [Debye]:                                               0.005916
  <r^2> [a.u.]:                        [ 176.120014,   35.648932,   11.871124]
  Total <r^2> [a.u.]:                                               223.640070

  V1^2 = 0.9715, V2^2 = 0.0285

  Important amplitudes:
      occ i     occ j     vir a      vir b          v   
    -----------------------------------------------------
     8 (A) A              9 (A) A                -0.6810
     6 (A) A             14 (A) A                -0.0623
     4 (A) A             10 (A) A                -0.0606
     7 (A) A             16 (A) A                 0.0569
     5 (A) A             13 (A) A                -0.0513
     6 (A) A             23 (A) A                -0.0486
     8 (A) A             20 (A) A                -0.0350
     6 (A) A             19 (A) A                -0.0308
     3 (A) A             12 (A) A                 0.0281
     5 (A) A             22 (A) A                 0.0215
     7 (A) A             11 (A) A                 0.0209
     4 (A) A             24 (A) A                -0.0187
     3 (A) A             26 (A) A                -0.0185
     8 (A) A   8 (A) B   17 (A) A   20 (A) B      0.0184
     8 (A) A   8 (A) B    9 (A) A   28 (A) B     -0.0168
     6 (A) A             26 (A) A                -0.0163
     7 (A) A             21 (A) A                 0.0148
     3 (A) A             14 (A) A                -0.0139
     7 (A) A              9 (A) A                 0.0137
     6 (A) A             12 (A) A                -0.0132
     3 (A) A   4 (A) B    9 (A) A    9 (A) B      0.0129
     3 (A) A             19 (A) A                -0.0119
     8 (A) A   8 (A) B   18 (A) A   19 (A) B      0.0113
     7 (A) A             32 (A) A                 0.0096
     7 (A) A             36 (A) A                 0.0086
     3 (A) A             23 (A) A                -0.0080
     8 (A) A   8 (A) B   25 (A) A   29 (A) B      0.0076
     6 (A) A             35 (A) A                -0.0072
     6 (A) A             40 (A) A                -0.0068
     3 (A) A   6 (A) B    9 (A) A   28 (A) B     -0.0065
     6 (A) A   8 (A) A   19 (A) A   28 (A) A      0.0061
     5 (A) A   7 (A) B    9 (A) A    9 (A) B     -0.0060
     5 (A) A   8 (A) B   11 (A) A   20 (A) B      0.0059
     7 (A) A   8 (A) B   13 (A) A   20 (A) B     -0.0059
     5 (A) A   8 (A) B   16 (A) A    9 (A) B      0.0059
     5 (A) A   8 (A) B   11 (A) A    9 (A) B     -0.0059
     3 (A) A   5 (A) B    9 (A) A   25 (A) B      0.0058
     3 (A) A             40 (A) A                -0.0057
     7 (A) A   8 (A) B   22 (A) A   20 (A) B      0.0057
     6 (A) A   8 (A) A    9 (A) A   18 (A) A      0.0057
    -----------------------------------------------------

  Density matrix analysis:
  ------------------------
  NOs
    Occupation of frontier NOs:
       0.9495   1.0217
    Number of electrons: 16.000000
    Number of unpaired electrons: n_u =  2.31343, n_u,nl =  2.03264
    NO participation ratio (PR_NO):  2.863927
  
  
  Mulliken Population Analysis
  Atom      Charge (e)              h+              e-           Del q
  --------------------------------------------------------------------
   1 H        0.058743        0.020326       -0.012536        0.007790
   2 C       -0.116033        0.490763       -0.506086       -0.015322
   3 H        0.058183        0.020235       -0.012596        0.007639
   4 C       -0.117240        0.490607       -0.506263       -0.015657
   5 H        0.057921        0.020253       -0.012556        0.007697
   6 H        0.058427        0.020373       -0.012521        0.007853
  --------------------------------------------------------------------
  Sum:       -0.000000        1.062558       -1.062558        0.000000
  
  Multipole moment analysis of the density matrix
    Molecular charge:                      -0.000000
    Number of electrons:                   16.000000
      Center of electronic charge [Ang]: [ -1.560554,  -0.065609,   0.002217]
    Total nuclear charge:                  16.000000
      Center of nuclear charge [Ang]:    [ -1.560576,  -0.065602,   0.002291]
    Dipole moment [D]:                     0.005916
      Cartesian components [D]:          [ -0.001722,   0.000480,   0.005639]
    RMS size of the density [Ang]:         1.214274
      Cartesian components [Ang]:        [  0.804417,   0.787157,   0.455808]
  
  Exciton analysis of the difference density matrix
    <r_h> [Ang]:                  [ -1.560214,  -0.065759,   0.001321]
    <r_e> [Ang]:                  [ -1.560247,  -0.065647,   0.001110]
    |<r_e - r_h>| [Ang]:            0.000241
    Hole size [Ang]:                1.285555
      Cartesian components [Ang]: [  0.728604,   0.712908,   0.783295]
    Electron size [Ang]:            1.463177
      Cartesian components [Ang]: [  0.854016,   0.830534,   0.849563]

  Transition density matrix analysis:
  -----------------------------------
  
  CT numbers (Mulliken)
    omega =     0.9535
    <Phe> =    -0.1606
  
  Exciton analysis of the transition density matrix
    Trans. dipole moment [D]:             1.833219
      Cartesian components [D]:         [  1.328397,  -1.263298,  -0.011449]
    <r_h> [Ang]:                        [ -1.560070,  -0.065892,   0.001505]
    <r_e> [Ang]:                        [ -1.560257,  -0.065623,   0.000972]
    |<r_e - r_h>| [Ang]:                  0.000626
    Hole size [Ang]:                      1.214322
      Cartesian components [Ang]:       [  0.649809,   0.636801,   0.804244]
    Electron size [Ang]:                  1.486006
      Cartesian components [Ang]:       [  0.864444,   0.839430,   0.869659]
    RMS electron-hole separation [Ang]:   1.936771
      Cartesian components [Ang]:       [  1.106839,   1.075372,   1.170285]
    Covariance(r_h, r_e) [Ang^2]:        -0.034146
    Correlation coefficient:             -0.018923
    Center-of-mass size [Ang]:            0.950592
      Cartesian components [Ang]:       [  0.527716,   0.515726,   0.599305]

  Decomposition into state-averaged NTOs
    H- 0 -> L+ 0: -0.6698 ( 89.7%)
    H- 2 -> L+ 5: -0.0836 (  1.4%)
                   omega =  95.4%
  ----------------------------------------------------------------------------


  Excited state 2 (singlet, A)                                     [converged]
  ----------------------------------------------------------------------------
  Term symbol:  3 (1) A                                     R^2 =  1.31269e-13

  Total energy:                                            -77.9869003081 a.u.
  Excitation energy:                                               9.054208 eV

  Osc. strength:                                                      0.000235
  Trans. dip. moment [a.u.]:           [  -0.022560,    0.023422,   -0.001649]
  <i|r^2|0> [a.u.]:                    [  -0.065503,    0.091423,   -0.153132]
  Two-photon absorption cross-section (SoS) [a.u.]:                   4.894812
  Two-photon absorption matrix (SoS) [a.u.]:
                                       |    0.057809    0.059989   -0.539264 |
                                       |    0.059989    0.061914   -0.553800 |
                                       |   -0.539264   -0.553800   -0.119716 |
  Two-photon absorption cross-section [a.u.]:                         0.078821
  Two-photon absorption matrix [a.u.]:
                                       |    0.009925   -0.006459    0.058770 |
                                       |   -0.006459   -0.025052    0.076685 |
                                       |    0.058770    0.076685    0.015062 |

  Dip. moment [a.u.]:                  [  -0.005091,    0.008743,    0.004420]
  Total dipole [Debye]:                                               0.028062
  <r^2> [a.u.]:                        [ 174.515681,   33.972827,   13.174097]
  Total <r^2> [a.u.]:                                               221.662604

  V1^2 = 0.9542, V2^2 = 0.0458

  Important amplitudes:
      occ i     occ j     vir a      vir b          v   
    -----------------------------------------------------
     7 (A) A              9 (A) A                 0.6691
     8 (A) A             11 (A) A                -0.1483
     7 (A) A             20 (A) A                 0.0759
     5 (A) A   8 (A) B    9 (A) A    9 (A) B      0.0316
     8 (A) A             16 (A) A                 0.0273
     8 (A) A             21 (A) A                -0.0176
     5 (A) A             28 (A) A                -0.0150
     4 (A) A   7 (A) B    9 (A) A   19 (A) B     -0.0135
     8 (A) A              9 (A) A                 0.0134
     5 (A) A   7 (A) B    9 (A) A   16 (A) B      0.0134
     7 (A) A   8 (A) B   20 (A) A   17 (A) B     -0.0105
     7 (A) A   8 (A) A    9 (A) A   28 (A) A     -0.0097
     5 (A) A   8 (A) B    9 (A) A   20 (A) B      0.0096
     4 (A) A   6 (A) B    9 (A) A   16 (A) B      0.0091
     5 (A) A   6 (A) A    9 (A) A   23 (A) A     -0.0091
     5 (A) A   6 (A) A    9 (A) A   14 (A) A     -0.0089
     5 (A) A   6 (A) B    9 (A) A   19 (A) B     -0.0087
     8 (A) A   7 (A) B    9 (A) A   28 (A) B      0.0085
     4 (A) A   5 (A) A    9 (A) A   10 (A) A      0.0085
     6 (A) A   7 (A) B    9 (A) A   18 (A) B     -0.0083
     5 (A) A   6 (A) B    9 (A) A   23 (A) B     -0.0080
     3 (A) A   7 (A) B    9 (A) A   18 (A) B      0.0080
     5 (A) A   7 (A) A    9 (A) A   16 (A) A      0.0079
     4 (A) A   8 (A) B    9 (A) A   25 (A) B      0.0077
     7 (A) A   8 (A) B   17 (A) A   20 (A) B     -0.0074
     4 (A) A   7 (A) B   19 (A) A    9 (A) B     -0.0074
     5 (A) A   5 (A) B    9 (A) A   13 (A) B     -0.0072
     7 (A) A   8 (A) B   19 (A) A   18 (A) B     -0.0072
     5 (A) A   8 (A) A    9 (A) A   20 (A) A      0.0069
     4 (A) A   5 (A) B    9 (A) A   18 (A) B     -0.0068
     7 (A) A   7 (A) B   20 (A) A   22 (A) B     -0.0065
     7 (A) A   8 (A) B   17 (A) A    9 (A) B     -0.0065
     5 (A) A   6 (A) B    9 (A) A   14 (A) B     -0.0063
     4 (A) A   7 (A) A    9 (A) A   19 (A) A     -0.0061
     4 (A) A   5 (A) B   10 (A) A    9 (A) B     -0.0061
     5 (A) A             38 (A) A                 0.0060
     5 (A) A   7 (A) B   11 (A) A   20 (A) B     -0.0060
     4 (A) A   7 (A) B    9 (A) A   14 (A) B      0.0060
     4 (A) A   8 (A) A    9 (A) A   25 (A) A      0.0057
     6 (A) A   7 (A) A   19 (A) A   28 (A) A     -0.0057
    -----------------------------------------------------

  Density matrix analysis:
  ------------------------
  NOs
    Occupation of frontier NOs:
       0.9580   1.0537
    Number of electrons: 16.000000
    Number of unpaired electrons: n_u =  2.35532, n_u,nl =  2.06276
    NO participation ratio (PR_NO):  3.027524
  
  
  Mulliken Population Analysis
  Atom      Charge (e)              h+              e-           Del q
  --------------------------------------------------------------------
   1 H        0.148702        0.121458       -0.023709        0.097749
   2 C       -0.301780        0.270896       -0.471965       -0.201069
   3 H        0.152217        0.127001       -0.025327        0.101673
   4 C       -0.302517        0.273250       -0.474184       -0.200933
   5 H        0.154454        0.128044       -0.023813        0.104231
   6 H        0.148924        0.123287       -0.024937        0.098350
  --------------------------------------------------------------------
  Sum:       -0.000000        1.043936       -1.043936        0.000000
  
  Multipole moment analysis of the density matrix
    Molecular charge:                      -0.000000
    Number of electrons:                   16.000000
      Center of electronic charge [Ang]: [ -1.560408,  -0.065891,   0.002144]
    Total nuclear charge:                  16.000000
      Center of nuclear charge [Ang]:    [ -1.560576,  -0.065602,   0.002291]
    Dipole moment [D]:                     0.028062
      Cartesian components [D]:          [ -0.012939,   0.022222,   0.011235]
    RMS size of the density [Ang]:         1.200113
      Cartesian components [Ang]:        [  0.787060,   0.768273,   0.480172]
  
  Exciton analysis of the difference density matrix
    <r_h> [Ang]:                  [ -1.565021,  -0.062637,   0.002495]
    <r_e> [Ang]:                  [ -1.562817,  -0.066859,   0.001164]
    |<r_e - r_h>| [Ang]:            0.004945
    Hole size [Ang]:                1.486265
      Cartesian components [Ang]: [  0.998979,   1.002085,   0.454807]
    Electron size [Ang]:            1.477133
      Cartesian components [Ang]: [  0.881263,   0.859532,   0.816396]

  Transition density matrix analysis:
  -----------------------------------
  
  CT numbers (Mulliken)
    omega =     0.9218
    <Phe> =    -0.0122
  
  Exciton analysis of the transition density matrix
    Trans. dipole moment [D]:             0.041382
      Cartesian components [D]:         [ -0.028671,   0.029766,  -0.002096]
    <r_h> [Ang]:                        [ -1.565713,  -0.062041,   0.002738]
    <r_e> [Ang]:                        [ -1.562346,  -0.067423,   0.000876]
    |<r_e - r_h>| [Ang]:                  0.006617
    Hole size [Ang]:                      1.514874
      Cartesian components [Ang]:       [  1.021544,   1.026515,   0.444475]
    Electron size [Ang]:                  1.474205
      Cartesian components [Ang]:       [  0.871883,   0.848864,   0.832184]
    RMS electron-hole separation [Ang]:   2.093994
      Cartesian components [Ang]:       [  1.327179,   1.317097,   0.942689]
    Covariance(r_h, r_e) [Ang^2]:         0.041677
    Correlation coefficient:              0.018662
    Center-of-mass size [Ang]:            1.066709
      Cartesian components [Ang]:       [  0.679351,   0.673403,   0.472101]

  Decomposition into state-averaged NTOs
    H- 1 -> L+ 0:  0.6614 ( 87.5%)
    H- 0 -> L+ 2:  0.1482 (  4.4%)
                   omega =  92.2%
  ----------------------------------------------------------------------------


  Excited state 3 (singlet, A)                                     [converged]
  ----------------------------------------------------------------------------
  Term symbol:  4 (1) A                                     R^2 =  1.95436e-13

  Total energy:                                            -77.9826338324 a.u.
  Excitation energy:                                               9.170305 eV

  Osc. strength:                                                      0.025176
  Trans. dip. moment [a.u.]:           [  -0.013575,   -0.022577,    0.333712]
  <i|r^2|0> [a.u.]:                    [  -0.090506,    0.008368,   -0.004325]
  Two-photon absorption cross-section (SoS) [a.u.]:                   0.055679
  Two-photon absorption matrix (SoS) [a.u.]:
                                       |   -0.083481   -0.004903    0.007937 |
                                       |   -0.004903    0.078054    0.011360 |
                                       |    0.007937    0.011360   -0.014849 |
  Two-photon absorption cross-section [a.u.]:                         0.031395
  Two-photon absorption matrix [a.u.]:
                                       |   -0.067441   -0.001402    0.011158 |
                                       |   -0.001402    0.050498    0.007040 |
                                       |    0.011158    0.007040   -0.008560 |

  Dip. moment [a.u.]:                  [   0.002532,    0.010599,   -0.001681]
  Total dipole [Debye]:                                               0.028026
  <r^2> [a.u.]:                        [ 180.877321,   40.607691,   11.032153]
  Total <r^2> [a.u.]:                                               232.517165

  V1^2 = 0.9587, V2^2 = 0.0413

  Important amplitudes:
      occ i     occ j     vir a      vir b          v   
    -----------------------------------------------------
     8 (A) A             10 (A) A                -0.6891
     8 (A) A             24 (A) A                -0.0507
     8 (A) A             18 (A) A                 0.0313
     4 (A) A              9 (A) A                -0.0238
     8 (A) A   8 (A) B    9 (A) A   12 (A) B      0.0219
     8 (A) A   8 (A) B   10 (A) A   17 (A) B     -0.0173
     8 (A) A             15 (A) A                -0.0169
     5 (A) A   8 (A) B   11 (A) A   10 (A) B     -0.0165
     7 (A) A   8 (A) B   13 (A) A   10 (A) B      0.0141
     4 (A) A   8 (A) B   12 (A) A   10 (A) B      0.0111
     6 (A) A   8 (A) A   10 (A) A   15 (A) A      0.0110
     7 (A) A   8 (A) B   22 (A) A   10 (A) B     -0.0108
     6 (A) A   8 (A) B   15 (A) A   10 (A) B     -0.0108
     4 (A) A   8 (A) A   10 (A) A   12 (A) A     -0.0106
     7 (A) A   8 (A) A   10 (A) A   22 (A) A      0.0099
     7 (A) A   8 (A) A   10 (A) A   13 (A) A     -0.0097
     5 (A) A   8 (A) B   21 (A) A   10 (A) B     -0.0094
     5 (A) A   8 (A) A   10 (A) A   11 (A) A      0.0094
     6 (A) A   8 (A) A   10 (A) A   18 (A) A      0.0088
     6 (A) A   8 (A) B   10 (A) A   10 (A) B      0.0087
     7 (A) A   8 (A) A   12 (A) A   16 (A) A     -0.0082
     5 (A) A   8 (A) A   10 (A) A   21 (A) A      0.0080
     3 (A) A   4 (A) B   10 (A) A    9 (A) B      0.0079
     4 (A) A   8 (A) B   19 (A) A   10 (A) B     -0.0075
     8 (A) A   8 (A) B    9 (A) A   23 (A) B      0.0075
     8 (A) A   8 (A) B   10 (A) A   28 (A) B     -0.0073
     3 (A) A   8 (A) B   10 (A) A   10 (A) B     -0.0072
     5 (A) A   8 (A) B   10 (A) A   11 (A) B     -0.0071
     3 (A) A   8 (A) A   10 (A) A   24 (A) A      0.0071
     7 (A) A   8 (A) B   16 (A) A   12 (A) B      0.0070
     3 (A) A   8 (A) B   10 (A) A   18 (A) B      0.0069
     8 (A) A   8 (A) B    9 (A) A   19 (A) B     -0.0068
     6 (A) A   8 (A) B   18 (A) A   10 (A) B     -0.0067
     3 (A) A   6 (A) B   10 (A) A   28 (A) B     -0.0062
     7 (A) A   8 (A) B   12 (A) A   11 (A) B     -0.0058
     6 (A) A             28 (A) A                 0.0057
     3 (A) A   5 (A) B   10 (A) A   25 (A) B      0.0056
     5 (A) A   8 (A) A   10 (A) A   16 (A) A     -0.0056
     3 (A) A   8 (A) A   10 (A) A   18 (A) A      0.0056
     4 (A) A   8 (A) A   10 (A) A   23 (A) A     -0.0055
    -----------------------------------------------------

  Density matrix analysis:
  ------------------------
  NOs
    Occupation of frontier NOs:
       0.9815   0.9850
    Number of electrons: 16.000000
    Number of unpaired electrons: n_u =  2.28529, n_u,nl =  2.02441
    NO participation ratio (PR_NO):  2.691997
  
  
  Mulliken Population Analysis
  Atom      Charge (e)              h+              e-           Del q
  --------------------------------------------------------------------
   1 H       -0.162441        0.053884       -0.267277       -0.213394
   2 C        0.327604        0.538762       -0.110447        0.428315
   3 H       -0.165806        0.053758       -0.270108       -0.216350
   4 C        0.326591        0.537691       -0.109517        0.428174
   5 H       -0.162560        0.053970       -0.266754       -0.212784
   6 H       -0.163388        0.053876       -0.267838       -0.213962
  --------------------------------------------------------------------
  Sum:       -0.000000        1.291941       -1.291941        0.000000
  
  Multipole moment analysis of the density matrix
    Molecular charge:                      0.000000
    Number of electrons:                   16.000000
      Center of electronic charge [Ang]: [ -1.560660,  -0.065953,   0.002346]
    Total nuclear charge:                  16.000000
      Center of nuclear charge [Ang]:    [ -1.560576,  -0.065602,   0.002291]
    Dipole moment [D]:                     0.028026
      Cartesian components [D]:          [  0.006435,   0.026940,  -0.004274]
    RMS size of the density [Ang]:         1.276499
      Cartesian components [Ang]:        [  0.854410,   0.840451,   0.439405]
  
  Exciton analysis of the difference density matrix
    <r_h> [Ang]:                  [ -1.560160,  -0.065968,   0.001728]
    <r_e> [Ang]:                  [ -1.561501,  -0.070139,   0.003152]
    |<r_e - r_h>| [Ang]:            0.004607
    Hole size [Ang]:                1.410252
      Cartesian components [Ang]: [  0.833971,   0.819863,   0.788117]
    Electron size [Ang]:            2.076001
      Cartesian components [Ang]: [  1.373241,   1.376853,   0.726821]

  Transition density matrix analysis:
  -----------------------------------
  
  CT numbers (Mulliken)
    omega =     0.9259
    <Phe> =    -0.0109
  
  Exciton analysis of the transition density matrix
    Trans. dipole moment [D]:             0.425425
      Cartesian components [D]:         [ -0.017252,  -0.028693,   0.424106]
    <r_h> [Ang]:                        [ -1.559776,  -0.065696,   0.001270]
    <r_e> [Ang]:                        [ -1.561729,  -0.071722,   0.003507]
    |<r_e - r_h>| [Ang]:                  0.006718
    Hole size [Ang]:                      1.212940
      Cartesian components [Ang]:       [  0.636447,   0.623626,   0.822951]
    Electron size [Ang]:                  2.296419
      Cartesian components [Ang]:       [  1.517881,   1.524420,   0.803569]
    RMS electron-hole separation [Ang]:   2.587170
      Cartesian components [Ang]:       [  1.638420,   1.640071,   1.148561]
    Covariance(r_h, r_e) [Ang^2]:         0.025681
    Correlation coefficient:              0.009220
    Center-of-mass size [Ang]:            1.303469
      Cartesian components [Ang]:       [  0.826686,   0.827002,   0.575925]

  Decomposition into state-averaged NTOs
    H- 0 -> L+ 1: -0.6798 ( 92.4%)
                   omega =  92.6%
  ----------------------------------------------------------------------------


  Excited state 4 (singlet, A)                                     [converged]
  ----------------------------------------------------------------------------
  Term symbol:  5 (1) A                                     R^2 =  1.06233e-13

  Total energy:                                            -77.9582875880 a.u.
  Excitation energy:                                               9.832800 eV

  Osc. strength:                                                      0.000037
  Trans. dip. moment [a.u.]:           [   0.008723,   -0.008656,    0.000977]
  <i|r^2|0> [a.u.]:                    [   0.069554,    0.016640,   -0.036855]
  Two-photon absorption cross-section (SoS) [a.u.]:                 149.506594
  Two-photon absorption matrix (SoS) [a.u.]:
                                       |    0.309053    0.330859   -3.008145 |
                                       |    0.330859    0.352728   -3.033389 |
                                       |   -3.008145   -3.033389   -0.661066 |
  Two-photon absorption cross-section [a.u.]:                        91.820206
  Two-photon absorption matrix [a.u.]:
                                       |    0.253095    0.259907   -2.351245 |
                                       |    0.259907    0.265914   -2.383266 |
                                       |   -2.351245   -2.383266   -0.518224 |

  Dip. moment [a.u.]:                  [  -0.011568,   -0.006855,   -0.003559]
  Total dipole [Debye]:                                               0.035354
  <r^2> [a.u.]:                        [ 181.225000,   40.536989,   10.769457]
  Total <r^2> [a.u.]:                                               232.531446

  V1^2 = 0.9635, V2^2 = 0.0365

  Important amplitudes:
      occ i     occ j     vir a      vir b          v   
    -----------------------------------------------------
     8 (A) A             11 (A) A                -0.6697
     7 (A) A              9 (A) A                -0.1503
     8 (A) A             21 (A) A                -0.0781
     8 (A) A             16 (A) A                 0.0646
     8 (A) A   8 (A) B    9 (A) A   13 (A) B     -0.0167
     5 (A) A   8 (A) B   11 (A) A   11 (A) B     -0.0155
     8 (A) A   8 (A) B   11 (A) A   17 (A) B     -0.0140
     7 (A) A             20 (A) A                -0.0137
     7 (A) A   8 (A) B   13 (A) A   11 (A) B      0.0127
     8 (A) A             12 (A) A                -0.0111
     5 (A) A   8 (A) A   11 (A) A   21 (A) A      0.0110
     4 (A) A   8 (A) B   12 (A) A   11 (A) B      0.0110
     8 (A) A   8 (A) B    9 (A) A   22 (A) B      0.0108
     7 (A) A   8 (A) A   11 (A) A   22 (A) A      0.0096
     6 (A) A   8 (A) B   15 (A) A   11 (A) B     -0.0090
     6 (A) A   8 (A) B   10 (A) A   11 (A) B      0.0090
     7 (A) A   8 (A) B   22 (A) A   11 (A) B     -0.0089
     3 (A) A   4 (A) B   11 (A) A    9 (A) B      0.0083
     3 (A) A   8 (A) B   11 (A) A   18 (A) B      0.0081
     6 (A) A   8 (A) A   11 (A) A   15 (A) A      0.0080
     7 (A) A   8 (A) A   13 (A) A   16 (A) A      0.0078
     7 (A) A   8 (A) A   11 (A) A   13 (A) A     -0.0077
     6 (A) A              9 (A) A                 0.0075
     5 (A) A   8 (A) B   21 (A) A   11 (A) B     -0.0071
     4 (A) A   8 (A) B   19 (A) A   11 (A) B     -0.0070
     5 (A) A   8 (A) B    9 (A) A    9 (A) B     -0.0068
     4 (A) A   8 (A) A   11 (A) A   12 (A) A     -0.0062
     6 (A) A   8 (A) A   11 (A) A   18 (A) A      0.0062
     3 (A) A   6 (A) B   11 (A) A   28 (A) B     -0.0060
     6 (A) A   8 (A) B   18 (A) A   11 (A) B     -0.0060
     7 (A) A   8 (A) B   16 (A) A   13 (A) B     -0.0057
     3 (A) A   8 (A) A   11 (A) A   18 (A) A      0.0056
     5 (A) A   8 (A) B   10 (A) A   10 (A) B     -0.0056
     3 (A) A   8 (A) B   11 (A) A   30 (A) B      0.0055
     3 (A) A   5 (A) B   11 (A) A   25 (A) B      0.0055
     6 (A) A   8 (A) B   11 (A) A   10 (A) B      0.0054
     7 (A) A   8 (A) B   12 (A) A   10 (A) B     -0.0054
     8 (A) A   8 (A) B   20 (A) A   22 (A) B      0.0053
     3 (A) A   8 (A) A   11 (A) A   24 (A) A      0.0053
     5 (A) A   8 (A) A   11 (A) A   16 (A) A     -0.0048
    -----------------------------------------------------

  Density matrix analysis:
  ------------------------
  NOs
    Occupation of frontier NOs:
       0.9407   1.0278
    Number of electrons: 16.000000
    Number of unpaired electrons: n_u =  2.31916, n_u,nl =  2.04913
    NO participation ratio (PR_NO):  2.914646
  
  
  Mulliken Population Analysis
  Atom      Charge (e)              h+              e-           Del q
  --------------------------------------------------------------------
   1 H       -0.146176        0.045778       -0.242907       -0.197129
   2 C        0.274899        0.497092       -0.121481        0.375610
   3 H       -0.128821        0.046939       -0.226303       -0.179365
   4 C        0.272980        0.496832       -0.122269        0.374563
   5 H       -0.131121        0.047065       -0.228409       -0.181344
   6 H       -0.141762        0.045842       -0.238178       -0.192336
  --------------------------------------------------------------------
  Sum:       -0.000000        1.179548       -1.179548        0.000000
  
  Multipole moment analysis of the density matrix
    Molecular charge:                      -0.000000
    Number of electrons:                   16.000000
      Center of electronic charge [Ang]: [ -1.560194,  -0.065376,   0.002408]
    Total nuclear charge:                  16.000000
      Center of nuclear charge [Ang]:    [ -1.560576,  -0.065602,   0.002291]
    Dipole moment [D]:                     0.035354
      Cartesian components [D]:          [ -0.029402,  -0.017423,  -0.009047]
    RMS size of the density [Ang]:         1.277196
      Cartesian components [Ang]:        [  0.858811,   0.839759,   0.434142]
  
  Exciton analysis of the difference density matrix
    <r_h> [Ang]:                  [ -1.560119,  -0.065380,   0.001685]
    <r_e> [Ang]:                  [ -1.555263,  -0.062119,   0.004087]
    |<r_e - r_h>| [Ang]:            0.006324
    Hole size [Ang]:                1.394845
      Cartesian components [Ang]: [  0.818243,   0.806946,   0.790512]
    Electron size [Ang]:            2.124112
      Cartesian components [Ang]: [  1.440651,   1.405542,   0.678845]

  Transition density matrix analysis:
  -----------------------------------
  
  CT numbers (Mulliken)
    omega =     0.9298
    <Phe> =    -0.0135
  
  Exciton analysis of the transition density matrix
    Trans. dipole moment [D]:             0.015666
      Cartesian components [D]:         [  0.011085,  -0.011000,   0.001242]
    <r_h> [Ang]:                        [ -1.560405,  -0.065592,   0.001322]
    <r_e> [Ang]:                        [ -1.554396,  -0.061327,   0.004449]
    |<r_e - r_h>| [Ang]:                  0.008004
    Hole size [Ang]:                      1.227962
      Cartesian components [Ang]:       [  0.657887,   0.650355,   0.807535]
    Electron size [Ang]:                  2.262162
      Cartesian components [Ang]:       [  1.534849,   1.497181,   0.721156]
    RMS electron-hole separation [Ang]:   2.563283
      Cartesian components [Ang]:       [  1.661361,   1.624540,   1.082205]
    Covariance(r_h, r_e) [Ang^2]:         0.027457
    Correlation coefficient:              0.009884
    Center-of-mass size [Ang]:            1.292302
      Cartesian components [Ang]:       [  0.839206,   0.820047,   0.541572]

  Decomposition into state-averaged NTOs
    H- 0 -> L+ 2:  0.6650 ( 88.4%)
    H- 1 -> L+ 0: -0.1483 (  4.4%)
                   omega =  93.0%
  ----------------------------------------------------------------------------


  Excited state 5 (singlet, A)                                     [converged]
  ----------------------------------------------------------------------------
  Term symbol:  6 (1) A                                     R^2 =  2.75055e-13

  Total energy:                                            -77.9443634630 a.u.
  Excitation energy:                                              10.211694 eV

  Osc. strength:                                                      0.000001
  Trans. dip. moment [a.u.]:           [   0.001004,    0.001381,    0.000538]
  <i|r^2|0> [a.u.]:                    [   0.094875,   -0.105505,    0.017989]
  Two-photon absorption cross-section (SoS) [a.u.]:                 178.238864
  Two-photon absorption matrix (SoS) [a.u.]:
                                       |    0.336710    0.037761   -3.352668 |
                                       |    0.037761   -0.387261    3.301940 |
                                       |   -3.352668    3.301940    0.081636 |
  Two-photon absorption cross-section [a.u.]:                        79.797383
[...]
    16   -1.428465801156e-03
    17   -1.771247224406e-03
    18   -9.957055146928e-05
    19   -3.315130025034e-03
    20    1.077922603971e-02
    21    9.344668792912e-01
    22   -2.733476207396e-04
    23    1.398117761762e-02
    24    8.234640620919e-04
    25    7.028058713630e-02
    26   -5.229223419386e-02
    27   -1.399092178747e+00
    28    9.788931429653e-02
    29   -9.276431066186e-02
    30   -1.841303188028e-03
    31    3.848322467977e-01
    32   -3.626092920245e-01
    33   -7.170546422556e-03
    34    1.560759599644e-02
    35   -1.455636007224e-03
    36   -1.946078353721e-03
    37   -6.689915652468e-05
    38   -3.132145292002e-03
    39    9.934283264012e-03
    40    9.323344094275e-01
    41    2.461483075918e-04
    42   -1.392318690402e-02
    43   -9.092409400163e-04
    44    1.010113431843e-02
    45    9.396482648022e-01
    46    1.412083992507e-02
    47    3.665875234873e-04
    48    6.726644756320e-04
Sym=X
Ene= 0.232950
Spin=Alpha
Occup=0
     1    2.616964505353e-02
     2    1.232295481457e+00
     3   -1.429453386982e-02
     4   -3.811854971821e-03
     5   -8.621904017917e-04
     6    2.913729334291e-03
     7   -3.336646963177e-03
     8   -4.570461738621e-02
     9   -1.547559591947e-01
    10   -1.586932348727e-01
    11   -1.630150698066e-02
    12   -5.561209940938e-01
    13   -5.585606899371e-01
    14   -5.746340562431e-02
    15    4.946321727198e-04
    16   -5.509786554956e-06
    17   -5.735546536129e-05
    18   -2.052872041480e-04
    19   -3.330601785031e-04
    20   -2.509758079927e-02
    21   -1.161854907065e+00
    22   -2.505402853500e-03
    23   -1.359239892538e-02
    24   -9.151746334635e-04
    25   -2.655164686113e-03
    26    3.107928209764e-03
    27    3.902913952524e-02
    28   -1.538856081952e-01
    29   -1.590677245172e-01
    30   -1.778929048083e-02
    31   -5.478279884536e-01
    32   -5.554120662410e-01
    33   -6.311106840778e-02
    34   -4.823540960194e-04
    35    3.646817796688e-05
    36   -7.046848583337e-05
    37    3.779334186546e-04
    38    3.404764538103e-04
    39    2.511880181850e-02
    40    1.159300715953e+00
    41   -2.465623150229e-03
    42   -1.362682446839e-02
    43   -1.006165446936e-03
    44   -2.618126658609e-02
    45   -1.221237730533e+00
    46   -1.421825660337e-02
    47   -3.757015704251e-03
    48   -9.334100893880e-04
Sym=X
Ene= 0.239400
Spin=Alpha
Occup=0
     1   -1.599958569980e-02
     2   -1.053009037640e+00
     3    1.654125006607e-02
     4    9.106054788026e-03
     5    1.360239012467e-03
     6   -8.652818775672e-02
     7    7.976373887435e-02
     8    1.593524170365e+00
     9    5.338865192828e-02
    10   -6.046540752423e-02
    11   -6.360822141864e-04
    12    2.117997851929e-01
    13   -2.352309654580e-01
    14   -1.852808968637e-03
    15   -2.255007683514e-02
    16    2.680363669238e-03
    17    2.946710581870e-03
    18   -5.085383835657e-04
    19    1.286894310327e-02
    20   -1.699994579018e-02
    21   -1.123558443530e+00
    22   -8.538564663005e-03
    23   -1.775420146888e-02
    24   -1.446297373934e-03
    25    8.642943316714e-02
    26   -7.931283503339e-02
    27   -1.595518552459e+00
    28    5.358512404491e-02
    29   -6.093794237666e-02
    30   -2.188229083166e-03
    31    2.119329806714e-01
    32   -2.397763901447e-01
    33   -8.569220102482e-03
    34    2.257985245953e-02
    35   -2.587994798896e-03
    36   -3.162990494531e-03
    37    7.028520426289e-04
    38   -1.278188319381e-02
    39    1.683267487517e-02
    40    1.128533984575e+00
    41   -8.613611316301e-03
    42   -1.785264971450e-02
    43   -1.588033267791e-03
    44    1.569360987503e-02
    45    1.050126725498e+00
    46    1.645076235726e-02
    47    9.265642034395e-03
    48    1.292540226422e-03
Sym=X
Ene= 0.303258
Spin=Alpha
Occup=0
     1   -2.078233459226e-02
     2    1.691545721378e+00
     3   -2.291448313448e-02
     4    2.769844302355e-04
     5   -1.090187876016e-03
     6   -2.029557338202e-04
     7    1.736832441453e-04
     8    1.972712233226e-03
     9   -1.339294722661e-01
    10   -1.396044418082e-01
    11   -1.446090499742e-02
    12   -1.144219345304e+00
    13   -1.193750310524e+00
    14   -1.259040704924e-01
    15   -1.314555816066e-04
    16   -1.707403795985e-03
    17    1.818609229016e-03
    18   -3.266317774321e-02
    19   -1.578085781374e-03
    20    1.997923177195e-02
    21   -1.690032636023e+00
    22    1.427076460065e-03
    23   -2.291127234351e-02
    24   -1.250460737567e-03
    25    8.563202180748e-05
    26    2.649776752561e-04
    27   -9.234256460764e-03
    28    1.346581416486e-01
    29    1.402167680975e-01
    30    1.542412797331e-02
    31    1.139710665466e+00
    32    1.197135815424e+00
    33    1.288969254474e-01
    34    1.102397721206e-04
    35   -1.517989150022e-03
    36    2.086464405937e-03
    37   -3.249109200185e-02
    38   -1.714830789920e-03
    39    1.953466957436e-02
    40   -1.691304846197e+00
    41   -1.614834071695e-03
    42    2.283060627284e-02
    43    1.377307337351e-03
    44   -2.015146876495e-02
    45    1.698442785085e+00
    46    2.304557651529e-02
    47   -3.527242207311e-04
    48    1.081307383546e-03
Sym=X
Ene= 0.462032
Spin=Alpha
Occup=0
     1   -1.154992578831e-01
     2   -7.143306351875e-01
     3   -1.567304654107e-02
     4   -1.032751576153e-02
     5   -1.319671276780e-03
     6    6.079936189694e-02
     7    1.738505916573e-02
     8   -3.591842766588e+00
     9    1.030290132871e-01
    10   -9.899291556427e-02
    11   -1.167245568243e-03
    12    2.425911887713e+00
    13   -2.303159968016e+00
    14   -1.992872686120e-02
    15    5.365924211167e-02
    16   -3.214254108342e-03
    17   -4.684155439827e-03
    18   -7.754278170739e-04
    19    1.800491712810e-02
    20   -1.211704281171e-01
    21   -7.022974590218e-01
    22    8.718562753488e-03
    23    1.638092654359e-02
    24    1.372350496044e-03
    25   -6.094826497334e-02
    26   -1.629724875600e-02
    27    3.591720073306e+00
    28    1.051900836563e-01
    29   -1.003754132588e-01
    30   -2.043579747285e-03
    31    2.422966571945e+00
    32   -2.297905067631e+00
    33   -2.381698633357e-02
    34   -5.268991111525e-02
    35    3.424875129555e-03
    36    4.748887207484e-03
    37    6.519033222467e-04
    38   -1.905806286453e-02
    39    1.153868744316e-01
    40    7.083130300301e-01
    41    8.577225543310e-03
    42    1.624901798204e-02
    43    1.422316161300e-03
    44    1.108174917232e-01
    45    7.183042672947e-01
    46   -1.545065133827e-02
    47   -9.946046342121e-03
    48   -1.420421622960e-03
Sym=X
Ene= 0.577496
Spin=Alpha
Occup=0
     1    2.469462305745e-01
     2    4.109983174894e-02
     3   -1.847318423128e-02
     4    2.570776609904e-02
     5    6.540644114307e-04
     6   -4.456175038398e-03
     7   -1.571686708567e-01
     8   -4.658249194001e-01
     9    2.987602804559e-01
    10   -2.879094968213e-01
    11   -3.026907925339e-03
    12   -7.200152576313e-01
    13    6.964200371011e-01
    14    8.123892831096e-03
    15   -5.880294646559e-03
    16    3.967120046489e-03
    17    3.769443676248e-03
    18   -4.397107643958e-03
    19    6.022987210969e-02
    20    2.554413940714e-01
    21    2.923191761058e-02
    22   -2.642520743172e-02
    23    1.644485946041e-02
    24   -2.745164544892e-04
    25   -5.630565350256e-03
    26   -1.578771886601e-01
    27   -4.096387046842e-01
    28   -2.973620845029e-01
    29    2.852259533181e-01
    30    2.794405056247e-03
    31    7.625638991403e-01
    32   -7.324836128374e-01
    33   -9.178662013395e-03
    34   -5.872134052396e-03
    35    4.001956828811e-03
    36    3.764420552593e-03
    37   -3.782358451200e-03
    38    6.018747616060e-02
    39    2.507665857010e-01
    40    4.939477100177e-02
    41    2.725056723469e-02
    42   -1.703062579897e-02
    43    2.112613769588e-04
    44    2.491427626656e-01
    45    5.609210167580e-02
    46    1.842309850937e-02
    47   -2.586544368590e-02
    48   -7.678280688918e-04
Sym=X
Ene= 0.615158
Spin=Alpha
Occup=0
     1   -5.223443054821e-01
     2    1.998981503449e-01
     3   -6.135349271826e-02
     4    3.761841664138e-02
     5   -7.688285148507e-04
     6   -5.907280003434e-04
     7    1.118565270709e-04
     8   -1.696323092700e-02
     9   -4.041505408929e-02
    10   -3.850256857125e-02
    11   -4.512217222768e-03
    12    3.054954617635e-01
    13    2.790089765747e-01
    14    2.973621680080e-02
    15    1.889759592000e-03
    16   -7.775510014175e-03
    17    8.266112540057e-03
    18   -1.479812380560e-01
    19   -6.441683643255e-03
    20    5.080721744685e-01
    21   -2.050048979013e-01
    22    4.178754719498e-02
    23   -5.845177482900e-02
    24   -1.537568430561e-03
    25    4.157735539452e-04
    26   -8.799754976501e-04
    27    2.445440585273e-02
    28   -3.992424335383e-02
    29   -4.018042532888e-02
    30   -4.154126688856e-03
    31    3.035808675032e-01
    32    2.888462058577e-01
    33    3.402169608090e-02
    34   -1.507871096293e-03
    35    7.197124433371e-03
    36   -9.167850940864e-03
    37    1.491458170752e-01
    38    6.316470509563e-03
    39   -5.150515214445e-01
    40    2.081725301423e-01
    41    4.094389929208e-02
    42   -5.859479638363e-02
    43   -1.713688277984e-03
    44    5.217743826392e-01
    45   -2.041428256653e-01
    46   -6.148638487138e-02
    47    3.760660394021e-02
    48   -4.465061574386e-04
Sym=X
Ene= 0.689148
Spin=Alpha
Occup=0
     1    1.570514135875e-03
     2    1.054420448594e-03
     3    1.217604598717e-03
     4    1.336065013776e-03
     5   -2.099541647047e-02
     6    1.158920783299e-04
     7    1.121707389776e-03
     8    2.372592751203e-04
     9    3.088639443635e-02
    10    4.035788420194e-02
    11   -6.703496750160e-01
    12   -3.019004080539e-02
    13   -3.443492255575e-02
    14    6.136389578406e-01
    15   -1.766455589734e-03
    16    8.270614476499e-02
    17   -7.824994436449e-02
    18   -9.019046506427e-03
    19   -8.612412597734e-04
    20    1.901936138068e-03
    21   -4.625713601277e-04
    22    6.883191207768e-04
    23    8.915321218825e-04
    24   -2.096093164108e-02
    25    3.571190750534e-05
    26    1.897888302410e-03
    27   -2.089844846320e-03
    28    3.306783695296e-02
    29    4.140109921164e-02
    30   -6.699775553895e-01
    31   -3.286442571020e-02
    32   -3.609580417394e-02
    33    6.130802299299e-01
    34    7.729697183690e-04
    35   -8.272314804601e-02
    36    7.849829395627e-02
    37    8.460032829252e-03
    38    1.201439198030e-03
    39    5.729715879408e-04
    40   -2.818626874230e-03
    41    1.130890678000e-03
    42    1.836454832516e-03
    43   -2.096597868073e-02
    44    2.340436375476e-04
    45   -1.310669758706e-03
    46    6.130990981692e-04
    47    1.399360402109e-03
    48   -2.105966514060e-02
Sym=X
Ene= 0.708860
Spin=Alpha
Occup=0
     1   -4.752462035050e-01
     2    1.579362910835e-01
     3   -8.065776390626e-02
     4   -4.425463075484e-02
     5   -6.601987368207e-03
     6   -4.776522988729e-02
     7   -3.200068002331e-01
     8    5.084712545696e-01
     9    2.038019970139e-01
    10   -1.922640043317e-01
    11   -3.705356657112e-03
    12   -9.744690275477e-02
    13    8.076444269213e-02
    14    6.864231820375e-04
    15    1.939369221417e-01
    16   -2.051466529868e-02
    17   -2.411115769352e-02
    18    3.133626189642e-03
    19   -7.739617075750e-02
    20   -4.782342368310e-01
    21    1.498578457617e-01
    22    4.093391597975e-02
    23    8.167153207429e-02
    24    6.654251938490e-03
    25   -4.674992454885e-02
    26   -3.208420016272e-01
    27    4.632160373555e-01
    28   -2.040461906300e-01
    29    1.920824748303e-01
    30    1.027710033643e-04
    31    6.523188087707e-02
    32   -5.294197460523e-02
    33    3.692819808191e-03
    34    1.935534484187e-01
    35   -2.096083823038e-02
    36   -2.461029117891e-02
    37    2.399883431595e-03
    38   -7.553161280385e-02
    39   -4.726713559226e-01
    40    1.364432564019e-01
    41   -4.066323816903e-02
    42   -8.101302966592e-02
    43   -6.976582911920e-03
    44   -4.746169196432e-01
    45    1.464228942963e-01
    46    8.053616642855e-02
    47    4.397148163362e-02
    48    6.658383510448e-03
Sym=X
Ene= 0.784496
Spin=Alpha
Occup=0
     1    5.268341132851e-01
     2   -4.690759344549e-01
     3    1.102940056021e-01
     4    2.600362383230e-02
     5    6.771394575494e-03
     6    9.098546895912e-02
     7   -2.155238281715e-01
     8   -6.429724634615e-01
     9    1.103421930072e-01
    10   -1.060222739451e-01
    11    2.234071774317e-03
    12    3.180311699937e-01
    13   -2.931012369822e-01
    14   -8.385811137977e-03
    15   -2.064138345606e-01
    16    1.743523460704e-02
    17    2.156266686411e-02
    18   -1.137094500347e-03
    19    9.314283562036e-03
    20    5.362496484515e-01
    21   -4.686138617941e-01
    22   -2.032980381392e-02
    23   -1.123369137648e-01
    24   -7.536941732745e-03
    25   -9.134315670062e-02
    26    2.133709562558e-01
    27    6.559368020037e-01
    28    1.120174985606e-01
    29   -1.051206113041e-01
    30   -3.617187879801e-03
    31    3.093581480685e-01
    32   -2.896529044262e-01
    33    3.235733320653e-03
    34    2.073583680407e-01
    35   -1.770625962242e-02
    36   -2.369725155191e-02
    37    1.818621810000e-03
    38   -8.797448457841e-03
    39   -5.416984744371e-01
    40    4.680036651874e-01
    41   -2.049051566454e-02
    42   -1.128791824179e-01
    43   -8.105695275007e-03
    44   -5.312165566445e-01
    45    4.644068764897e-01
    46    1.098996753770e-01
    47    2.672428977922e-02
    48    6.996756369163e-03
Sym=X
Ene= 0.807967
Spin=Alpha
Occup=0
     1   -1.919647324154e-03
     2    4.194191634049e-03
     3   -2.335629342860e-03
     4   -2.163367345633e-03
     5    3.376885740067e-02
     6   -3.892825126420e-04
     7    1.417612034506e-03
     8    2.689801531703e-04
     9   -3.643376157261e-02
    10   -4.375358727674e-02
    11    7.630759193092e-01
    12    5.142196241474e-02
    13    6.633593257055e-02
    14   -1.127062370986e+00
    15    3.861662941767e-05
    16    6.514747701686e-02
    17   -6.190359590866e-02
    18   -7.450742552279e-03
    19   -6.813736914622e-04
    20   -1.876918314297e-03
    21   -6.362659063284e-06
    22   -1.859526008536e-03
    23   -1.786963872444e-03
    24    3.448699668272e-02
    25    3.294185677166e-04
    26   -9.775856272078e-05
    27   -1.009091626421e-03
    28    3.683680447490e-02
    29    4.887223219501e-02
    30   -7.630039498176e-01
    31   -5.702607682069e-02
    32   -7.018989463316e-02
    33    1.126650112272e+00
    34   -2.136836350647e-03
    35    6.531911465514e-02
    36   -6.175355592633e-02
    37   -6.333978373401e-03
    38   -1.097612429255e-03
    39    1.868867457677e-03
    40   -3.711426492946e-04
    41    1.321673814484e-03
    42    2.709966120192e-03
    43   -3.417438924219e-02
    44    1.905785206857e-03
    45   -4.517010674875e-03
    46    5.828284069881e-04
    47    2.040035487157e-03
    48   -3.379635819607e-02
Sym=X
Ene= 0.862236
Spin=Alpha
Occup=0
     1    1.353115205244e-02
     2   -1.095672135222e+00
     3    1.483880885694e-01
     4    5.642917953595e-02
     5    1.031899149871e-02
     6    2.296910627925e-04
     7   -5.554913527669e-04
     8    2.028590582320e-03
     9   -4.066326338779e-01
    10   -4.290011127095e-01
    11   -4.325685768785e-02
    12    9.474129647535e-01
    13    9.986664921868e-01
    14    1.009461972263e-01
    15   -8.510451124745e-04
    16    1.177428454364e-02
    17   -1.390007797085e-02
    18    2.352259496513e-01
    19    9.417812434563e-03
    20   -1.335722939424e-02
    21    1.102745219195e+00
    22    5.037212929110e-02
    23    1.512399793028e-01
    24    1.149220481732e-02
    25   -1.539310788657e-04
    26    1.655874192794e-03
    27   -2.337396492497e-03
    28   -4.065098549760e-01
    29   -4.298148183624e-01
    30   -4.792731506761e-02
    31    9.466231523426e-01
    32    1.002543946766e+00
    33    1.114914365237e-01
    34    5.869801558868e-04
    35   -1.173967423282e-02
    36    1.410612229952e-02
    37   -2.363399175291e-01
    38   -1.017672965781e-02
    39    1.184426212883e-02
    40   -1.102443112121e+00
    41    4.896544753673e-02
    42    1.515504918862e-01
    43    1.203025743624e-02
    44   -1.174641671780e-02
    45    1.095136653741e+00
    46    1.488110530713e-01
    47    5.568297680152e-02
    48    1.038630935508e-02
Sym=X
Ene= 0.935891
Spin=Alpha
Occup=0
     1   -1.134719631435e-01
     2    1.279235258597e+00
     3   -1.811917687167e-01
     4    5.421135229425e-03
     5   -8.425073995745e-03
     6   -8.671777433928e-07
     7   -3.404724558506e-03
     8    6.470293747876e-04
     9    4.729579185886e-01
    10    4.995622870729e-01
    11    5.226690246980e-02
    12   -1.465505434835e+00
    13   -1.540629490586e+00
    14   -1.617121739247e-01
    15   -9.882420979657e-04
    16   -5.971652665823e-03
    17    6.480162267077e-03
    18   -1.204784697200e-01
    19   -2.232002257125e-03
    20    1.174478017287e-01
    21   -1.287547972141e+00
    22    1.153247614919e-02
    23   -1.830900395518e-01
    24   -1.004197266800e-02
    25    4.087398761976e-06
    26   -1.696415170723e-03
    27    2.460965069167e-03
    28   -4.744075714871e-01
    29   -4.972277065006e-01
    30   -5.371175957249e-02
    31    1.468970084040e+00
    32    1.531025689903e+00
    33    1.656062150033e-01
    34   -4.215090893975e-04
    35   -6.041069565259e-03
    36    7.823166382844e-03
    37   -1.204974391621e-01
    38   -4.775247223930e-03
    39    1.167803665590e-01
    40   -1.280935127986e+00
    41   -1.338453005875e-02
    42    1.819456364600e-01
    43    1.076417525219e-02
    44   -1.154513953819e-01
    45    1.285311834478e+00
    46    1.818258612197e-01
    47   -5.494582847469e-03
    48    8.498101466649e-03
Sym=X
Ene= 0.972437
Spin=Alpha
Occup=0
     1   -6.446203881706e-02
     2    9.270252734808e-01
     3   -9.105080378321e-02
     4   -9.848262966392e-02
     5   -1.030594290435e-02
     6    2.534132482421e-02
     7    2.529630303600e-01
     8    5.186791286103e-01
     9    4.815315705481e-01
    10   -4.541016187990e-01
    11   -3.615681385315e-03
    12   -1.496121175373e+00
    13    1.405990546714e+00
    14    1.094633265892e-02
    15   -5.390837512887e-02
    16   -1.301241534512e-02
    17   -9.947127101622e-03
    18    1.330365264701e-02
    19   -3.015529919839e-01
    20   -6.249442805558e-02
    21    9.081626629328e-01
    22    9.527763865895e-02
    23    9.278502521791e-02
    24    1.013089942731e-02
    25   -2.517632202320e-02
    26   -2.378382724972e-01
    27   -5.437951165201e-01
    28    4.778440138902e-01
    29   -4.553198375266e-01
    30   -6.090364408562e-03
    31   -1.483285206815e+00
    32    1.416817902250e+00
    33    1.835488025203e-02
    34    5.291668596521e-02
    35    1.272821723578e-02
    36    1.006420613526e-02
    37   -1.408316925488e-02
    38    2.990489876503e-01
    39    6.214130772489e-02
    40   -9.096521626670e-01
    41    9.417546973085e-02
    42    9.285625384870e-02
    43    1.063885138977e-02
    44    6.588725802052e-02
    45   -9.101854120176e-01
    46   -8.884131168666e-02
    47   -9.786236661341e-02
    48   -9.837943920893e-03
[5D]

======= END OF MOLDEN-FORMATTED INPUT FILE =======


        *************************************************************
        *                                                           *
        *  Thank you very much for using Q-Chem.  Have a nice day.  *
        *                                                           *
        *************************************************************


