                  Welcome to Q-Chem
     A Quantum Leap Into The Future Of Chemistry


 Q-Chem 5.4 (devel), Q-Chem, Inc., Pleasanton, CA (2021)

 E. Epifanovsky,  A. T. B. Gilbert,  Xintian Feng,  Joonho Lee,  Yuezhi Mao,  
 N. Mardirossian,  P. Pokhilko,  A. White,  M. Wormit,  M. P. Coons,  
 A. L. Dempwolff,  Zhengting Gan,  D. Hait,  P. R. Horn,  L. D. Jacobson,  
 I. Kaliman,  J. Kussmann,  A. W. Lange,  Ka Un Lao,  D. S. Levine,  Jie Liu,  
 S. C. McKenzie,  A. F. Morrison,  K. Nanda,  F. Plasser,  D. R. Rehn,  
 M. L. Vidal,  Zhi-Qiang You,  Ying Zhu,  B. Alam,  B. Albrecht,  
 A. Aldossary,  E. Alguire,  J. H. Andersen,  D. Barton,  K. Begam,  A. Behn,  
 Y. A. Bernard,  E. J. Berquist,  H. Burton,  A. Carreras,  K. Carter-Fenk,  
 R. Chakraborty,  A. D. Chien,  K. D. Closser,  V. Cofer-Shabica,  
 S. Dasgupta,  Jia Deng,  M. de Wergifosse,  M. Diedenhofen,  Hainam Do,  
 S. Ehlert,  Po-Tung Fang,  S. Fatehi,  Qingguo Feng,  T. Friedhoff,  
 J. Gayvert,  Qinghui Ge,  G. Gidofalvi,  M. Goldey,  J. Gomes,  
 C. Gonzalez-Espinoza,  S. Gulania,  A. Gunina,  M. W. D. Hanson-Heine,  
 P. H. P. Harbach,  A. W. Hauser,  M. F. Herbst,  M. Hernandez Vera,  
 M. Hodecker,  Z. C. Holden,  S. Houck,  Xunkun Huang,  Kerwin Hui,  
 B. C. Huynh,  M. Ivanov,  Hyunjun Ji,  Hanjie Jiang,  B. Kaduk,  S. Kaehler,  
 K. Khistyaev,  Jaehoon Kim,  P. Klunzinger,  Z. Koczor-Benda,  
 Joong Hoon Koh,  D. Kosenkov,  L. Koulias,  T. Kowalczyk,  C. M. Krauter,  
 K. Kue,  A. Kunitsa,  T. Kus,  A. Landau,  K. V. Lawler,  D. Lefrancois,  
 S. Lehtola,  Rain Li,  Yi-Pei Li,  Jiashu Liang,  M. Liebenthal,  
 Hung-Hsuan Lin,  You-Sheng Lin,  Fenglai Liu,  Kuan-Yu Liu,  
 M. Loipersberger,  A. Luenser,  A. Manjanath,  P. Manohar,  E. Mansoor,  
 S. F. Manzer,  Shan-Ping Mao,  A. V. Marenich,  T. Markovich,  S. Mason,  
 S. A. Maurer,  P. F. McLaughlin,  M. F. S. J. Menger,  J.-M. Mewes,  
 S. A. Mewes,  P. Morgante,  J. W. Mullinax,  K. J. Oosterbaan,  G. Paran,  
 Alexander C. Paul,  Suranjan K. Paul,  F. Pavosevic,  Zheng Pei,  S. Prager,  
 E. I. Proynov,  E. Ramos,  B. Rana,  A. E. Rask,  A. Rettig,  R. M. Richard,  
 F. Rob,  E. Rossomme,  T. Scheele,  M. Scheurer,  M. Schneider,  
 N. Sergueev,  S. M. Sharada,  W. Skomorowski,  D. W. Small,  C. J. Stein,  
 Yu-Chuan Su,  E. J. Sundstrom,  Zhen Tao,  J. Thirman,  T. Tsuchimochi,  
 N. M. Tubman,  S. P. Veccham,  O. Vydrov,  J. Wenzel,  J. Witte,  A. Yamada,  
 Kun Yao,  S. Yeganeh,  S. R. Yost,  A. Zech,  Igor Ying Zhang,  Xing Zhang,  
 Yu Zhang,  D. Zuev,  A. Aspuru-Guzik,  A. T. Bell,  N. A. Besley,  
 K. B. Bravaya,  B. R. Brooks,  D. Casanova,  Jeng-Da Chai,  S. Coriani,  
 C. J. Cramer,  A. E. DePrince, III,  R. A. DiStasio Jr.,  A. Dreuw,  
 B. D. Dunietz,  T. R. Furlani,  W. A. Goddard III,  S. Grimme,  
 S. Hammes-Schiffer,  T. Head-Gordon,  W. J. Hehre,  Chao-Ping Hsu,  
 T.-C. Jagau,  Yousung Jung,  A. Klamt,  Jing Kong,  D. S. Lambrecht,  
 WanZhen Liang,  N. J. Mayhall,  C. W. McCurdy,  J. B. Neaton,  
 C. Ochsenfeld,  J. A. Parkhill,  R. Peverati,  V. A. Rassolov,  Yihan Shao,  
 L. V. Slipchenko,  T. Stauch,  R. P. Steele,  J. E. Subotnik,  
 A. J. W. Thom,  A. Tkatchenko,  D. G. Truhlar,  T. Van Voorhis,  
 T. A. Wesolowski,  K. B. Whaley,  H. L. Woodcock III,  P. M. Zimmerman,  
 S. Faraji,  P. M. W. Gill,  M. Head-Gordon,  J. M. Herbert,  A. I. Krylov

 Additional authors for Version 5.4.1: 
 S. Kotaru,  Shaozhi Li,  Xiangyuan Li,  F. Matz,  A. Molle,  Haisheng Ren,  
 Yingli Su,  Hung-Yi Tsai,  C. Utku,  Fang Wang

 Contributors to earlier versions of Q-Chem not listed above: 
 R. D. Adamson,  B. Austin,  R. Baer,  J. Baker,  G. J. O. Beran,  
 K. Brandhorst,  S. T. Brown,  E. F. C. Byrd,  A. K. Chakraborty,  
 G. K. L. Chan,  Chun-Min Chang,  Yunqing Chen,  C.-L. Cheng,  
 Siu Hung Chien,  D. M. Chipman,  D. L. Crittenden,  H. Dachsel,  
 R. J. Doerksen,  A. D. Dutoi,  R. G. Edgar,  J. Fosso-Tande,  
 L. Fusti-Molnar,  D. Ghosh,  A. Ghysels,  A. Golubeva-Zadorozhnaya,  
 J. Gonthier,  M. S. Gordon,  S. R. Gwaltney,  G. Hawkins,  J. E. Herr,  
 A. Heyden,  S. Hirata,  E. G. Hohenstein,  G. Kedziora,  F. J. Keil,  
 C. Kelley,  Jihan Kim,  R. A. King,  R. Z. Khaliullin,  P. P. Korambath,  
 W. Kurlancheek,  A. Laurent,  A. M. Lee,  M. S. Lee,  S. V. Levchenko,  
 Ching Yeh Lin,  D. Liotard,  E. Livshits,  R. C. Lochan,  I. Lotan,  
 L. A. Martinez-Martinez,  P. E. Maslen,  N. Nair,  D. P. O'Neill,  
 D. Neuhauser,  E. Neuscamman,  C. M. Oana,  R. Olivares-Amaya,  R. Olson,  
 T. M. Perrine,  B. Peters,  P. A. Pieniazek,  A. Prociuk,  Y. M. Rhee,  
 J. Ritchie,  M. A. Rohrdanz,  E. Rosta,  N. J. Russ,  H. F. Schaefer III,  
 M. W. Schmidt,  N. E. Schultz,  S. Sharma,  N. Shenvi,  C. D. Sherrill,  
 A. C. Simmonett,  A. Sodt,  T. Stein,  D. Stuck,  K. S. Thanthiriwatte,  
 V. Vanovschi,  L. Vogt,  Tao Wang,  A. Warshel,  M. A. Watson,  
 C. F. Williams,  Q. Wu,  X. Xu,  Jun Yang,  W. Zhang,  Yan Zhao

 Please cite Q-Chem as follows:
 Y. Shao et al., Mol. Phys. 113, 184-215 (2015)
 DOI: 10.1080/00268976.2014.952696

 Q-Chem 5.4.1 for Intel X86 EM64T Linux

 Parts of Q-Chem use Armadillo 9.800.1 (Horizon Scraper).
 http://arma.sourceforge.net/

 Q-Chem begins on Mon Mar 20 18:14:22 2023  

 Host: cpu186.baobab
0

     Scratch files written to /scratch/fum/qchem71195//
 Processing $rem in /home/share/wesolowski/qc5.aug2021.FDE/config/preferences:
 Processing $rem in /home/fum/.qchemrc:

 Checking the input file for inconsistencies... 	...done.

--------------------------------------------------------------
User input:
--------------------------------------------------------------
$comment
generated from CCJob.Templates
$end

$rem
sym_ignore = true
method = adc(2)
ee_states = 10
basis = cc-pVDZ
mem_static = 1024
mem_total = 40000
adc_davidson_maxiter = 900
adc_davidson_conv = 6
adc_print = 3
adc_prop_es = true
adc_prop_es2es = true
adc_prop_tpa = true
molden_format = True
state_analysis = true
print_orbitals = 15
gen_scfman = false
fde_export_density = true
fde_details = 3
$end

$molecule
0 1
H -0.023498934909950798 -0.24864474531031902 0.10191681229443907
C -1.076992747124719 -0.5232466557143689 -0.023723172848995205
H -1.3024230202684648 -1.5954209113589883 -0.040717791572105436
C -2.043838601125624 0.3950188779842736 -0.014827312521732604
H -1.8227303274678708 1.460094642142482 0.1189718709027813
H -3.1030874744096115 0.11473967599115158 -0.02394104103047623                     
$end
--------------------------------------------------------------
 ----------------------------------------------------------------
             Standard Nuclear Orientation (Angstroms)
    I     Atom           X                Y                Z
 ----------------------------------------------------------------
    1      H      -0.0234989349    -0.2486447453     0.1019168123
    2      C      -1.0769927471    -0.5232466557    -0.0237231728
    3      H      -1.3024230203    -1.5954209114    -0.0407177916
    4      C      -2.0438386011     0.3950188780    -0.0148273125
    5      H      -1.8227303275     1.4600946421     0.1189718709
    6      H      -3.1030874744     0.1147396760    -0.0239410410
 ----------------------------------------------------------------
 Nuclear Repulsion Energy =          33.19115402 hartrees
 There are        8 alpha and        8 beta electrons
 Requested basis set is cc-pVDZ
 There are 24 shells and 48 basis functions
 Total memory of 40000 MB is distributed as follows: 
   MEM_STATIC is set to 1024 MB
   QALLOC/CCMAN JOB total memory use is  38976 MB
 Warning: actual memory use might exceed 40000 MB

 Total QAlloc Memory Limit  40000 MB
 Mega-Array Size      1001 MB
 MEM_STATIC part      1024 MB

                       Distance Matrix (Angstroms)
             H (  1)   C (  2)   H (  3)   C (  4)   H (  5)
   C (  2)  1.095920
   H (  3)  1.862739  1.095749
   C (  4)  2.123606  1.333447  2.124198
   H (  5)  2.481394  2.123706  3.103610  1.095982
   H (  6)  3.103507  2.124167  2.483410  1.095741  1.862718

 A cutoff of  1.0D-11 yielded    300 shell pairs
 There are      1220 function pairs (      1329 Cartesian)
 Smallest overlap matrix eigenvalue = 4.82E-03

 Scale SEOQF with 1.000000e-01/1.000000e-01/1.000000e+00

 Standard Electronic Orientation quadrupole field applied
 Nucleus-field energy     =     0.0000000022 hartrees
 Guess from superposition of atomic densities
 Warning:  Energy on first SCF cycle will be non-variational
 SAD guess density has 16.000000 electrons
 A restricted Hartree-Fock SCF calculation will be
 performed using Pulay DIIS extrapolation
 SCF converges when DIIS error is below 1.0E-08
 using 10 threads for integral computing
 -------------------------------------------------------
 OpenMP Integral computing Module                
 Release: version 1.0, May 2013, Q-Chem Inc. Pittsburgh 
 -------------------------------------------------------
 ---------------------------------------
  Cycle       Energy         DIIS Error
 ---------------------------------------
    1     -78.3938332483      9.91E-02
    2     -78.0166500076      7.12E-03
    3     -78.0370721719      1.82E-03
    4     -78.0385473576      5.63E-04
    5     -78.0386646772      5.84E-05
    6     -78.0386665686      9.39E-06
    7     -78.0386666318      1.97E-06
    8     -78.0386666346      1.75E-07
    9     -78.0386666346      2.48E-08
   10     -78.0386666346      6.23E-09 Convergence criterion met
 ---------------------------------------
 SCF time:  CPU 1.96 s  wall 3.27 s
 SCF   energy in the final basis set = -78.03866663
 Total energy in the final basis set = -78.03866663
Exporting Density Matrix to file 'Densmat_SCF.txt'.
Export successful
================================================================================
|                                                                              |
|                                 A D C  M A N                                 |
|                                                                              |
 ------------------------------------------------------------------------------ 
|                                                                              |
| Components:                                                                  |
|                                                                              |
| - libvmm - 1.3-trunk                                                         |
|   Authors:                                                                   |
|   Evgeny Epifanovsky, Ilya Kaliman                                           |
|                                                                              |
| - libtensor - 2.5-trunk                                                      |
|   Authors:                                                                   |
|   Evgeny Epifanovsky, Michael Wormit, Dmitry Zuev, Sam Manzer,               |
|   Ilya Kaliman                                                               |
|                                                                              |
| - libwfa - 1.1-trunk                                                         |
|   Authors:                                                                   |
|   Felix Plasser, Stefanie Mewes (Baeppler), Benjamin Thomitzni,              |
|   Michael Wormit, Feng Chen, Anna I. Krylov, Pavel Pokhilko                  |
|                                                                              |
| - libadc - 1.1-trunk                                                         |
|   Authors:                                                                   |
|   Michael Wormit, Adrian L. Dempwolff, Philipp H. P. Harbach,                |
|   Caroline Krauter, Dirk Rehn, Matthias Schneider, Jan Wenzel                |
|                                                                              |
| - adcman - 2.6-trunk                                                         |
|   Authors:                                                                   |
|   Michael Wormit, Adrian L. Dempwolff, Philipp H. P. Harbach,                |
|   Caroline Krauter, Daniel Lefrancois, Jan-Michael Mewes, Dirk Rehn,         |
|   Matthias Schneider, Jan Wenzel, Andreas Dreuw                              |
|                                                                              |
| Authors of earlier versions of ADCMAN:                                       |
| Andreas Dreuw, Jan Hendrik Starcke, Dirk Rehn, Michael Wormit                |
|                                                                              |
================================================================================

 Created directory /scratch/fum/qchem71195/plots
  Import QC data ...  CPU 0.00 s  wall 0.00 s

 Alpha MOs, Restricted
 -- Occupied --                  
-11.239 -11.238  -1.030  -0.785  -0.634  -0.582  -0.499  -0.375
  1 A     2 A     3 A     4 A     5 A     6 A     7 A     8 A                  
 -- Virtual --                   
  0.167   0.202   0.231   0.236   0.303   0.463   0.580   0.608
  9 A    10 A    11 A    12 A    13 A    14 A    15 A    16 A                  
  0.688   0.706   0.776   0.807   0.857   0.927   0.970   1.005
 17 A    18 A    19 A    20 A    21 A    22 A    23 A    24 A                  
  1.130   1.204   1.237   1.260   1.321   1.593   1.730   1.745
 25 A    26 A    27 A    28 A    29 A    30 A    31 A    32 A                  
  1.801   1.848   1.863   1.893   1.968   1.976   2.208   2.262
 33 A    34 A    35 A    36 A    37 A    38 A    39 A    40 A                  
  2.345   2.429   2.489   2.624   2.675   2.791   3.087   3.360
 41 A    42 A    43 A    44 A    45 A    46 A    47 A    48 A                  

 Beta MOs, Restricted
 -- Occupied --                  
-11.239 -11.238  -1.030  -0.785  -0.634  -0.582  -0.499  -0.375
  1 A     2 A     3 A     4 A     5 A     6 A     7 A     8 A                  
 -- Virtual --                   
  0.167   0.202   0.231   0.236   0.303   0.463   0.580   0.608
  9 A    10 A    11 A    12 A    13 A    14 A    15 A    16 A                  
  0.688   0.706   0.776   0.807   0.857   0.927   0.970   1.005
 17 A    18 A    19 A    20 A    21 A    22 A    23 A    24 A                  
  1.130   1.204   1.237   1.260   1.321   1.593   1.730   1.745
 25 A    26 A    27 A    28 A    29 A    30 A    31 A    32 A                  
  1.801   1.848   1.863   1.893   1.968   1.976   2.208   2.262
 33 A    34 A    35 A    36 A    37 A    38 A    39 A    40 A                  
  2.345   2.429   2.489   2.624   2.675   2.791   3.087   3.360
 41 A    42 A    43 A    44 A    45 A    46 A    47 A    48 A                  
  Import AO data ...  CPU 0.00 s  wall 0.00 s
  Using point group: C1
  Irreducible representations in point group: A
  Molecular orbitals: 
  Occupied MOs:
  Block   0:   1 (  A) A   2 (  A) A   3 (  A) A   4 (  A) A   5 (  A) A
                  -11.24      -11.24       -1.03     -0.7853     -0.6342
               6 (  A) A   7 (  A) A   8 (  A) A
                 -0.5824     -0.4986     -0.3745
  Block   1:   1 (  A) B   2 (  A) B   3 (  A) B   4 (  A) B   5 (  A) B
                  -11.24      -11.24       -1.03     -0.7853     -0.6342
               6 (  A) B   7 (  A) B   8 (  A) B
                 -0.5824     -0.4986     -0.3745
  Virtual MOs:
  Block   0:   9 (  A) A  10 (  A) A  11 (  A) A  12 (  A) A  13 (  A) A
                  0.1667      0.2024      0.2307      0.2365      0.3033
              14 (  A) A  15 (  A) A  16 (  A) A  17 (  A) A  18 (  A) A
                   0.463      0.5799      0.6081      0.6883      0.7055
              19 (  A) A  20 (  A) A  21 (  A) A  22 (  A) A
                  0.7764      0.8074      0.8571       0.927
  Block   1:  23 (  A) A  24 (  A) A  25 (  A) A  26 (  A) A  27 (  A) A
                  0.9704       1.005        1.13       1.204       1.237
              28 (  A) A  29 (  A) A  30 (  A) A  31 (  A) A  32 (  A) A
                    1.26       1.321       1.593        1.73       1.745
              33 (  A) A  34 (  A) A  35 (  A) A  36 (  A) A
                   1.801       1.848       1.863       1.893
  Block   2:  37 (  A) A  38 (  A) A  39 (  A) A  40 (  A) A  41 (  A) A
                   1.968       1.976       2.208       2.262       2.345
              42 (  A) A  43 (  A) A  44 (  A) A  45 (  A) A  46 (  A) A
                   2.429       2.489       2.624       2.675       2.791
              47 (  A) A  48 (  A) A
                   3.087        3.36
  Block   3:   9 (  A) B  10 (  A) B  11 (  A) B  12 (  A) B  13 (  A) B
                  0.1667      0.2024      0.2307      0.2365      0.3033
              14 (  A) B  15 (  A) B  16 (  A) B  17 (  A) B  18 (  A) B
                   0.463      0.5799      0.6081      0.6883      0.7055
              19 (  A) B  20 (  A) B  21 (  A) B  22 (  A) B
                  0.7764      0.8074      0.8571       0.927
  Block   4:  23 (  A) B  24 (  A) B  25 (  A) B  26 (  A) B  27 (  A) B
                  0.9704       1.005        1.13       1.204       1.237
              28 (  A) B  29 (  A) B  30 (  A) B  31 (  A) B  32 (  A) B
                    1.26       1.321       1.593        1.73       1.745
              33 (  A) B  34 (  A) B  35 (  A) B  36 (  A) B
                   1.801       1.848       1.863       1.893
  Block   5:  37 (  A) B  38 (  A) B  39 (  A) B  40 (  A) B  41 (  A) B
                   1.968       1.976       2.208       2.262       2.345
              42 (  A) B  43 (  A) B  44 (  A) B  45 (  A) B  46 (  A) B
                   2.429       2.489       2.624       2.675       2.791
              47 (  A) B  48 (  A) B
                   3.087        3.36
  Import MO data ...  CPU 0.11 s  wall 0.03 s
  Import HF data ...  CPU 0.70 s  wall 0.23 s
  Import 2e integrals ...  CPU 0.98 s  wall 0.18 s

--------------------------------------------------------------------------------
                                   HF Summary                                   
--------------------------------------------------------------------------------
  Energy:                                                  -78.0386666346 a.u.
  Dip. moment [a.u.]:                  [  -0.003061,   -0.003895,    0.063754]
  Total dipole [Debye]:                                               0.162536
  <r^2> [a.u.]:                        [ 175.766340,   35.307020,   11.714009]
  Total <r^2> [a.u.]:                                               222.787369
--------------------------------------------------------------------------------
  HF properties ...  CPU 0.03 s  wall 0.02 s
  MP(1) calculation ...  CPU 0.01 s  wall 0.01 s
  N^6 prerequesite intermediates ...  CPU 0.58 s  wall 0.10 s
  Difference density matrix of state mp2_gs printed to ASCII file 'State_mp2_gs_Difference.txt'
Exporting MP density matrix to file 'Densmat_MP.txt'.
Export successful
  Total density matrix of state mp2_gs printed to ASCII file 'State_mp2_gs_Total.txt'
Exporting MP density matrix to file 'Densmat_MP.txt'.
Export successful

--------------------------------------------------------------------------------
                                 MP(2) Summary                                  
--------------------------------------------------------------------------------
  MP energy contribution:                                   -0.2806991885 a.u.
  Total energy:                                            -78.3193658231 a.u.
  Dip. moment [a.u.]:                  [  -0.002996,   -0.003810,    0.062927]
  Total dipole [Debye]:                                               0.160419
  <r^2> [a.u.]:                        [ 175.806234,   35.342100,   11.541352]
  Total <r^2> [a.u.]:                                               222.689686

  Density matrix analysis:
  ------------------------
  NOs
    Occupation of frontier NOs:
       0.0457   1.9378
    Number of electrons: 16.000000
    Number of unpaired electrons: n_u =  0.40814, n_u,nl =  0.04603
    NO participation ratio (PR_NO): 13.885063
  
  
  Mulliken Population Analysis
  Atom      Charge (e)              h+              e-           Del q
  --------------------------------------------------------------------
   1 H        0.055545        0.013905       -0.011343        0.002562
   2 C       -0.111077        0.094858       -0.099980       -0.005122
   3 H        0.055554        0.013902       -0.011344        0.002558
   4 C       -0.111127        0.094866       -0.099981       -0.005115
   5 H        0.055560        0.013904       -0.011344        0.002560
   6 H        0.055545        0.013903       -0.011345        0.002558
  --------------------------------------------------------------------
  Sum:       -0.000000        0.245337       -0.245337        0.000000
  
  Multipole moment analysis of the density matrix
    Molecular charge:                      -0.000000
    Number of electrons:                   16.000000
      Center of electronic charge [Ang]: [ -1.560946,  -0.064786,  -0.006773]
    Total nuclear charge:                  16.000000
      Center of nuclear charge [Ang]:    [ -1.561045,  -0.064912,  -0.004692]
    Dipole moment [D]:                     0.160418
      Cartesian components [D]:          [ -0.007615,  -0.009684,   0.159945]
    RMS size of the density [Ang]:         1.206926
      Cartesian components [Ang]:        [  0.800230,   0.783806,   0.449387]
  
  Exciton analysis of the difference density matrix
    <r_h> [Ang]:                  [ -1.560427,  -0.064115,  -0.016890]
    <r_e> [Ang]:                  [ -1.560568,  -0.064299,  -0.015105]
    |<r_e - r_h>| [Ang]:            0.001800
    Hole size [Ang]:                1.402451
      Cartesian components [Ang]: [  0.853508,   0.840758,   0.729054]
    Electron size [Ang]:            1.361972
      Cartesian components [Ang]: [  0.879530,   0.864228,   0.578364]
--------------------------------------------------------------------------------
  MP(2) calculation ...  CPU 0.27 s  wall 0.27 s
  Start ADC(2)-s ...  CPU 0.02 s  wall 0.01 s
  ADC(2) intermediates ...  CPU 0.04 s  wall 0.01 s
  Starting Davidson for singlet states of irrep A ... 
--------------------------------------------------------------------------------
   It NVec Conv  Avg. Norm  Max. Norm  Conv. states           Remark
--------------------------------------------------------------------------------
        10    0  1.329e-01  4.684e-01  0.4117 n n n n n n n n Guess.
    1   20    0  2.333e-02  1.115e-01  0.3250 n n n n n n n n 
    2   30    0  5.991e-03  2.464e-02  0.3203 n n n n n n n n 
    3   40    0  1.913e-03  1.056e-02  0.3199 n n n n n n n n 
    4   50    0  5.301e-04  3.432e-03  0.3198 n n n n n n n n 
    5   20    0  2.511e-04  1.569e-03  0.3198 n n n n n n n n Subspace collapsed.
    6   30    0  1.122e-04  7.829e-04  0.3198 n n n n n n n n 
    7   40    0  8.937e-05  6.905e-04  0.3198 n n n n n n n n 
    8   50    0  2.999e-05  2.106e-04  0.3198 n n n n n n n n 
    9   20    0  1.615e-05  1.252e-04  0.3198 n n n n n n n n Subspace collapsed.
   10   30    0  1.139e-05  1.014e-04  0.3198 n n n n n n n n 
   11   40    4  4.517e-06  3.663e-05  0.3198 y n n y y y n n 
   12   50    5  2.483e-06  1.837e-05  0.3198 y n y y y y n n 
   13   20    6  1.285e-06  8.233e-06  0.3198 y y y y y y n n Subspace collapsed.
   14   30    6  1.158e-06  7.262e-06  0.3198 y y y y y y n n 
   15   40    6  8.055e-07  5.196e-06  0.3198 y y y y y y n n 
   16   50    6  8.718e-07  6.639e-06  0.3198 y y y y y y n n 
   17   20    6  3.072e-07  2.231e-06  0.3198 y y y y y y n n Subspace collapsed.
   18   30    7  3.221e-07  2.431e-06  0.3198 y y y y y y y n 
   19   40    8  2.414e-07  1.882e-06  0.3198 y y y y y y y y 
   20   50    8  2.994e-07  2.304e-06  0.3198 y y y y y y y y 
   21   20    9  1.385e-07  1.057e-06  0.3198 y y y y y y y y Subspace collapsed.
   22   30   10  1.264e-07  9.540e-07  0.3198 y y y y y y y y Converged.
--------------------------------------------------------------------------------
  Davidson Summary: 
 ------------------------------------------------------------
  State  0: excitation energy =   0.3198 a.u.   (converged)
  State  1: excitation energy =   0.3275 a.u.   (converged)
  State  2: excitation energy =   0.3358 a.u.   (converged)
  State  3: excitation energy =   0.3572 a.u.   (converged)
  State  4: excitation energy =   0.3731 a.u.   (converged)
  State  5: excitation energy =   0.3865 a.u.   (converged)
  State  6: excitation energy =   0.4192 a.u.   (converged)
  State  7: excitation energy =   0.4424 a.u.   (converged)
  State  8: excitation energy =   0.4535 a.u.   (converged)
  State  9: excitation energy =   0.4572 a.u.   (converged)
 ------------------------------------------------------------

  Singlet states of irrep A ...  CPU 164.10 s  wall 51.22 s
  TDMs ...  CPU 2.31 s  wall 0.87 s
  SDMs ...  CPU 4.51 s  wall 1.44 s
  Starting TPA DIIS iterations ... 
------------------------------------ 
   It     Res. Norm  Remark
------------------------------------
                       Guess.
    1     4.395e+00  
    2     5.835e+00  
    3     1.089e+00  
    4     2.683e-01  
    5     6.662e-02  
    6     2.881e-02  
    7     8.531e-03  
    8     1.837e-03  
    9     6.774e-04  
   10     1.103e-04  
   11     4.902e-05  
   12     1.124e-05  
   13     5.558e-06  
   14     1.777e-06  
   15     8.057e-07  Converged.
   ... Converged in 15 steps (norm: 8.05742e-07)
------------------------------------
  Starting TPA DIIS iterations ... 
------------------------------------ 
   It     Res. Norm  Remark
------------------------------------
                       Guess.
    1     4.185e+00  
    2     5.546e+00  
    3     1.039e+00  
    4     2.663e-01  
    5     6.636e-02  
    6     2.887e-02  
    7     8.398e-03  
    8     1.870e-03  
    9     6.854e-04  
   10     1.072e-04  
   11     4.912e-05  
   12     1.101e-05  
   13     5.660e-06  
   14     1.814e-06  
   15     7.952e-07  Converged.
   ... Converged in 15 steps (norm: 7.95224e-07)
------------------------------------
  Starting TPA DIIS iterations ... 
------------------------------------ 
   It     Res. Norm  Remark
------------------------------------
                       Guess.
    1     6.849e-01  
    2     4.794e-01  
    3     1.685e-01  
    4     6.272e-02  
    5     1.876e-02  
    6     6.747e-03  
    7     1.111e-03  
    8     4.582e-04  
    9     1.371e-04  
   10     2.469e-05  
   11     7.754e-06  
   12     2.398e-06  
   13     1.423e-06  
   14     6.080e-07  Converged.
   ... Converged in 14 steps (norm: 6.08036e-07)
------------------------------------
  Starting TPA DIIS iterations ... 
------------------------------------ 
   It     Res. Norm  Remark
------------------------------------
                       Guess.
    1     4.578e+00  
    2     6.165e+00  
    3     1.141e+00  
    4     2.875e-01  
    5     7.201e-02  
    6     3.136e-02  
    7     9.269e-03  
    8     2.015e-03  
    9     7.448e-04  
   10     1.204e-04  
   11     5.469e-05  
   12     1.277e-05  
   13     6.420e-06  
   14     2.077e-06  
   15     9.519e-07  Converged.
   ... Converged in 15 steps (norm: 9.51897e-07)
------------------------------------
  Starting TPA DIIS iterations ... 
------------------------------------ 
   It     Res. Norm  Remark
------------------------------------
                       Guess.
    1     4.359e+00  
    2     5.859e+00  
    3     1.089e+00  
    4     2.852e-01  
    5     7.174e-02  
    6     3.145e-02  
    7     9.125e-03  
    8     2.053e-03  
    9     7.533e-04  
   10     1.171e-04  
   11     5.481e-05  
   12     1.251e-05  
   13     6.541e-06  
   14     2.123e-06  
   15     9.390e-07  Converged.
   ... Converged in 15 steps (norm: 9.38962e-07)
------------------------------------
  Starting TPA DIIS iterations ... 
------------------------------------ 
   It     Res. Norm  Remark
------------------------------------
                       Guess.
    1     6.927e-01  
    2     4.904e-01  
    3     1.747e-01  
    4     6.795e-02  
    5     1.970e-02  
    6     7.138e-03  
    7     1.201e-03  
    8     5.072e-04  
    9     1.526e-04  
   10     2.625e-05  
   11     8.554e-06  
   12     2.674e-06  
   13     1.640e-06  
   14     7.221e-07  Converged.
   ... Converged in 14 steps (norm: 7.22088e-07)
------------------------------------
  Starting TPA DIIS iterations ... 
------------------------------------ 
   It     Res. Norm  Remark
------------------------------------
                       Guess.
    1     4.795e+00  
    2     6.558e+00  
    3     1.203e+00  
    4     3.108e-01  
    5     7.856e-02  
    6     3.449e-02  
    7     1.017e-02  
    8     2.236e-03  
    9     8.279e-04  
   10     1.329e-04  
   11     6.180e-05  
   12     1.472e-05  
   13     7.538e-06  
   14     2.472e-06  
   15     1.146e-06  
   16     3.845e-07  Converged.
   ... Converged in 16 steps (norm: 3.84531e-07)
------------------------------------
  Starting TPA DIIS iterations ... 
------------------------------------ 
   It     Res. Norm  Remark
------------------------------------
                       Guess.
    1     4.565e+00  
    2     6.233e+00  
    3     1.148e+00  
    4     3.081e-01  
    5     7.827e-02  
    6     3.460e-02  
    7     1.001e-02  
    8     2.280e-03  
    9     8.370e-04  
   10     1.292e-04  
   11     6.194e-05  
   12     1.444e-05  
   13     7.685e-06  
   14     2.528e-06  
   15     1.130e-06  
   16     3.681e-07  Converged.
   ... Converged in 16 steps (norm: 3.68063e-07)
------------------------------------
  Starting TPA DIIS iterations ... 
------------------------------------ 
   It     Res. Norm  Remark
------------------------------------
                       Guess.
    1     7.015e-01  
    2     5.031e-01  
    3     1.820e-01  
    4     7.441e-02  
    5     2.078e-02  
    6     7.610e-03  
    7     1.311e-03  
    8     5.683e-04  
    9     1.718e-04  
   10     2.797e-05  
   11     9.558e-06  
   12     3.023e-06  
   13     1.922e-06  
   14     8.747e-07  Converged.
   ... Converged in 14 steps (norm: 8.74692e-07)
------------------------------------
  Starting TPA DIIS iterations ... 
------------------------------------ 
   It     Res. Norm  Remark
------------------------------------
                       Guess.
    1     5.434e+00  
    2     7.750e+00  
    3     1.384e+00  
    4     3.839e-01  
    5     9.906e-02  
    6     4.442e-02  
    7     1.299e-02  
    8     2.955e-03  
    9     1.095e-03  
   10     1.725e-04  
   11     8.555e-05  
   12     2.144e-05  
   13     1.152e-05  
   14     3.921e-06  
   15     1.871e-06  
   16     5.882e-07  Converged.
   ... Converged in 16 steps (norm: 5.8822e-07)
------------------------------------
  Starting TPA DIIS iterations ... 
------------------------------------ 
   It     Res. Norm  Remark
------------------------------------
                       Guess.
    1     5.171e+00  
    2     7.365e+00  
    3     1.320e+00  
    4     3.798e-01  
    5     9.872e-02  
    6     4.463e-02  
    7     1.279e-02  
    8     3.020e-03  
    9     1.105e-03  
   10     1.678e-04  
   11     8.575e-05  
   12     2.108e-05  
   13     1.175e-05  
   14     4.012e-06  
   15     1.841e-06  
   16     5.628e-07  Converged.
   ... Converged in 16 steps (norm: 5.62795e-07)
------------------------------------
  Starting TPA DIIS iterations ... 
------------------------------------ 
   It     Res. Norm  Remark
------------------------------------
                       Guess.
    1     7.249e-01  
    2     5.385e-01  
    3     2.027e-01  
    4     9.518e-02  
    5     2.396e-02  
    6     9.085e-03  
    7     1.671e-03  
    8     7.654e-04  
    9     2.328e-04  
   10     3.272e-05  
   11     1.292e-05  
   12     4.205e-06  
   13     2.934e-06  
   14     1.440e-06  
   15     6.516e-07  Converged.
   ... Converged in 15 steps (norm: 6.51645e-07)
------------------------------------
  Starting TPA DIIS iterations ... 
------------------------------------ 
   It     Res. Norm  Remark
------------------------------------
                       Guess.
    1     6.001e+00  
    2     8.843e+00  
    3     1.544e+00  
    4     4.536e-01  
    5     1.186e-01  
    6     5.406e-02  
    7     1.568e-02  
    8     3.679e-03  
    9     1.357e-03  
   10     2.111e-04  
   11     1.100e-04  
   12     2.866e-05  
   13     1.594e-05  
   14     5.587e-06  
   15     2.722e-06  
   16     8.251e-07  Converged.
   ... Converged in 16 steps (norm: 8.25073e-07)
------------------------------------
  Starting TPA DIIS iterations ... 
------------------------------------ 
   It     Res. Norm  Remark
------------------------------------
                       Guess.
    1     5.710e+00  
    2     8.403e+00  
    3     1.472e+00  
    4     4.482e-01  
    5     1.182e-01  
    6     5.438e-02  
    7     1.546e-02  
    8     3.764e-03  
    9     1.369e-03  
   10     2.055e-04  
   11     1.103e-04  
   12     2.823e-05  
   13     1.626e-05  
   14     5.713e-06  
   15     2.674e-06  
   16     7.973e-07  Converged.
   ... Converged in 16 steps (norm: 7.97306e-07)
------------------------------------
  Starting TPA DIIS iterations ... 
------------------------------------ 
   It     Res. Norm  Remark
------------------------------------
                       Guess.
    1     7.433e-01  
    2     5.679e-01  
    3     2.205e-01  
    4     1.156e-01  
    5     2.680e-02  
    6     1.049e-02  
    7     2.030e-03  
    8     9.499e-04  
    9     2.896e-04  
   10     3.779e-05  
   11     1.642e-05  
   12     5.460e-06  
   13     4.069e-06  
   14     2.086e-06  
   15     9.614e-07  Converged.
   ... Converged in 15 steps (norm: 9.61372e-07)
------------------------------------
  Starting TPA DIIS iterations ... 
------------------------------------ 
   It     Res. Norm  Remark
------------------------------------
                       Guess.
    1     6.560e+00  
    2     9.952e+00  
    3     1.701e+00  
    4     5.265e-01  
    5     1.390e-01  
    6     6.427e-02  
    7     1.851e-02  
    8     4.471e-03  
    9     1.637e-03  
   10     2.525e-04  
   11     1.372e-04  
   12     3.692e-05  
   13     2.114e-05  
   14     7.609e-06  
   15     3.772e-06  
   16     1.136e-06  
   17     5.701e-07  Converged.
   ... Converged in 17 steps (norm: 5.70143e-07)
------------------------------------
  Starting TPA DIIS iterations ... 
------------------------------------ 
   It     Res. Norm  Remark
------------------------------------
                       Guess.
    1     6.240e+00  
    2     9.456e+00  
    3     1.621e+00  
    4     5.195e-01  
    5     1.386e-01  
    6     6.472e-02  
    7     1.824e-02  
    8     4.578e-03  
    9     1.649e-03  
   10     2.460e-04  
   11     1.374e-04  
   12     3.644e-05  
   13     2.156e-05  
   14     7.772e-06  
   15     3.703e-06  
   16     1.114e-06  
   17     5.587e-07  Converged.
   ... Converged in 17 steps (norm: 5.58732e-07)
------------------------------------
  Starting TPA DIIS iterations ... 
------------------------------------ 
   It     Res. Norm  Remark
------------------------------------
                       Guess.
    1     7.596e-01  
    2     5.951e-01  
    3     2.374e-01  
    4     1.372e-01  
    5     2.969e-02  
    6     1.196e-02  
    7     2.421e-03  
    8     1.128e-03  
    9     3.459e-04  
   10     4.462e-05  
   11     2.035e-05  
   12     6.910e-06  
   13     5.416e-06  
   14     2.855e-06  
   15     1.347e-06  
   16     5.255e-07  Converged.
   ... Converged in 16 steps (norm: 5.2546e-07)
------------------------------------
  Starting TPA DIIS iterations ... 
------------------------------------ 
   It     Res. Norm  Remark
------------------------------------
                       Guess.
    1     8.344e+00  
    2     1.367e+01  
    3     2.192e+00  
    4     7.825e-01  
    5     2.107e-01  
    6     1.012e-01  
    7     2.847e-02  
    8     7.519e-03  
    9     2.653e-03  
   10     4.050e-04  
   11     2.428e-04  
   12     7.102e-05  
   13     4.346e-05  
   14     1.685e-05  
   15     8.727e-06  
   16     2.914e-06  
   17     1.203e-06  
   18     4.282e-07  Converged.
   ... Converged in 18 steps (norm: 4.28191e-07)
------------------------------------
  Starting TPA DIIS iterations ... 
------------------------------------ 
   It     Res. Norm  Remark
------------------------------------
                       Guess.
    1     7.933e+00  
    2     1.299e+01  
    3     2.088e+00  
    4     7.691e-01  
    5     2.101e-01  
    6     1.022e-01  
    7     2.809e-02  
    8     7.707e-03  
    9     2.663e-03  
   10     3.961e-04  
   11     2.429e-04  
   12     7.053e-05  
   13     4.415e-05  
   14     1.712e-05  
   15     8.568e-06  
   16     2.925e-06  
   17     1.168e-06  
   18     4.225e-07  Converged.
   ... Converged in 18 steps (norm: 4.22525e-07)
------------------------------------
  Starting TPA DIIS iterations ... 
------------------------------------ 
   It     Res. Norm  Remark
------------------------------------
                       Guess.
    1     8.029e-01  
    2     6.740e-01  
    3     2.887e-01  
    4     2.132e-01  
    5     3.946e-02  
    6     1.708e-02  
    7     3.884e-03  
    8     1.593e-03  
    9     5.189e-04  
   10     7.898e-05  
   11     3.594e-05  
   12     1.319e-05  
   13     1.116e-05  
   14     6.176e-06  
   15     3.126e-06  
   16     1.238e-06  
   17     2.630e-07  Converged.
   ... Converged in 17 steps (norm: 2.62954e-07)
------------------------------------
  Starting TPA DIIS iterations ... 
------------------------------------ 
   It     Res. Norm  Remark
------------------------------------
                       Guess.
    1     1.014e+01  
    2     1.768e+01  
    3     2.676e+00  
    4     1.069e+00  
    5     2.915e-01  
    6     1.443e-01  
    7     3.978e-02  
    8     1.137e-02  
    9     3.829e-03  
   10     5.890e-04  
   11     3.755e-04  
   12     1.173e-04  
   13     7.453e-05  
   14     3.093e-05  
   15     1.655e-05  
   16     6.226e-06  
   17     2.180e-06  
   18     1.104e-06  
   19     3.723e-07  Converged.
   ... Converged in 19 steps (norm: 3.72324e-07)
------------------------------------
  Starting TPA DIIS iterations ... 
------------------------------------ 
   It     Res. Norm  Remark
------------------------------------
                       Guess.
    1     9.641e+00  
    2     1.680e+01  
    3     2.548e+00  
    4     1.047e+00  
    5     2.907e-01  
    6     1.460e-01  
    7     3.927e-02  
    8     1.165e-02  
    9     3.836e-03  
   10     5.778e-04  
   11     3.754e-04  
   12     1.171e-04  
   13     7.537e-05  
   14     3.123e-05  
   15     1.626e-05  
   16     6.210e-06  
   17     2.118e-06  
   18     1.105e-06  
   19     3.727e-07  Converged.
   ... Converged in 19 steps (norm: 3.72696e-07)
------------------------------------
  Starting TPA DIIS iterations ... 
------------------------------------ 
   It     Res. Norm  Remark
------------------------------------
                       Guess.
    1     8.373e-01  
    2     7.442e-01  
    3     3.367e-01  
    4     2.930e-01  
    5     5.005e-02  
    6     2.258e-02  
    7     5.608e-03  
    8     1.862e-03  
    9     6.814e-04  
   10     1.252e-04  
   11     5.586e-05  
   12     2.242e-05  
   13     1.879e-05  
   14     1.081e-05  
   15     5.758e-06  
   16     2.360e-06  
   17     4.667e-07  Converged.
   ... Converged in 17 steps (norm: 4.66734e-07)
------------------------------------
  Starting TPA DIIS iterations ... 
------------------------------------ 
   It     Res. Norm  Remark
------------------------------------
                       Guess.
    1     1.122e+01  
    2     2.019e+01  
    3     2.959e+00  
    4     1.250e+00  
    5     3.432e-01  
    6     1.725e-01  
    7     4.705e-02  
    8     1.403e-02  
    9     4.591e-03  
   10     7.118e-04  
   11     4.662e-04  
   12     1.506e-04  
   13     9.702e-05  
   14     4.176e-05  
   15     2.265e-05  
   16     9.023e-06  
   17     3.032e-06  
   18     1.791e-06  
   19     6.092e-07  Converged.
   ... Converged in 19 steps (norm: 6.09207e-07)
------------------------------------
  Starting TPA DIIS iterations ... 
------------------------------------ 
   It     Res. Norm  Remark
------------------------------------
                       Guess.
    1     1.066e+01  
    2     1.918e+01  
    3     2.817e+00  
    4     1.223e+00  
    5     3.423e-01  
    6     1.747e-01  
    7     4.646e-02  
    8     1.436e-02  
    9     4.594e-03  
   10     6.995e-04  
   11     4.659e-04  
   12     1.507e-04  
   13     9.790e-05  
   14     4.199e-05  
   15     2.227e-05  
   16     8.951e-06  
   17     2.951e-06  
   18     1.793e-06  
   19     6.026e-07  Converged.
   ... Converged in 19 steps (norm: 6.0258e-07)
------------------------------------
  Starting TPA DIIS iterations ... 
------------------------------------ 
   It     Res. Norm  Remark
------------------------------------
                       Guess.
    1     8.548e-01  
    2     7.830e-01  
    3     3.639e-01  
    4     3.388e-01  
    5     5.663e-02  
    6     2.586e-02  
    7     6.715e-03  
    8     1.957e-03  
    9     7.744e-04  
   10     1.556e-04  
   11     6.949e-05  
   12     2.936e-05  
   13     2.417e-05  
   14     1.415e-05  
   15     7.722e-06  
   16     3.206e-06  
   17     6.047e-07  Converged.
   ... Converged in 17 steps (norm: 6.04675e-07)
------------------------------------
  Starting TPA DIIS iterations ... 
------------------------------------ 
   It     Res. Norm  Remark
------------------------------------
                       Guess.
    1     1.162e+01  
    2     2.115e+01  
    3     3.065e+00  
    4     1.320e+00  
    5     3.633e-01  
    6     1.836e-01  
    7     4.989e-02  
    8     1.510e-02  
    9     4.888e-03  
   10     7.605e-04  
   11     5.026e-04  
   12     1.642e-04  
   13     1.063e-04  
   14     4.633e-05  
   15     2.524e-05  
   16     1.025e-05  
   17     3.421e-06  
   18     2.122e-06  
   19     7.657e-07  Converged.
   ... Converged in 19 steps (norm: 7.65743e-07)
------------------------------------
  Starting TPA DIIS iterations ... 
------------------------------------ 
   It     Res. Norm  Remark
------------------------------------
                       Guess.
    1     1.104e+01  
    2     2.009e+01  
    3     2.917e+00  
    4     1.290e+00  
    5     3.624e-01  
    6     1.860e-01  
    7     4.927e-02  
    8     1.545e-02  
    9     4.890e-03  
   10     7.477e-04  
   11     5.022e-04  
   12     1.645e-04  
   13     1.071e-04  
   14     4.651e-05  
   15     2.482e-05  
   16     1.015e-05  
   17     3.331e-06  
   18     2.122e-06  
   19     7.490e-07  Converged.
   ... Converged in 19 steps (norm: 7.48992e-07)
------------------------------------
  Starting TPA DIIS iterations ... 
------------------------------------ 
   It     Res. Norm  Remark
------------------------------------
                       Guess.
    1     8.609e-01  
    2     7.971e-01  
    3     3.739e-01  
    4     3.554e-01  
    5     5.914e-02  
    6     2.708e-02  
    7     7.143e-03  
    8     1.985e-03  
    9     8.090e-04  
   10     1.674e-04  
   11     7.495e-05  
   12     3.225e-05  
   13     2.639e-05  
   14     1.553e-05  
   15     8.539e-06  
   16     3.555e-06  
   17     6.578e-07  Converged.
   ... Converged in 17 steps (norm: 6.5783e-07)
------------------------------------
  Two-photon absorbption ...  CPU 180.62 s  wall 48.20 s
  Transition density matrix of state singlet_A_1 printed to ASCII file 'State_singlet_A_1_Transition.txt'
  Transition density matrix of state singlet_A_2 printed to ASCII file 'State_singlet_A_2_Transition.txt'
  Transition density matrix of state singlet_A_3 printed to ASCII file 'State_singlet_A_3_Transition.txt'
  Transition density matrix of state singlet_A_4 printed to ASCII file 'State_singlet_A_4_Transition.txt'
  Transition density matrix of state singlet_A_5 printed to ASCII file 'State_singlet_A_5_Transition.txt'
  Transition density matrix of state singlet_A_6 printed to ASCII file 'State_singlet_A_6_Transition.txt'
  Transition density matrix of state singlet_A_7 printed to ASCII file 'State_singlet_A_7_Transition.txt'
  Transition density matrix of state singlet_A_8 printed to ASCII file 'State_singlet_A_8_Transition.txt'
  Transition density matrix of state singlet_A_9 printed to ASCII file 'State_singlet_A_9_Transition.txt'
  Transition density matrix of state singlet_A_10 printed to ASCII file 'State_singlet_A_10_Transition.txt'
  Transition properties ...  CPU 0.35 s  wall 0.72 s
  Difference density matrix of state singlet_A_1 printed to ASCII file 'State_singlet_A_1_Difference.txt'
  Total density matrix of state singlet_A_1 printed to ASCII file 'State_singlet_A_1_Total.txt'
  Difference density matrix of state singlet_A_2 printed to ASCII file 'State_singlet_A_2_Difference.txt'
  Total density matrix of state singlet_A_2 printed to ASCII file 'State_singlet_A_2_Total.txt'
  Difference density matrix of state singlet_A_3 printed to ASCII file 'State_singlet_A_3_Difference.txt'
  Total density matrix of state singlet_A_3 printed to ASCII file 'State_singlet_A_3_Total.txt'
  Difference density matrix of state singlet_A_4 printed to ASCII file 'State_singlet_A_4_Difference.txt'
  Total density matrix of state singlet_A_4 printed to ASCII file 'State_singlet_A_4_Total.txt'
  Difference density matrix of state singlet_A_5 printed to ASCII file 'State_singlet_A_5_Difference.txt'
  Total density matrix of state singlet_A_5 printed to ASCII file 'State_singlet_A_5_Total.txt'
  Difference density matrix of state singlet_A_6 printed to ASCII file 'State_singlet_A_6_Difference.txt'
  Total density matrix of state singlet_A_6 printed to ASCII file 'State_singlet_A_6_Total.txt'
  Difference density matrix of state singlet_A_7 printed to ASCII file 'State_singlet_A_7_Difference.txt'
  Total density matrix of state singlet_A_7 printed to ASCII file 'State_singlet_A_7_Total.txt'
  Difference density matrix of state singlet_A_8 printed to ASCII file 'State_singlet_A_8_Difference.txt'
  Total density matrix of state singlet_A_8 printed to ASCII file 'State_singlet_A_8_Total.txt'
  Difference density matrix of state singlet_A_9 printed to ASCII file 'State_singlet_A_9_Difference.txt'
  Total density matrix of state singlet_A_9 printed to ASCII file 'State_singlet_A_9_Total.txt'
  Difference density matrix of state singlet_A_10 printed to ASCII file 'State_singlet_A_10_Difference.txt'
  Total density matrix of state singlet_A_10 printed to ASCII file 'State_singlet_A_10_Total.txt'
  Properties ...  CPU 0.65 s  wall 1.12 s
  ISR TDMS ...  CPU 32.28 s  wall 10.10 s
  ISR transition properties ...  CPU 0.53 s  wall 0.26 s
  Sum-over-states TPA ...  CPU 0.00 s  wall 0.00 s

--------------------------------------------------------------------------------
                   State-averaged natural transition orbitals
--------------------------------------------------------------------------------
--------------------------------------------------------------------------------
  SA-NTO decomposition ...  CPU 0.01 s  wall 0.03 s

--------------------------------------------------------------------------------
                             Excited State Summary
--------------------------------------------------------------------------------
--------------------------------------------------------------------------------

  Excited state 1 (singlet, A)                                     [converged]
  ----------------------------------------------------------------------------
  Term symbol:  2 (1) A                                     R^2 =  1.28155e-11

  Total energy:                                            -77.9995193427 a.u.
  Excitation energy:                                               8.703465 eV

  Osc. strength:                                                      0.439221
  Trans. dip. moment [a.u.]:           [  -1.040683,    0.988293,    0.009545]
  <i|r^2|0> [a.u.]:                    [  -6.126118,    0.225768,    0.002990]
  Two-photon absorption cross-section (SoS) [a.u.]:                   0.054821
  Two-photon absorption matrix (SoS) [a.u.]:
                                       |   -0.004729   -0.000847    0.059990 |
                                       |   -0.000847    0.005519   -0.056795 |
                                       |    0.059990   -0.056795   -0.001421 |
  Two-photon absorption cross-section [a.u.]:                         0.201877
  Two-photon absorption matrix [a.u.]:
                                       |   -0.009397   -0.001560    0.114287 |
                                       |   -0.001560    0.011091   -0.109826 |
                                       |    0.114287   -0.109826   -0.002457 |

  Dip. moment [a.u.]:                  [  -0.003518,   -0.004645,    0.076323]
  Total dipole [Debye]:                                               0.194559
  <r^2> [a.u.]:                        [ 176.554804,   36.033496,   11.961830]
  Total <r^2> [a.u.]:                                               224.550131

  V1^2 = 0.9711, V2^2 = 0.0289

  Important amplitudes:
      occ i     occ j     vir a      vir b          v   
    -----------------------------------------------------
     8 (A) A              9 (A) A                 0.6801
     6 (A) A             14 (A) A                 0.0618
     4 (A) A             10 (A) A                -0.0609
     7 (A) A             16 (A) A                 0.0569
     5 (A) A             13 (A) A                 0.0525
     6 (A) A             23 (A) A                 0.0483
     8 (A) A             20 (A) A                 0.0340
     6 (A) A              9 (A) A                 0.0320
     6 (A) A             19 (A) A                -0.0300
     3 (A) A             12 (A) A                -0.0278
     5 (A) A             22 (A) A                 0.0217
     4 (A) A             24 (A) A                -0.0187
     3 (A) A             27 (A) A                -0.0186
     7 (A) A             11 (A) A                 0.0184
     8 (A) A   8 (A) B   17 (A) A   20 (A) B     -0.0181
     8 (A) A   8 (A) B    9 (A) A   28 (A) B     -0.0166
     6 (A) A             27 (A) A                -0.0162
     7 (A) A             21 (A) A                -0.0150
     6 (A) A             12 (A) A                 0.0145
     3 (A) A             14 (A) A                 0.0143
     3 (A) A   4 (A) B    9 (A) A    9 (A) B      0.0129
     3 (A) A             19 (A) A                -0.0121
     8 (A) A   8 (A) B   18 (A) A   19 (A) B      0.0110
     3 (A) A              9 (A) A                 0.0108
     7 (A) A             32 (A) A                -0.0096
     7 (A) A             36 (A) A                 0.0083
     3 (A) A             23 (A) A                 0.0083
     8 (A) A             14 (A) A                 0.0070
     8 (A) A             19 (A) A                -0.0068
     3 (A) A   6 (A) B    9 (A) A   28 (A) B     -0.0064
     6 (A) A             35 (A) A                -0.0063
     5 (A) A   8 (A) B   11 (A) A    9 (A) B     -0.0062
     8 (A) A   8 (A) B   25 (A) A   29 (A) B      0.0061
     7 (A) A   8 (A) B   13 (A) A   20 (A) B      0.0059
     5 (A) A   7 (A) B    9 (A) A    9 (A) B      0.0059
     5 (A) A   8 (A) B   11 (A) A   20 (A) B      0.0059
     6 (A) A   8 (A) A   19 (A) A   28 (A) A     -0.0059
     5 (A) A   8 (A) B   16 (A) A    9 (A) B      0.0059
     3 (A) A   5 (A) B    9 (A) A   25 (A) B     -0.0058
     7 (A) A   8 (A) B   22 (A) A   20 (A) B      0.0056
    -----------------------------------------------------

  Density matrix analysis:
  ------------------------
  NOs
    Occupation of frontier NOs:
       0.9498   1.0214
    Number of electrons: 16.000000
    Number of unpaired electrons: n_u =  2.31731, n_u,nl =  2.03331
    NO participation ratio (PR_NO):  2.871831
  
  
  Mulliken Population Analysis
  Atom      Charge (e)              h+              e-           Del q
  --------------------------------------------------------------------
   1 H        0.062801        0.020615       -0.013360        0.007256
   2 C       -0.125591        0.491285       -0.505798       -0.014513
   3 H        0.062830        0.020626       -0.013350        0.007276
   4 C       -0.125632        0.491288       -0.505793       -0.014505
   5 H        0.062815        0.020630       -0.013375        0.007256
   6 H        0.062777        0.020614       -0.013383        0.007231
  --------------------------------------------------------------------
  Sum:       -0.000000        1.065059       -1.065059        0.000000
  
  Multipole moment analysis of the density matrix
    Molecular charge:                      -0.000000
    Number of electrons:                   16.000000
      Center of electronic charge [Ang]: [ -1.560929,  -0.064759,  -0.007216]
    Total nuclear charge:                  16.000000
      Center of nuclear charge [Ang]:    [ -1.561045,  -0.064912,  -0.004692]
    Dipole moment [D]:                     0.194559
      Cartesian components [D]:          [ -0.008941,  -0.011806,   0.193995]
    RMS size of the density [Ang]:         1.220361
      Cartesian components [Ang]:        [  0.808408,   0.791490,   0.457495]
  
  Exciton analysis of the difference density matrix
    <r_h> [Ang]:                  [ -1.559504,  -0.062954,  -0.037708]
    <r_e> [Ang]:                  [ -1.559245,  -0.062539,  -0.044364]
    |<r_e - r_h>| [Ang]:            0.006674
    Hole size [Ang]:                1.288436
      Cartesian components [Ang]: [  0.732829,   0.717384,   0.779992]
    Electron size [Ang]:            1.466129
      Cartesian components [Ang]: [  0.857125,   0.834552,   0.847581]

  Transition density matrix analysis:
  -----------------------------------
  
  CT numbers (Mulliken)
    omega =     0.9528
    <Phe> =    -0.1603
  
  Exciton analysis of the transition density matrix
    Trans. dipole moment [D]:             1.823973
      Cartesian components [D]:         [ -1.322575,   1.255995,   0.012130]
    <r_h> [Ang]:                        [ -1.559781,  -0.063316,  -0.031973]
    <r_e> [Ang]:                        [ -1.558987,  -0.062211,  -0.049704]
    |<r_e - r_h>| [Ang]:                  0.017783
    Hole size [Ang]:                      1.214954
      Cartesian components [Ang]:       [  0.652244,   0.639361,   0.801192]
    Electron size [Ang]:                  1.489786
      Cartesian components [Ang]:       [  0.868044,   0.843908,   0.868206]
    RMS electron-hole separation [Ang]:   1.940392
      Cartesian components [Ang]:       [  1.111080,   1.080676,   1.167374]
    Covariance(r_h, r_e) [Ang^2]:        -0.034615
    Correlation coefficient:             -0.019124
    Center-of-mass size [Ang]:            0.952148
      Cartesian components [Ang]:       [  0.529941,   0.518186,   0.597690]

  Decomposition into state-averaged NTOs
    H- 0 -> L+ 0:  0.6688 ( 89.5%)
    H- 2 -> L+ 5: -0.0825 (  1.4%)
                   omega =  95.3%
  ----------------------------------------------------------------------------


  Excited state 2 (singlet, A)                                     [converged]
  ----------------------------------------------------------------------------
  Term symbol:  3 (1) A                                     R^2 =  4.96908e-10

  Total energy:                                            -77.9918994859 a.u.
  Excitation energy:                                               8.910812 eV

  Osc. strength:                                                      0.000480
  Trans. dip. moment [a.u.]:           [  -0.030549,   -0.035319,   -0.004432]
  <i|r^2|0> [a.u.]:                    [  -0.246633,   -0.095433,    0.152826]
  Two-photon absorption cross-section (SoS) [a.u.]:                   3.850364
  Two-photon absorption matrix (SoS) [a.u.]:
                                       |   -0.046163   -0.052987    0.472180 |
                                       |   -0.052987   -0.060098    0.496917 |
                                       |    0.472180    0.496917    0.107108 |
  Two-photon absorption cross-section [a.u.]:                         0.205331
  Two-photon absorption matrix [a.u.]:
                                       |    0.009062    0.011883   -0.109456 |
                                       |    0.011883    0.016080   -0.114400 |
                                       |   -0.109456   -0.114400   -0.023937 |

  Dip. moment [a.u.]:                  [  -0.007540,   -0.009110,    0.143243]
  Total dipole [Debye]:                                               0.365326
  <r^2> [a.u.]:                        [ 174.840424,   34.352633,   13.257724]
  Total <r^2> [a.u.]:                                               222.450781

  V1^2 = 0.9539, V2^2 = 0.0461

  Important amplitudes:
      occ i     occ j     vir a      vir b          v   
    -----------------------------------------------------
     7 (A) A              9 (A) A                -0.6692
     8 (A) A             11 (A) A                -0.1462
     7 (A) A             20 (A) A                -0.0751
     5 (A) A   8 (A) B    9 (A) A    9 (A) B     -0.0315
     8 (A) A             16 (A) A                 0.0274
     7 (A) A             12 (A) A                -0.0232
     8 (A) A             21 (A) A                 0.0172
     5 (A) A             28 (A) A                -0.0150
     4 (A) A   7 (A) B    9 (A) A   19 (A) B      0.0135
     5 (A) A   7 (A) B    9 (A) A   16 (A) B      0.0134
     7 (A) A   8 (A) B   20 (A) A   17 (A) B      0.0105
     7 (A) A   8 (A) A    9 (A) A   28 (A) A     -0.0098
     5 (A) A   8 (A) B    9 (A) A   20 (A) B     -0.0095
     4 (A) A   6 (A) B    9 (A) A   16 (A) B     -0.0091
     5 (A) A   6 (A) A    9 (A) A   23 (A) A      0.0090
     5 (A) A   6 (A) A    9 (A) A   14 (A) A      0.0089
     4 (A) A   5 (A) A    9 (A) A   10 (A) A      0.0085
     8 (A) A   7 (A) B    9 (A) A   28 (A) B      0.0085
     5 (A) A   6 (A) B    9 (A) A   19 (A) B     -0.0085
     6 (A) A   7 (A) B    9 (A) A   18 (A) B      0.0084
     5 (A) A   6 (A) B    9 (A) A   23 (A) B      0.0080
     3 (A) A   7 (A) B    9 (A) A   18 (A) B     -0.0080
     5 (A) A   7 (A) A    9 (A) A   16 (A) A      0.0078
     4 (A) A   8 (A) B    9 (A) A   25 (A) B      0.0076
     7 (A) A             14 (A) A                -0.0076
     4 (A) A   7 (A) B   19 (A) A    9 (A) B      0.0075
     7 (A) A   8 (A) B   17 (A) A   20 (A) B      0.0074
     5 (A) A   5 (A) B    9 (A) A   13 (A) B      0.0073
     7 (A) A   8 (A) B   19 (A) A   18 (A) B     -0.0070
     5 (A) A   8 (A) A    9 (A) A   20 (A) A     -0.0069
     4 (A) A   5 (A) B    9 (A) A   18 (A) B     -0.0069
     7 (A) A             19 (A) A                 0.0066
     7 (A) A   7 (A) B   20 (A) A   22 (A) B     -0.0065
     5 (A) A   6 (A) B    9 (A) A   14 (A) B      0.0063
     7 (A) A   8 (A) B   17 (A) A    9 (A) B      0.0063
     5 (A) A   7 (A) B   11 (A) A   20 (A) B     -0.0061
     4 (A) A   5 (A) B   10 (A) A    9 (A) B     -0.0061
     4 (A) A   7 (A) A    9 (A) A   19 (A) A      0.0061
     5 (A) A             38 (A) A                -0.0059
     4 (A) A   6 (A) B   16 (A) A    9 (A) B     -0.0058
    -----------------------------------------------------

  Density matrix analysis:
  ------------------------
  NOs
    Occupation of frontier NOs:
       0.9593   1.0521
    Number of electrons: 16.000000
    Number of unpaired electrons: n_u =  2.35896, n_u,nl =  2.06283
    NO participation ratio (PR_NO):  3.027804
  
  
  Mulliken Population Analysis
  Atom      Charge (e)              h+              e-           Del q
  --------------------------------------------------------------------
   1 H        0.156214        0.125453       -0.024784        0.100669
   2 C       -0.312696        0.272858       -0.474477       -0.201619
   3 H        0.156457        0.125173       -0.024271        0.100902
   4 C       -0.312715        0.272917       -0.474505       -0.201588
   5 H        0.156199        0.125458       -0.024819        0.100639
   6 H        0.156542        0.125237       -0.024240        0.100996
  --------------------------------------------------------------------
  Sum:       -0.000000        1.047096       -1.047096        0.000000
  
  Multipole moment analysis of the density matrix
    Molecular charge:                      -0.000000
    Number of electrons:                   16.000000
      Center of electronic charge [Ang]: [ -1.560796,  -0.064611,  -0.009430]
    Total nuclear charge:                  16.000000
      Center of nuclear charge [Ang]:    [ -1.561045,  -0.064912,  -0.004692]
    Dipole moment [D]:                     0.365326
      Cartesian components [D]:          [ -0.019165,  -0.023155,   0.364087]
    RMS size of the density [Ang]:         1.205378
      Cartesian components [Ang]:        [  0.789895,   0.772695,   0.481607]
  
  Exciton analysis of the difference density matrix
    <r_h> [Ang]:                  [ -1.561087,  -0.064857,   0.002959]
    <r_e> [Ang]:                  [ -1.558791,  -0.062179,  -0.037631]
    |<r_e - r_h>| [Ang]:            0.040743
    Hole size [Ang]:                1.497040
      Cartesian components [Ang]: [  1.014705,   1.001977,   0.455570]
    Electron size [Ang]:            1.477612
      Cartesian components [Ang]: [  0.882327,   0.860048,   0.815569]

  Transition density matrix analysis:
  -----------------------------------
  
  CT numbers (Mulliken)
    omega =     0.9211
    <Phe> =    -0.0118
  
  Exciton analysis of the transition density matrix
    Trans. dipole moment [D]:             0.059613
      Cartesian components [D]:         [ -0.038823,  -0.044886,  -0.005632]
    <r_h> [Ang]:                        [ -1.561498,  -0.065349,   0.012071]
    <r_e> [Ang]:                        [ -1.558307,  -0.061592,  -0.047529]
    |<r_e - r_h>| [Ang]:                  0.059804
    Hole size [Ang]:                      1.528901
      Cartesian components [Ang]:       [  1.040312,   1.027540,   0.446599]
    Electron size [Ang]:                  1.472595
      Cartesian components [Ang]:       [  0.870913,   0.847842,   0.831391]
    RMS electron-hole separation [Ang]:   2.103760
      Cartesian components [Ang]:       [  1.340726,   1.317163,   0.945168]
    Covariance(r_h, r_e) [Ang^2]:         0.041922
    Correlation coefficient:              0.018620
    Center-of-mass size [Ang]:            1.071205
      Cartesian components [Ang]:       [  0.686283,   0.673507,   0.472105]

  Decomposition into state-averaged NTOs
    H- 1 -> L+ 0: -0.6618 ( 87.6%)
    H- 0 -> L+ 2: -0.1461 (  4.3%)
                   omega =  92.1%
  ----------------------------------------------------------------------------


  Excited state 3 (singlet, A)                                     [converged]
  ----------------------------------------------------------------------------
  Term symbol:  4 (1) A                                     R^2 =  3.25620e-11

  Total energy:                                            -77.9835415524 a.u.
  Excitation energy:                                               9.138243 eV

  Osc. strength:                                                      0.023433
  Trans. dip. moment [a.u.]:           [   0.015253,    0.019894,   -0.322550]
  <i|r^2|0> [a.u.]:                    [   0.045668,   -0.042328,    0.018126]
  Two-photon absorption cross-section (SoS) [a.u.]:                   2.628798
  Two-photon absorption matrix (SoS) [a.u.]:
                                       |    0.115577   -0.029372   -0.016065 |
                                       |   -0.029372    0.104907   -0.021456 |
                                       |   -0.016065   -0.021456    0.566020 |
  Two-photon absorption cross-section [a.u.]:                         3.284416
  Two-photon absorption matrix [a.u.]:
                                       |    0.325178   -0.114623   -0.001767 |
                                       |   -0.114623    0.307584   -0.001196 |
                                       |   -0.001767   -0.001196    0.343461 |

  Dip. moment [a.u.]:                  [  -0.002850,   -0.002155,   -0.084608]
  Total dipole [Debye]:                                               0.215244
  <r^2> [a.u.]:                        [ 181.315059,   41.001133,   11.106317]
  Total <r^2> [a.u.]:                                               233.422509

  V1^2 = 0.9579, V2^2 = 0.0421

  Important amplitudes:
      occ i     occ j     vir a      vir b          v   
    -----------------------------------------------------
     8 (A) A             10 (A) A                 0.6887
     8 (A) A             24 (A) A                 0.0507
     8 (A) A             18 (A) A                -0.0330
     4 (A) A              9 (A) A                -0.0247
     8 (A) A   8 (A) B    9 (A) A   12 (A) B     -0.0220
     8 (A) A   8 (A) B   10 (A) A   17 (A) B      0.0170
     5 (A) A   8 (A) B   11 (A) A   10 (A) B     -0.0170
     8 (A) A             15 (A) A                -0.0146
     7 (A) A   8 (A) B   13 (A) A   10 (A) B     -0.0144
     4 (A) A   8 (A) B   12 (A) A   10 (A) B      0.0112
     6 (A) A   8 (A) A   10 (A) A   15 (A) A      0.0112
     7 (A) A   8 (A) B   22 (A) A   10 (A) B     -0.0109
     6 (A) A   8 (A) B   15 (A) A   10 (A) B     -0.0109
     4 (A) A   8 (A) A   10 (A) A   12 (A) A     -0.0108
     7 (A) A   8 (A) A   10 (A) A   22 (A) A      0.0099
     7 (A) A   8 (A) A   10 (A) A   13 (A) A      0.0099
     5 (A) A   8 (A) A   10 (A) A   11 (A) A      0.0098
     5 (A) A   8 (A) B   21 (A) A   10 (A) B      0.0094
     6 (A) A   8 (A) B   10 (A) A   10 (A) B     -0.0090
     6 (A) A   8 (A) A   10 (A) A   18 (A) A     -0.0084
     7 (A) A   8 (A) A   12 (A) A   16 (A) A     -0.0083
     3 (A) A   4 (A) B   10 (A) A    9 (A) B      0.0079
     5 (A) A   8 (A) A   10 (A) A   21 (A) A     -0.0079
     8 (A) A   8 (A) B    9 (A) A   23 (A) B     -0.0075
     4 (A) A   8 (A) B   19 (A) A   10 (A) B      0.0075
     8 (A) A   8 (A) B   10 (A) A   28 (A) B     -0.0073
     5 (A) A   8 (A) B   10 (A) A   11 (A) B     -0.0072
     3 (A) A   8 (A) A   10 (A) A   24 (A) A     -0.0072
     7 (A) A   8 (A) B   16 (A) A   12 (A) B      0.0072
     3 (A) A   8 (A) B   10 (A) A   10 (A) B      0.0071
     8 (A) A   8 (A) B    9 (A) A   19 (A) B     -0.0070
     3 (A) A   8 (A) B   10 (A) A   18 (A) B     -0.0066
     6 (A) A   8 (A) B   18 (A) A   10 (A) B      0.0064
     3 (A) A   6 (A) B   10 (A) A   28 (A) B     -0.0061
     7 (A) A   8 (A) B   12 (A) A   11 (A) B     -0.0059
     6 (A) A             28 (A) A                 0.0057
     5 (A) A   8 (A) A   10 (A) A   16 (A) A     -0.0057
     3 (A) A   5 (A) B   10 (A) A   25 (A) B     -0.0056
     6 (A) A   8 (A) A   11 (A) A   16 (A) A     -0.0055
     4 (A) A   8 (A) A   10 (A) A   23 (A) A     -0.0055
    -----------------------------------------------------

  Density matrix analysis:
  ------------------------
  NOs
    Occupation of frontier NOs:
       0.9803   0.9855
    Number of electrons: 16.000000
    Number of unpaired electrons: n_u =  2.28930, n_u,nl =  2.02516
    NO participation ratio (PR_NO):  2.702950
  
  
  Mulliken Population Analysis
  Atom      Charge (e)              h+              e-           Del q
  --------------------------------------------------------------------
   1 H       -0.155288        0.054412       -0.265245       -0.210833
   2 C        0.308272        0.538004       -0.118654        0.419350
   3 H       -0.152977        0.054464       -0.262995       -0.208532
   4 C        0.308227        0.537998       -0.118644        0.419355
   5 H       -0.155257        0.054418       -0.265234       -0.210816
   6 H       -0.152978        0.054465       -0.262988       -0.208523
  --------------------------------------------------------------------
  Sum:       -0.000000        1.293761       -1.293761        0.000000
  
  Multipole moment analysis of the density matrix
    Molecular charge:                      -0.000000
    Number of electrons:                   16.000000
      Center of electronic charge [Ang]: [ -1.560951,  -0.064841,  -0.001894]
    Total nuclear charge:                  16.000000
      Center of nuclear charge [Ang]:    [ -1.561045,  -0.064912,  -0.004692]
    Dipole moment [D]:                     0.215244
      Cartesian components [D]:          [ -0.007244,  -0.005477,  -0.215052]
    RMS size of the density [Ang]:         1.282394
      Cartesian components [Ang]:        [  0.858352,   0.844623,   0.440882]
  
  Exciton analysis of the difference density matrix
    <r_h> [Ang]:                  [ -1.560056,  -0.063673,  -0.023781]
    <r_e> [Ang]:                  [ -1.560116,  -0.064350,   0.036564]
    |<r_e - r_h>| [Ang]:            0.060349
    Hole size [Ang]:                1.413593
      Cartesian components [Ang]: [  0.837419,   0.823498,   0.786655]
    Electron size [Ang]:            2.078526
      Cartesian components [Ang]: [  1.376024,   1.379468,   0.723804]

  Transition density matrix analysis:
  -----------------------------------
  
  CT numbers (Mulliken)
    omega =     0.9248
    <Phe> =    -0.0110
  
  Exciton analysis of the transition density matrix
    Trans. dipole moment [D]:             0.411156
      Cartesian components [D]:         [  0.019384,   0.025283,  -0.409920]
    <r_h> [Ang]:                        [ -1.559461,  -0.062875,  -0.041072]
    <r_e> [Ang]:                        [ -1.559886,  -0.064277,   0.052923]
    |<r_e - r_h>| [Ang]:                  0.094007
    Hole size [Ang]:                      1.213230
      Cartesian components [Ang]:       [  0.637722,   0.625083,   0.821285]
    Electron size [Ang]:                  2.300867
      Cartesian components [Ang]:       [  1.522471,   1.528585,   0.799687]
    RMS electron-hole separation [Ang]:   2.592682
      Cartesian components [Ang]:       [  1.642945,   1.644258,   1.148540]
    Covariance(r_h, r_e) [Ang^2]:         0.026377
    Correlation coefficient:              0.009449
    Center-of-mass size [Ang]:            1.305629
      Cartesian components [Ang]:       [  0.829148,   0.829310,   0.573957]

  Decomposition into state-averaged NTOs
    H- 0 -> L+ 1: -0.6793 ( 92.3%)
                   omega =  92.5%
  ----------------------------------------------------------------------------


  Excited state 4 (singlet, A)                                     [converged]
  ----------------------------------------------------------------------------
  Term symbol:  5 (1) A                                     R^2 =  2.89349e-11

  Total energy:                                            -77.9621199762 a.u.
  Excitation energy:                                               9.721154 eV

  Osc. strength:                                                      0.000012
  Trans. dip. moment [a.u.]:           [   0.004199,    0.005435,    0.001540]
  <i|r^2|0> [a.u.]:                    [   0.011391,   -0.016344,    0.031282]
  Two-photon absorption cross-section (SoS) [a.u.]:                 133.741110
  Two-photon absorption matrix (SoS) [a.u.]:
                                       |   -0.271130   -0.310616    2.784792 |
                                       |   -0.310616   -0.354555    2.927844 |
                                       |    2.784792    2.927844    0.623236 |
  Two-photon absorption cross-section [a.u.]:                        78.811882
  Two-photon absorption matrix [a.u.]:
                                       |   -0.210788   -0.238043    2.137556 |
                                       |   -0.238043   -0.271422    2.247674 |
                                       |    2.137556    2.247674    0.478714 |

  Dip. moment [a.u.]:                  [   0.012243,    0.013661,   -0.086439]
  Total dipole [Debye]:                                               0.224600
  <r^2> [a.u.]:                        [ 181.513034,   41.008940,   10.825032]
  Total <r^2> [a.u.]:                                               233.347006

  V1^2 = 0.9633, V2^2 = 0.0367

  Important amplitudes:
      occ i     occ j     vir a      vir b          v   
    -----------------------------------------------------
     8 (A) A             11 (A) A                -0.6698
     7 (A) A              9 (A) A                 0.1483
     8 (A) A             21 (A) A                 0.0780
     8 (A) A             16 (A) A                 0.0678
     8 (A) A   8 (A) B    9 (A) A   13 (A) B      0.0167
     5 (A) A   8 (A) B   11 (A) A   11 (A) B      0.0157
     8 (A) A   8 (A) B   11 (A) A   17 (A) B     -0.0136
     7 (A) A             20 (A) A                 0.0132
     7 (A) A   8 (A) B   13 (A) A   11 (A) B      0.0127
     8 (A) A   8 (A) B    9 (A) A   22 (A) B      0.0110
     4 (A) A   8 (A) B   12 (A) A   11 (A) B     -0.0110
     5 (A) A   8 (A) A   11 (A) A   21 (A) A      0.0110
     7 (A) A   8 (A) A   11 (A) A   22 (A) A     -0.0095
     6 (A) A   8 (A) B   10 (A) A   11 (A) B      0.0091
     6 (A) A   8 (A) B   15 (A) A   11 (A) B      0.0089
     7 (A) A   8 (A) B   22 (A) A   11 (A) B      0.0089
     3 (A) A   4 (A) B   11 (A) A    9 (A) B     -0.0083
     7 (A) A   8 (A) A   13 (A) A   16 (A) A      0.0079
     6 (A) A   8 (A) A   11 (A) A   15 (A) A     -0.0079
     3 (A) A   8 (A) B   11 (A) A   18 (A) B      0.0079
     7 (A) A   8 (A) A   11 (A) A   13 (A) A     -0.0075
     6 (A) A             11 (A) A                -0.0074
     4 (A) A   8 (A) B   19 (A) A   11 (A) B     -0.0069
     5 (A) A   8 (A) B   21 (A) A   11 (A) B     -0.0069
     5 (A) A   8 (A) B    9 (A) A    9 (A) B      0.0066
     4 (A) A   8 (A) A   11 (A) A   12 (A) A      0.0062
     3 (A) A   6 (A) B   11 (A) A   28 (A) B      0.0060
     6 (A) A   8 (A) A   11 (A) A   18 (A) A      0.0058
     6 (A) A   8 (A) B   18 (A) A   11 (A) B     -0.0057
     3 (A) A   8 (A) B   11 (A) A   30 (A) B      0.0057
     7 (A) A   8 (A) B   16 (A) A   13 (A) B     -0.0057
     5 (A) A   8 (A) B   10 (A) A   10 (A) B      0.0055
     6 (A) A   8 (A) B   11 (A) A   10 (A) B      0.0055
     8 (A) A   8 (A) B   20 (A) A   22 (A) B      0.0055
     7 (A) A   8 (A) B   12 (A) A   10 (A) B      0.0055
     3 (A) A   5 (A) B   11 (A) A   25 (A) B      0.0054
     3 (A) A   8 (A) A   11 (A) A   18 (A) A      0.0053
     3 (A) A   8 (A) A   11 (A) A   24 (A) A      0.0053
     5 (A) A   8 (A) A   11 (A) A   16 (A) A      0.0049
     6 (A) A   8 (A) A   10 (A) A   16 (A) A      0.0047
    -----------------------------------------------------

  Density matrix analysis:
  ------------------------
  NOs
    Occupation of frontier NOs:
       0.9418   1.0263
    Number of electrons: 16.000000
    Number of unpaired electrons: n_u =  2.32276, n_u,nl =  2.04903
    NO participation ratio (PR_NO):  2.915871
  
  
  Mulliken Population Analysis
  Atom      Charge (e)              h+              e-           Del q
  --------------------------------------------------------------------
   1 H       -0.123396        0.045622       -0.224563       -0.178941
   2 C        0.250079        0.496772       -0.135617        0.361156
   3 H       -0.126655        0.045639       -0.227848       -0.182209
   4 C        0.250011        0.496781       -0.135643        0.361138
   5 H       -0.123650        0.045611       -0.224821       -0.179210
   6 H       -0.126389        0.045653       -0.227587       -0.181934
  --------------------------------------------------------------------
  Sum:       -0.000000        1.176078       -1.176078        0.000000
  
  Multipole moment analysis of the density matrix
    Molecular charge:                      -0.000000
    Number of electrons:                   16.000000
      Center of electronic charge [Ang]: [ -1.561450,  -0.065364,  -0.001833]
    Total nuclear charge:                  16.000000
      Center of nuclear charge [Ang]:    [ -1.561045,  -0.064912,  -0.004692]
    Dipole moment [D]:                     0.224600
      Cartesian components [D]:          [  0.031120,   0.034723,  -0.219707]
    RMS size of the density [Ang]:         1.281244
      Cartesian components [Ang]:        [  0.859462,   0.844664,   0.435263]
  
  Exciton analysis of the difference density matrix
    <r_h> [Ang]:                  [ -1.560234,  -0.063821,  -0.027112]
    <r_e> [Ang]:                  [ -1.567091,  -0.071682,   0.040095]
    |<r_e - r_h>| [Ang]:            0.068012
    Hole size [Ang]:                1.394343
      Cartesian components [Ang]: [  0.819236,   0.805914,   0.789650]
    Electron size [Ang]:            2.111483
      Cartesian components [Ang]: [  1.417221,   1.413410,   0.672396]

  Transition density matrix analysis:
  -----------------------------------
  
  CT numbers (Mulliken)
    omega =     0.9291
    <Phe> =    -0.0145
  
  Exciton analysis of the transition density matrix
    Trans. dipole moment [D]:             0.008945
      Cartesian components [D]:         [  0.005337,   0.006907,   0.001957]
    <r_h> [Ang]:                        [ -1.559447,  -0.062877,  -0.038670]
    <r_e> [Ang]:                        [ -1.568269,  -0.073000,   0.049406]
    |<r_e - r_h>| [Ang]:                  0.089094
    Hole size [Ang]:                      1.228562
      Cartesian components [Ang]:       [  0.661755,   0.649182,   0.806231]
    Electron size [Ang]:                  2.246074
      Cartesian components [Ang]:       [  1.507492,   1.504737,   0.712799]
    RMS electron-hole separation [Ang]:   2.550505
      Cartesian components [Ang]:       [  1.637410,   1.630531,   1.079506]
    Covariance(r_h, r_e) [Ang^2]:         0.028537
    Correlation coefficient:              0.010342
    Center-of-mass size [Ang]:            1.285621
      Cartesian components [Ang]:       [  0.827627,   0.823531,   0.538193]

  Decomposition into state-averaged NTOs
    H- 0 -> L+ 2: -0.6652 ( 88.5%)
    H- 1 -> L+ 0:  0.1463 (  4.3%)
                   omega =  92.9%
  ----------------------------------------------------------------------------


  Excited state 5 (singlet, A)                                     [converged]
  ----------------------------------------------------------------------------
  Term symbol:  6 (1) A                                     R^2 =  6.40865e-11

  Total energy:                                            -77.9462951474 a.u.
  Excitation energy:                                              10.151769 eV

  Osc. strength:                                                      0.000306
  Trans. dip. moment [a.u.]:           [   0.025377,   -0.024242,   -0.000242]
  <i|r^2|0> [a.u.]:                    [   0.067252,    0.092384,   -0.016035]
  Two-photon absorption cross-section (SoS) [a.u.]:                 215.830692
  Two-photon absorption matrix (SoS) [a.u.]:
                                       |   -0.362718   -0.054054    3.758058 |
                                       |   -0.054054    0.429207   -3.562666 |
                                       |    3.758058   -3.562666   -0.069734 |
  Two-photon absorption cross-section [a.u.]:                       109.990867
  Two-photon absorption matrix [a.u.]:
                                       |   -0.260774   -0.039626    2.682639 |
                                       |   -0.039626    0.305094   -2.543416 |
                                       |    2.682639   -2.543416   -0.049498 |

  Dip. moment [a.u.]:                  [   0.000513,    0.000468,    0.006377]
  Total dipole [Debye]:                                               0.016306
[...]
    16   -2.568356905163e-03
    17   -6.150409488118e-04
    18    2.804270810760e-04
    19   -2.862823217467e-03
    20    1.144237005040e-02
    21    9.250894021064e-01
    22   -5.015507031727e-04
    23    1.368559544260e-02
    24    1.412703452416e-04
    25    7.034947711195e-02
    26   -5.219405292838e-02
    27   -1.380715376908e+00
    28    1.000711246624e-01
    29   -9.457799456650e-02
    30   -1.076052991659e-02
    31    3.850996012204e-01
    32   -3.636172603579e-01
    33   -4.121087677196e-02
    34    1.485552769965e-02
    35   -2.468265491636e-04
    36   -2.826735880414e-03
    37   -1.227906034445e-05
    38   -2.897854218777e-03
    39    1.166211363257e-02
    40    9.278671418915e-01
    41    5.305968430730e-04
    42   -1.362856663570e-02
    43   -1.465769800149e-03
    44    1.144017090561e-02
    45    9.250811920432e-01
    46    1.369324628603e-02
    47    2.050243014258e-04
    48    3.946131105699e-06
Sym=X
Ene= 0.230663
Spin=Alpha
Occup=0
     1   -3.072263589252e-02
     2   -1.162084605577e+00
     3    1.283002951653e-02
     4    3.478247132470e-03
     5    9.187578691511e-04
     6    1.633571720897e-04
     7   -1.386671338222e-04
     8   -3.640654034401e-03
     9    1.544747449076e-01
    10    1.630354216830e-01
    11    1.718707776829e-02
    12    5.275604036072e-01
    13    5.573380136580e-01
    14    5.869307453846e-02
    15    1.626802019541e-04
    16    5.849678695155e-04
    17    8.126255414268e-04
    18   -1.641961381717e-03
    19   -1.751286874061e-04
    20    3.074007298277e-02
    21    1.166887084469e+00
    22    2.850033059511e-03
    23    1.306452044778e-02
    24    8.236019898771e-04
    25    4.382843845764e-05
    26   -1.553631803174e-05
    27   -1.735112467562e-03
    28    1.549471390064e-01
    29    1.625832142499e-01
    30    1.731167683599e-02
    31    5.295096969418e-01
    32    5.552751103080e-01
    33    5.916267378659e-02
    34    1.392966456167e-04
    35    7.737370174197e-04
    36    6.303493151744e-04
    37    1.663432630010e-03
    38    6.086195401797e-06
    39   -3.075377070377e-02
    40   -1.163351769672e+00
    41    2.831601549513e-03
    42    1.299926839294e-02
    43    1.023806962390e-03
    44    3.070896610124e-02
    45    1.165380508508e+00
    46    1.288940408399e-02
    47    3.500518994458e-03
    48    7.325724110374e-04
Sym=X
Ene= 0.236473
Spin=Alpha
Occup=0
     1   -1.842594491536e-02
     2   -1.068595064871e+00
     3    1.567826562454e-02
     4    9.059663410134e-03
     5    3.086190100199e-03
     6   -8.678015241658e-02
     7    8.113728491915e-02
     8    1.545213868190e+00
     9    5.707428008777e-02
    10   -5.702780781896e-02
    11    2.714731416734e-02
    12    2.313951234761e-01
    13   -2.324101768841e-01
    14    1.099766323730e-01
    15   -2.113350251279e-02
    16    5.020740758037e-03
    17    4.394836714870e-04
    18   -9.393554110627e-04
    19    1.229740078340e-02
    20   -1.844458568961e-02
    21   -1.069414155505e+00
    22   -8.412729255397e-03
    23   -1.635281340120e-02
    24    4.008188944350e-04
    25    8.677656183708e-02
    26   -8.113008732492e-02
    27   -1.545126642506e+00
    28    5.983699663091e-02
    29   -5.357276841937e-02
    30   -2.827397218661e-02
    31    2.437025322227e-01
    32   -2.172611526523e-01
    33   -1.145086765917e-01
    34    2.104984538844e-02
    35    5.954669245923e-05
    36   -5.260746604883e-03
    37    2.814936491727e-04
    38   -1.237718319917e-02
    39    1.838784376701e-02
    40    1.066904958720e+00
    41   -8.266772103531e-03
    42   -1.607310692777e-02
    43   -3.159560960812e-03
    44    1.847037124843e-02
    45    1.071024372733e+00
    46    1.591168537434e-02
    47    9.254120692785e-03
    48   -4.727197777022e-04
Sym=X
Ene= 0.303347
Spin=Alpha
Occup=0
     1   -2.138915931005e-02
     2    1.653336291524e+00
     3   -2.345279513685e-02
     4    3.907362914096e-04
     5   -2.442865567354e-03
     6    8.460394617882e-05
     7    2.721206801116e-05
     8   -3.086985559001e-03
     9   -1.362723533850e-01
    10   -1.432986272834e-01
    11   -1.518840735122e-02
    12   -1.119092481381e+00
    13   -1.179577706826e+00
    14   -1.249603249061e-01
    15   -7.410883864851e-04
    16   -5.990612944154e-03
    17   -2.503646629400e-03
    18   -3.405761246372e-02
    19   -1.295516253313e-03
    20    2.146477430568e-02
    21   -1.651928977776e+00
    22    1.471151287023e-03
    23   -2.348427870739e-02
    24   -9.231665262039e-06
    25   -8.263185088266e-05
    26   -3.204791065166e-05
    27    3.003623630236e-03
    28    1.362279754773e-01
    29    1.433515286392e-01
    30    1.523453003359e-02
    31    1.121508292621e+00
    32    1.177212237487e+00
    33    1.250769582694e-01
    34    8.091263071515e-04
    35    2.523600156778e-03
    36    6.447031607732e-03
    37   -3.392127074241e-02
    38   -2.181236765678e-03
    39    2.136864819864e-02
    40   -1.653250022925e+00
    41   -1.574485664745e-03
    42    2.337692770193e-02
    43    2.678444702213e-03
    44   -2.144691730651e-02
    45    1.651920811415e+00
    46    2.352771221004e-02
    47   -2.584807805953e-04
    48   -2.198013891354e-04
Sym=X
Ene= 0.463025
Spin=Alpha
Occup=0
     1   -1.136130307246e-01
     2   -6.978456516518e-01
     3   -1.469567511795e-02
     4   -1.031486331748e-02
     5   -6.556754796019e-04
     6    6.281021489839e-02
     7    1.615647245986e-02
     8   -3.643162384478e+00
     9    1.038100356367e-01
    10   -1.000460016878e-01
    11    1.460433329526e-02
    12    2.428817077475e+00
    13   -2.313645279036e+00
    14    4.623066246193e-02
    15    5.252256459907e-02
    16   -1.743574658177e-03
    17   -5.867861248271e-03
    18   -1.202610843362e-03
    19    2.032331011584e-02
    20   -1.132079641630e-01
    21   -6.989347372541e-01
    22    9.561739817807e-03
    23    1.514428750768e-02
    24    2.042552101144e-03
    25   -6.281436623753e-02
    26   -1.615151192074e-02
    27    3.643259350031e+00
    28    1.051448526426e-01
    29   -9.837353114450e-02
    30   -1.667075469898e-02
    31    2.434983038583e+00
    32   -2.305670292382e+00
    33   -9.108242624494e-02
    34   -5.255417149456e-02
    35    4.686317821222e-03
    36    3.095593654039e-03
    37    9.762967464791e-04
    38   -2.037795536862e-02
    39    1.135239087697e-01
    40    6.978620112673e-01
    41    9.551605016976e-03
    42    1.519490784480e-02
    43    7.060817618603e-04
    44    1.131793411957e-01
    45    6.989336725637e-01
    46   -1.465157308531e-02
    47   -1.030073373290e-02
    48   -2.000824246291e-03
Sym=X
Ene= 0.579945
Spin=Alpha
Occup=0
     1   -2.375499638616e-01
     2   -4.619932779525e-02
     3    2.203579060646e-02
     4   -2.684525756596e-02
     5    9.486015996087e-04
     6    6.418195522302e-03
     7    1.706929462347e-01
     8    4.131379706412e-01
     9   -3.067080510655e-01
    10    2.905190815462e-01
    11    5.340229773685e-03
    12    7.477442478389e-01
    13   -7.100803293493e-01
    14    8.005293508643e-03
    15    1.468458032749e-03
    16   -3.747232244604e-03
    17   -3.147898880959e-03
    18    2.738153740781e-03
    19   -5.973701022139e-02
    20   -2.345113263841e-01
    21   -4.860104757213e-02
    22    2.805230683222e-02
    23   -2.107748538055e-02
    24    1.600115064249e-03
    25    6.433550282514e-03
    26    1.706976816221e-01
    27    4.125032617631e-01
    28    3.059608704085e-01
    29   -2.913029265651e-01
    30   -3.044856356673e-04
    31   -7.480548498024e-01
    32    7.102466029426e-01
    33    2.206390077489e-02
    34    1.464712679653e-03
    35   -3.517876875465e-03
    36   -3.372719805998e-03
    37    3.349999166662e-03
    38   -5.970840100300e-02
    39   -2.374869171357e-01
    40   -4.636392067949e-02
    41   -2.794220997807e-02
    42    2.062037178189e-02
    43    1.419155046750e-03
    44   -2.345255639055e-01
    45   -4.873914504592e-02
    46   -2.247764639847e-02
    47    2.691513706749e-02
    48    2.076365332308e-03
Sym=X
Ene= 0.608077
Spin=Alpha
Occup=0
     1    5.182620759110e-01
     2   -2.502613293854e-01
     3    5.895467205201e-02
     4   -3.710788557212e-02
     5    4.386966783630e-03
     6   -3.631072601904e-05
     7    1.312691538902e-05
     8    2.454185576202e-03
     9    3.527356193389e-02
    10    3.850061059534e-02
    11    4.070491747773e-03
    12   -2.561915017186e-01
    13   -2.747871910611e-01
    14   -2.875893806040e-02
    15    2.141378789482e-03
    16    1.867891987222e-02
    17    3.169999344223e-03
    18    1.478826186422e-01
    19    6.204852752312e-03
    20   -5.206936650007e-01
    21    2.496086690716e-01
    22   -3.938015182110e-02
    23    5.729761674998e-02
    24   -2.207831821048e-03
    25   -3.060643720240e-05
    26   -1.857931234632e-05
    27    2.835418253156e-03
    28    3.666433362569e-02
    29    3.719367319828e-02
    30    4.027793936399e-03
    31   -2.612970840582e-01
    32   -2.699056313092e-01
    33   -2.889242759325e-02
    34    2.387840328076e-03
    35    3.633092150745e-03
    36    2.028465992443e-02
    37   -1.475442751967e-01
    38   -8.906505449396e-03
    39    5.184283958451e-01
    40   -2.504820053176e-01
    41   -4.003900299320e-02
    42    5.692687704702e-02
    43    5.315004192659e-03
    44   -5.206587805664e-01
    45    2.496866051499e-01
    46    5.922172921128e-02
    47   -3.634967192273e-02
    48   -3.143316734093e-03
Sym=X
Ene= 0.688317
Spin=Alpha
Occup=0
     1    4.950222076461e-02
     2   -3.546314612775e-02
     3    1.540695733431e-02
     4    5.638249664582e-03
     5   -1.702952869434e-02
     6    3.491818413359e-03
     7    5.670168536653e-02
     8   -4.068536761437e-02
     9    1.741780696773e-02
    10    5.393696571178e-02
    11   -6.657845303753e-01
    12   -1.997077879837e-02
    13   -4.536237938602e-02
    14    6.074375766921e-01
    15   -2.237688088530e-02
    16    8.531092968444e-02
    17   -7.621046146810e-02
    18   -9.124681184518e-03
    19    6.669889618389e-03
    20    4.934250620859e-02
    21   -3.541349633662e-02
    22   -2.948266471222e-03
    23   -1.364489490750e-02
    24   -1.910584429384e-02
    25    3.483419850600e-03
    26    5.678586804719e-02
    27   -4.097571084912e-02
    28    4.649169211760e-02
    29    2.646796842833e-02
    30   -6.660278117255e-01
    31   -3.890227488598e-02
    32   -2.755934070338e-02
    33    6.075777745855e-01
    34   -1.972590986380e-02
    35   -8.086684581606e-02
    36    8.145760288938e-02
    37    8.329551054544e-03
    38    9.063607165980e-03
    39    4.938232723132e-02
    40   -3.582231221042e-02
    41    4.659108359180e-03
    42    1.586230754158e-02
    43   -1.691268186076e-02
    44    4.917453518340e-02
    45   -3.557995761415e-02
    46   -1.367288909460e-02
    47   -3.437297590853e-03
    48   -1.900753907230e-02
Sym=X
Ene= 0.705517
Spin=Alpha
Occup=0
     1   -4.880051377348e-01
     2    1.634646241204e-01
     3   -7.692053367656e-02
     4   -4.404656296962e-02
     5   -9.039265722537e-03
     6   -4.579717057771e-02
     7   -2.927062152575e-01
     8    4.574338896155e-01
     9    1.986069558399e-01
    10   -1.802321517040e-01
    11   -7.789752869556e-02
    12   -5.961295634335e-02
    13    4.781593938139e-02
    14    8.626637113608e-02
    15    1.894258075848e-01
    16   -1.948986146379e-02
    17   -2.468127654169e-02
    18    3.515030584171e-03
    19   -7.663774642605e-02
    20   -4.868677108953e-01
    21    1.626265870910e-01
    22    4.033158517582e-02
    23    7.922318574709e-02
    24    4.034178816136e-03
    25   -4.577517197876e-02
    26   -2.926876219221e-01
    27    4.567694397220e-01
    28   -1.909534027149e-01
    29    1.898523179311e-01
    30   -7.423651997935e-02
    31    5.107632774761e-02
    32   -5.775091422214e-02
    33    8.554951600109e-02
    34    1.894182042291e-01
    35   -2.121986380868e-02
    36   -2.309843995931e-02
    37    3.985748966754e-03
    38   -7.658922979811e-02
    39   -4.879879314358e-01
    40    1.635177878391e-01
    41   -4.010612470553e-02
    42   -7.900410668445e-02
    43   -9.370673788317e-03
    44   -4.867798537072e-01
    45    1.622702817702e-01
    46    7.704499449307e-02
    47    4.433233670144e-02
    48    3.724253093419e-03
Sym=X
Ene= 0.776430
Spin=Alpha
Occup=0
     1   -5.379191649272e-01
     2    4.778540469414e-01
     3   -1.065723970475e-01
     4   -2.769780313131e-02
     5   -7.673170814689e-03
     6   -8.811963031104e-02
     7    2.296012554758e-01
     8    5.534419068197e-01
     9   -9.589761942565e-02
    10    9.777262779848e-02
    11   -6.648015421171e-02
    12   -2.983288477550e-01
    13    2.683485396609e-01
    14    1.523566990953e-01
    15    2.012737970996e-01
    16   -2.935385268477e-02
    17   -1.016615244297e-02
    18    1.756858131658e-03
    19   -8.699417029117e-03
    20   -5.379660336542e-01
    21    4.786564099262e-01
    22    2.217903611012e-02
    23    1.081336675907e-01
    24    6.700472608148e-03
    25    8.812555462517e-02
    26   -2.296455318471e-01
    27   -5.534518758030e-01
    28   -1.019840258048e-01
    29    9.001562359159e-02
    30    6.823513611203e-02
    31   -2.845585111749e-01
    32    2.856911823756e-01
    33   -1.469327977069e-01
    34   -2.008971260380e-01
    35    5.310412584857e-03
    36    3.307335747405e-02
    37    1.215364702437e-03
    38    9.079032215062e-03
    39    5.379586408845e-01
    40   -4.780814644937e-01
    41    2.227580373629e-02
    42    1.077912038893e-01
    43    8.473610207530e-03
    44    5.381518879419e-01
    45   -4.785252845907e-01
    46   -1.069124594854e-01
    47   -2.766282778442e-02
    48   -5.926725516714e-03
Sym=X
Ene= 0.807400
Spin=Alpha
Occup=0
     1   -4.220774684615e-02
     2    5.968983901678e-02
     3   -1.935730858894e-02
     4    2.248439721595e-03
     5    3.048233319724e-02
     6   -8.099284709125e-03
     7    1.759391599893e-02
     8   -9.296396570543e-03
     9   -7.069220127013e-02
    10   -1.333202129889e-02
    11    7.602436516000e-01
    12    4.804649169540e-02
    13    7.219918809188e-02
    14   -1.115349040721e+00
    15    2.635259999509e-02
    16    6.253826719919e-02
    17   -6.345629841335e-02
    18   -7.243562777246e-03
    19    7.783020698740e-03
    20   -4.231886884273e-02
    21    5.947503638493e-02
    22   -6.564806134442e-03
    23    1.574220197532e-02
    24    3.185794520145e-02
    25    8.091341576438e-03
    26   -1.746010381430e-02
    27    9.235024479885e-03
    28    2.384714924013e-03
    29    7.847875749984e-02
    30   -7.596069772734e-01
    31   -5.898551195072e-02
    32   -6.224771697535e-02
    33    1.115438292626e+00
    34   -2.840651715834e-02
    35    6.611005278340e-02
    36   -5.859208532478e-02
    37   -6.242241728469e-03
    38   -9.657131805902e-03
    39    4.218712720252e-02
    40   -5.952778829635e-02
    41   -3.567109531814e-03
    42    1.950575483859e-02
    43   -3.025260885145e-02
    44    4.232756686283e-02
    45   -5.972422045560e-02
    46   -1.642744757026e-02
    47    6.038396855616e-03
    48   -3.165243381845e-02
Sym=X
Ene= 0.857098
Spin=Alpha
Occup=0
     1    1.527150418056e-02
     2   -1.070583134080e+00
     3    1.458961743984e-01
     4    5.501645298171e-02
     5    1.473878301108e-02
     6   -2.508369861582e-05
     7   -4.752608023822e-04
     8    1.784569615261e-04
     9   -4.115936125096e-01
    10   -4.332531905638e-01
    11   -4.581125127622e-02
    12    9.329150452935e-01
    13    9.826825118176e-01
    14    1.038962644288e-01
    15    3.170359335043e-04
    16    1.386060535619e-02
    17   -1.112974436592e-02
    18    2.302032940474e-01
    19    1.171868001790e-02
    20   -1.536462145412e-02
    21    1.070586398775e+00
    22    4.779757728427e-02
    23    1.489191942843e-01
    24    6.870358021507e-03
    25   -3.876602910662e-05
    26   -4.886329177462e-04
    27    1.687731301184e-04
    28   -4.119724686709e-01
    29   -4.330861567881e-01
    30   -4.606672649164e-02
    31    9.345891021645e-01
    32    9.816469736932e-01
    33    1.044537012240e-01
    34    7.818892974183e-04
    35   -9.641272035737e-03
    36    1.555303850979e-02
    37   -2.301617986211e-01
    38   -1.181590046781e-02
    39    1.521281948843e-02
    40   -1.070671498287e+00
    41    4.754777257516e-02
    42    1.484045296443e-01
    43    1.571117403913e-02
    44   -1.541865629124e-02
    45    1.070864904248e+00
    46    1.463686052336e-01
    47    5.534061325490e-02
    48    5.931297016115e-03
Sym=X
Ene= 0.926987
Spin=Alpha
Occup=0
     1    1.431281696890e-01
     2   -1.229696074379e+00
     3    1.822371056318e-01
     4   -6.076366599189e-03
     5    1.659541375189e-02
     6   -3.094296672710e-05
     7   -4.903795523684e-04
     8   -1.007578353806e-03
     9   -4.748375415814e-01
    10   -4.979396124911e-01
    11   -5.292125723079e-02
    12    1.380668382969e+00
    13    1.447390636169e+00
    14    1.538282829527e-01
    15    2.664006296583e-03
    16    2.092691778131e-02
    17    8.096789229191e-03
    18    1.249535469877e-01
    19    5.586309418079e-03
    20   -1.424349750566e-01
    21    1.225678488135e+00
    22   -1.506920350151e-02
    23    1.820026291711e-01
    24    2.066975393777e-03
    25    3.817226656658e-05
    26    7.045475753041e-04
    27    6.553850996308e-04
    28    4.732207972847e-01
    29    4.993072998521e-01
    30    5.300374266538e-02
    31   -1.375451329441e+00
    32   -1.451845316273e+00
    33   -1.540588427857e-01
    34   -2.938379593447e-03
    35   -8.169635611414e-03
    36   -2.252492294775e-02
    37    1.245261199994e-01
    38    7.191731892706e-03
    39   -1.430919654305e-01
    40    1.229515090815e+00
    41    1.531911786203e-02
    42   -1.814858671365e-01
    43   -1.844713965851e-02
    44    1.424710059794e-01
    45   -1.225304266484e+00
    46   -1.825111414939e-01
    47    5.695835462800e-03
    48   -2.583667634726e-04
Sym=X
Ene= 0.970355
Spin=Alpha
Occup=0
     1   -5.828755440949e-02
     2    8.910743085160e-01
     3   -8.606333530413e-02
     4   -9.577884913703e-02
     5   -1.790554892824e-02
     6    2.744181316776e-02
     7    2.514966489277e-01
     8    5.152139447288e-01
     9    4.804152228401e-01
    10   -4.621067961688e-01
    11    3.365779198152e-02
    12   -1.463814080295e+00
    13    1.409540358092e+00
    14   -9.188697068047e-02
    15   -5.980183374194e-02
    16   -1.451564566372e-02
    17   -6.745516515628e-03
    18    1.573484606809e-02
    19   -2.957671310749e-01
    20   -5.780646616785e-02
    21    8.974398293075e-01
    22    9.197743424017e-02
    23    9.252831214154e-02
    24    2.021742364794e-03
    25   -2.744422475207e-02
    26   -2.515065556395e-01
    27   -5.152156860794e-01
    28    4.859092801306e-01
    29   -4.555901837034e-01
    30   -4.269343115444e-02
    31   -1.482178328604e+00
    32    1.388203142208e+00
    33    1.193521247662e-01
    34    5.989310138945e-02
    35    9.814634356989e-03
    36    1.118935920403e-02
    37   -1.456995301555e-02
    38    2.958525830781e-01
    39    5.829856691761e-02
    40   -8.909995033640e-01
    41    9.136885869188e-02
    42    9.070951819142e-02
    43    1.790825509539e-02
    44    5.778481429667e-02
    45   -8.975139711635e-01
    46   -8.769182562278e-02
    47   -9.661655893027e-02
    48   -2.022830650072e-03
[5D]

======= END OF MOLDEN-FORMATTED INPUT FILE =======


        *************************************************************
        *                                                           *
        *  Thank you very much for using Q-Chem.  Have a nice day.  *
        *                                                           *
        *************************************************************


