                  Welcome to Q-Chem
     A Quantum Leap Into The Future Of Chemistry


 Q-Chem 5.4 (devel), Q-Chem, Inc., Pleasanton, CA (2021)

 E. Epifanovsky,  A. T. B. Gilbert,  Xintian Feng,  Joonho Lee,  Yuezhi Mao,  
 N. Mardirossian,  P. Pokhilko,  A. White,  M. Wormit,  M. P. Coons,  
 A. L. Dempwolff,  Zhengting Gan,  D. Hait,  P. R. Horn,  L. D. Jacobson,  
 I. Kaliman,  J. Kussmann,  A. W. Lange,  Ka Un Lao,  D. S. Levine,  Jie Liu,  
 S. C. McKenzie,  A. F. Morrison,  K. Nanda,  F. Plasser,  D. R. Rehn,  
 M. L. Vidal,  Zhi-Qiang You,  Ying Zhu,  B. Alam,  B. Albrecht,  
 A. Aldossary,  E. Alguire,  J. H. Andersen,  D. Barton,  K. Begam,  A. Behn,  
 Y. A. Bernard,  E. J. Berquist,  H. Burton,  A. Carreras,  K. Carter-Fenk,  
 R. Chakraborty,  A. D. Chien,  K. D. Closser,  V. Cofer-Shabica,  
 S. Dasgupta,  Jia Deng,  M. de Wergifosse,  M. Diedenhofen,  Hainam Do,  
 S. Ehlert,  Po-Tung Fang,  S. Fatehi,  Qingguo Feng,  T. Friedhoff,  
 J. Gayvert,  Qinghui Ge,  G. Gidofalvi,  M. Goldey,  J. Gomes,  
 C. Gonzalez-Espinoza,  S. Gulania,  A. Gunina,  M. W. D. Hanson-Heine,  
 P. H. P. Harbach,  A. W. Hauser,  M. F. Herbst,  M. Hernandez Vera,  
 M. Hodecker,  Z. C. Holden,  S. Houck,  Xunkun Huang,  Kerwin Hui,  
 B. C. Huynh,  M. Ivanov,  Hyunjun Ji,  Hanjie Jiang,  B. Kaduk,  S. Kaehler,  
 K. Khistyaev,  Jaehoon Kim,  P. Klunzinger,  Z. Koczor-Benda,  
 Joong Hoon Koh,  D. Kosenkov,  L. Koulias,  T. Kowalczyk,  C. M. Krauter,  
 K. Kue,  A. Kunitsa,  T. Kus,  A. Landau,  K. V. Lawler,  D. Lefrancois,  
 S. Lehtola,  Rain Li,  Yi-Pei Li,  Jiashu Liang,  M. Liebenthal,  
 Hung-Hsuan Lin,  You-Sheng Lin,  Fenglai Liu,  Kuan-Yu Liu,  
 M. Loipersberger,  A. Luenser,  A. Manjanath,  P. Manohar,  E. Mansoor,  
 S. F. Manzer,  Shan-Ping Mao,  A. V. Marenich,  T. Markovich,  S. Mason,  
 S. A. Maurer,  P. F. McLaughlin,  M. F. S. J. Menger,  J.-M. Mewes,  
 S. A. Mewes,  P. Morgante,  J. W. Mullinax,  K. J. Oosterbaan,  G. Paran,  
 Alexander C. Paul,  Suranjan K. Paul,  F. Pavosevic,  Zheng Pei,  S. Prager,  
 E. I. Proynov,  E. Ramos,  B. Rana,  A. E. Rask,  A. Rettig,  R. M. Richard,  
 F. Rob,  E. Rossomme,  T. Scheele,  M. Scheurer,  M. Schneider,  
 N. Sergueev,  S. M. Sharada,  W. Skomorowski,  D. W. Small,  C. J. Stein,  
 Yu-Chuan Su,  E. J. Sundstrom,  Zhen Tao,  J. Thirman,  T. Tsuchimochi,  
 N. M. Tubman,  S. P. Veccham,  O. Vydrov,  J. Wenzel,  J. Witte,  A. Yamada,  
 Kun Yao,  S. Yeganeh,  S. R. Yost,  A. Zech,  Igor Ying Zhang,  Xing Zhang,  
 Yu Zhang,  D. Zuev,  A. Aspuru-Guzik,  A. T. Bell,  N. A. Besley,  
 K. B. Bravaya,  B. R. Brooks,  D. Casanova,  Jeng-Da Chai,  S. Coriani,  
 C. J. Cramer,  A. E. DePrince, III,  R. A. DiStasio Jr.,  A. Dreuw,  
 B. D. Dunietz,  T. R. Furlani,  W. A. Goddard III,  S. Grimme,  
 S. Hammes-Schiffer,  T. Head-Gordon,  W. J. Hehre,  Chao-Ping Hsu,  
 T.-C. Jagau,  Yousung Jung,  A. Klamt,  Jing Kong,  D. S. Lambrecht,  
 WanZhen Liang,  N. J. Mayhall,  C. W. McCurdy,  J. B. Neaton,  
 C. Ochsenfeld,  J. A. Parkhill,  R. Peverati,  V. A. Rassolov,  Yihan Shao,  
 L. V. Slipchenko,  T. Stauch,  R. P. Steele,  J. E. Subotnik,  
 A. J. W. Thom,  A. Tkatchenko,  D. G. Truhlar,  T. Van Voorhis,  
 T. A. Wesolowski,  K. B. Whaley,  H. L. Woodcock III,  P. M. Zimmerman,  
 S. Faraji,  P. M. W. Gill,  M. Head-Gordon,  J. M. Herbert,  A. I. Krylov

 Additional authors for Version 5.4.1: 
 S. Kotaru,  Shaozhi Li,  Xiangyuan Li,  F. Matz,  A. Molle,  Haisheng Ren,  
 Yingli Su,  Hung-Yi Tsai,  C. Utku,  Fang Wang

 Contributors to earlier versions of Q-Chem not listed above: 
 R. D. Adamson,  B. Austin,  R. Baer,  J. Baker,  G. J. O. Beran,  
 K. Brandhorst,  S. T. Brown,  E. F. C. Byrd,  A. K. Chakraborty,  
 G. K. L. Chan,  Chun-Min Chang,  Yunqing Chen,  C.-L. Cheng,  
 Siu Hung Chien,  D. M. Chipman,  D. L. Crittenden,  H. Dachsel,  
 R. J. Doerksen,  A. D. Dutoi,  R. G. Edgar,  J. Fosso-Tande,  
 L. Fusti-Molnar,  D. Ghosh,  A. Ghysels,  A. Golubeva-Zadorozhnaya,  
 J. Gonthier,  M. S. Gordon,  S. R. Gwaltney,  G. Hawkins,  J. E. Herr,  
 A. Heyden,  S. Hirata,  E. G. Hohenstein,  G. Kedziora,  F. J. Keil,  
 C. Kelley,  Jihan Kim,  R. A. King,  R. Z. Khaliullin,  P. P. Korambath,  
 W. Kurlancheek,  A. Laurent,  A. M. Lee,  M. S. Lee,  S. V. Levchenko,  
 Ching Yeh Lin,  D. Liotard,  E. Livshits,  R. C. Lochan,  I. Lotan,  
 L. A. Martinez-Martinez,  P. E. Maslen,  N. Nair,  D. P. O'Neill,  
 D. Neuhauser,  E. Neuscamman,  C. M. Oana,  R. Olivares-Amaya,  R. Olson,  
 T. M. Perrine,  B. Peters,  P. A. Pieniazek,  A. Prociuk,  Y. M. Rhee,  
 J. Ritchie,  M. A. Rohrdanz,  E. Rosta,  N. J. Russ,  H. F. Schaefer III,  
 M. W. Schmidt,  N. E. Schultz,  S. Sharma,  N. Shenvi,  C. D. Sherrill,  
 A. C. Simmonett,  A. Sodt,  T. Stein,  D. Stuck,  K. S. Thanthiriwatte,  
 V. Vanovschi,  L. Vogt,  Tao Wang,  A. Warshel,  M. A. Watson,  
 C. F. Williams,  Q. Wu,  X. Xu,  Jun Yang,  W. Zhang,  Yan Zhao

 Please cite Q-Chem as follows:
 Y. Shao et al., Mol. Phys. 113, 184-215 (2015)
 DOI: 10.1080/00268976.2014.952696

 Q-Chem 5.4.1 for Intel X86 EM64T Linux

 Parts of Q-Chem use Armadillo 9.800.1 (Horizon Scraper).
 http://arma.sourceforge.net/

 Q-Chem begins on Wed Mar 15 18:01:17 2023  

 Host: cpu121.yggdrasil
0

     Scratch files written to /srv/beegfs/scratch/users/f/fum/qchem97161//
 Processing $rem in /home/share/wesolowski/qc5.aug2021.FDE/config/preferences:
 Processing $rem in /home/fum/.qchemrc:

 Checking the input file for inconsistencies... 	...done.

--------------------------------------------------------------
User input:
--------------------------------------------------------------
$comment
generated from CCJob.Templates
$end

$rem
sym_ignore = true
method = adc(2)
ee_states = 10
basis = cc-pVDZ
mem_static = 1024
mem_total = 40000
adc_davidson_maxiter = 900
adc_davidson_conv = 6
adc_print = 3
adc_prop_es = true
adc_prop_es2es = true
adc_prop_tpa = true
molden_format = True
state_analysis = true
print_orbitals = 15
gen_scfman = false
fde_export_density = true
fde_details = 3
$end

$molecule
0 1
H -0.0348278765 -0.2442097827 0.0636489606
C -1.0765972949 -0.5242748755 -0.0023551776
H -1.313264467 -1.5767591607 -0.0757276926
C -2.043634118 0.3926884087 0.0061254933
H -1.8137616575 1.4459188338 0.0804456828
H -3.085977293 0.114931858 -0.019338104199999998                     
$end
--------------------------------------------------------------
 ----------------------------------------------------------------
             Standard Nuclear Orientation (Angstroms)
    I     Atom           X                Y                Z
 ----------------------------------------------------------------
    1      H      -0.0348278765    -0.2442097827     0.0636489606
    2      C      -1.0765972949    -0.5242748755    -0.0023551776
    3      H      -1.3132644670    -1.5767591607    -0.0757276926
    4      C      -2.0436341180     0.3926884087     0.0061254933
    5      H      -1.8137616575     1.4459188338     0.0804456828
    6      H      -3.0859772930     0.1149318580    -0.0193381042
 ----------------------------------------------------------------
 Nuclear Repulsion Energy =          33.42916349 hartrees
 There are        8 alpha and        8 beta electrons
 Requested basis set is cc-pVDZ
 There are 24 shells and 48 basis functions
 Total memory of 40000 MB is distributed as follows: 
   MEM_STATIC is set to 1024 MB
   QALLOC/CCMAN JOB total memory use is  38976 MB
 Warning: actual memory use might exceed 40000 MB

 Total QAlloc Memory Limit  40000 MB
 Mega-Array Size      1001 MB
 MEM_STATIC part      1024 MB

                       Distance Matrix (Angstroms)
             H (  1)   C (  2)   H (  3)   C (  4)   H (  5)
   C (  2)  1.080776
   H (  3)  1.851895  1.081258
   C (  4)  2.108139  1.332687  2.102109
   H (  5)  2.453859  2.105215  3.067812  1.080583
   H (  6)  3.073334  2.108668  2.451022  1.079016  1.843913

 A cutoff of  1.0D-11 yielded    300 shell pairs
 There are      1220 function pairs (      1329 Cartesian)
 Smallest overlap matrix eigenvalue = 4.80E-03

 Scale SEOQF with 1.000000e-01/1.000000e-01/1.000000e+00

 Standard Electronic Orientation quadrupole field applied
 Nucleus-field energy     =     0.0000000022 hartrees
 Guess from superposition of atomic densities
 Warning:  Energy on first SCF cycle will be non-variational
 SAD guess density has 16.000000 electrons
 A restricted Hartree-Fock SCF calculation will be
 performed using Pulay DIIS extrapolation
 SCF converges when DIIS error is below 1.0E-08
 using 10 threads for integral computing
 -------------------------------------------------------
 OpenMP Integral computing Module                
 Release: version 1.0, May 2013, Q-Chem Inc. Pittsburgh 
 -------------------------------------------------------
 ---------------------------------------
  Cycle       Energy         DIIS Error
 ---------------------------------------
    1     -78.4400044699      1.01E-01
    2     -78.0175952900      7.21E-03
    3     -78.0382294489      1.84E-03
    4     -78.0397124909      5.73E-04
    5     -78.0398341862      5.81E-05
    6     -78.0398360684      9.69E-06
    7     -78.0398361305      2.89E-06
    8     -78.0398361342      1.13E-06
    9     -78.0398361347      9.86E-08
   10     -78.0398361347      1.98E-08
   11     -78.0398361347      5.69E-09 Convergence criterion met
 ---------------------------------------
 SCF time:  CPU 1.97 s  wall 2.30 s
 SCF   energy in the final basis set = -78.03983613
 Total energy in the final basis set = -78.03983613
Exporting Density Matrix to file 'Densmat_SCF.txt'.
Export successful
================================================================================
|                                                                              |
|                                 A D C  M A N                                 |
|                                                                              |
 ------------------------------------------------------------------------------ 
|                                                                              |
| Components:                                                                  |
|                                                                              |
| - libvmm - 1.3-trunk                                                         |
|   Authors:                                                                   |
|   Evgeny Epifanovsky, Ilya Kaliman                                           |
|                                                                              |
| - libtensor - 2.5-trunk                                                      |
|   Authors:                                                                   |
|   Evgeny Epifanovsky, Michael Wormit, Dmitry Zuev, Sam Manzer,               |
|   Ilya Kaliman                                                               |
|                                                                              |
| - libwfa - 1.1-trunk                                                         |
|   Authors:                                                                   |
|   Felix Plasser, Stefanie Mewes (Baeppler), Benjamin Thomitzni,              |
|   Michael Wormit, Feng Chen, Anna I. Krylov, Pavel Pokhilko                  |
|                                                                              |
| - libadc - 1.1-trunk                                                         |
|   Authors:                                                                   |
|   Michael Wormit, Adrian L. Dempwolff, Philipp H. P. Harbach,                |
|   Caroline Krauter, Dirk Rehn, Matthias Schneider, Jan Wenzel                |
|                                                                              |
| - adcman - 2.6-trunk                                                         |
|   Authors:                                                                   |
|   Michael Wormit, Adrian L. Dempwolff, Philipp H. P. Harbach,                |
|   Caroline Krauter, Daniel Lefrancois, Jan-Michael Mewes, Dirk Rehn,         |
|   Matthias Schneider, Jan Wenzel, Andreas Dreuw                              |
|                                                                              |
| Authors of earlier versions of ADCMAN:                                       |
| Andreas Dreuw, Jan Hendrik Starcke, Dirk Rehn, Michael Wormit                |
|                                                                              |
================================================================================

 Created directory /srv/beegfs/scratch/users/f/fum/qchem97161/plots
  Import QC data ...  CPU 0.00 s  wall 0.00 s

 Alpha MOs, Restricted
 -- Occupied --                  
-11.235 -11.233  -1.032  -0.790  -0.641  -0.582  -0.505  -0.374
  1 A     2 A     3 A     4 A     5 A     6 A     7 A     8 A                  
 -- Virtual --                   
  0.168   0.204   0.233   0.239   0.303   0.462   0.578   0.615
  9 A    10 A    11 A    12 A    13 A    14 A    15 A    16 A                  
  0.689   0.709   0.785   0.808   0.862   0.936   0.973   1.010
 17 A    18 A    19 A    20 A    21 A    22 A    23 A    24 A                  
  1.130   1.235   1.249   1.268   1.296   1.602   1.727   1.751
 25 A    26 A    27 A    28 A    29 A    30 A    31 A    32 A                  
  1.819   1.859   1.867   1.921   1.977   1.979   2.221   2.258
 33 A    34 A    35 A    36 A    37 A    38 A    39 A    40 A                  
  2.375   2.455   2.507   2.635   2.722   2.823   3.140   3.400
 41 A    42 A    43 A    44 A    45 A    46 A    47 A    48 A                  

 Beta MOs, Restricted
 -- Occupied --                  
-11.235 -11.233  -1.032  -0.790  -0.641  -0.582  -0.505  -0.374
  1 A     2 A     3 A     4 A     5 A     6 A     7 A     8 A                  
 -- Virtual --                   
  0.168   0.204   0.233   0.239   0.303   0.462   0.578   0.615
  9 A    10 A    11 A    12 A    13 A    14 A    15 A    16 A                  
  0.689   0.709   0.785   0.808   0.862   0.936   0.973   1.010
 17 A    18 A    19 A    20 A    21 A    22 A    23 A    24 A                  
  1.130   1.235   1.249   1.268   1.296   1.602   1.727   1.751
 25 A    26 A    27 A    28 A    29 A    30 A    31 A    32 A                  
  1.819   1.859   1.867   1.921   1.977   1.979   2.221   2.258
 33 A    34 A    35 A    36 A    37 A    38 A    39 A    40 A                  
  2.375   2.455   2.507   2.635   2.722   2.823   3.140   3.400
 41 A    42 A    43 A    44 A    45 A    46 A    47 A    48 A                  
  Import AO data ...  CPU 0.00 s  wall 0.04 s
  Using point group: C1
  Irreducible representations in point group: A
  Molecular orbitals: 
  Occupied MOs:
  Block   0:   1 (  A) A   2 (  A) A   3 (  A) A   4 (  A) A   5 (  A) A
                  -11.24      -11.23      -1.032       -0.79     -0.6412
               6 (  A) A   7 (  A) A   8 (  A) A
                 -0.5821     -0.5047      -0.374
  Block   1:   1 (  A) B   2 (  A) B   3 (  A) B   4 (  A) B   5 (  A) B
                  -11.24      -11.23      -1.032       -0.79     -0.6412
               6 (  A) B   7 (  A) B   8 (  A) B
                 -0.5821     -0.5047      -0.374
  Virtual MOs:
  Block   0:   9 (  A) A  10 (  A) A  11 (  A) A  12 (  A) A  13 (  A) A
                  0.1683      0.2037      0.2331      0.2394      0.3033
              14 (  A) A  15 (  A) A  16 (  A) A  17 (  A) A  18 (  A) A
                  0.4622      0.5776       0.615      0.6892      0.7093
              19 (  A) A  20 (  A) A  21 (  A) A  22 (  A) A
                  0.7848       0.808      0.8623      0.9361
  Block   1:  23 (  A) A  24 (  A) A  25 (  A) A  26 (  A) A  27 (  A) A
                  0.9726        1.01        1.13       1.235       1.249
              28 (  A) A  29 (  A) A  30 (  A) A  31 (  A) A  32 (  A) A
                   1.268       1.296       1.602       1.727       1.751
              33 (  A) A  34 (  A) A  35 (  A) A  36 (  A) A
                   1.819       1.859       1.867       1.921
  Block   2:  37 (  A) A  38 (  A) A  39 (  A) A  40 (  A) A  41 (  A) A
                   1.977       1.979       2.221       2.258       2.375
              42 (  A) A  43 (  A) A  44 (  A) A  45 (  A) A  46 (  A) A
                   2.455       2.507       2.635       2.722       2.823
              47 (  A) A  48 (  A) A
                    3.14         3.4
  Block   3:   9 (  A) B  10 (  A) B  11 (  A) B  12 (  A) B  13 (  A) B
                  0.1683      0.2037      0.2331      0.2394      0.3033
              14 (  A) B  15 (  A) B  16 (  A) B  17 (  A) B  18 (  A) B
                  0.4622      0.5776       0.615      0.6892      0.7093
              19 (  A) B  20 (  A) B  21 (  A) B  22 (  A) B
                  0.7848       0.808      0.8623      0.9361
  Block   4:  23 (  A) B  24 (  A) B  25 (  A) B  26 (  A) B  27 (  A) B
                  0.9726        1.01        1.13       1.235       1.249
              28 (  A) B  29 (  A) B  30 (  A) B  31 (  A) B  32 (  A) B
                   1.268       1.296       1.602       1.727       1.751
              33 (  A) B  34 (  A) B  35 (  A) B  36 (  A) B
                   1.819       1.859       1.867       1.921
  Block   5:  37 (  A) B  38 (  A) B  39 (  A) B  40 (  A) B  41 (  A) B
                   1.977       1.979       2.221       2.258       2.375
              42 (  A) B  43 (  A) B  44 (  A) B  45 (  A) B  46 (  A) B
                   2.455       2.507       2.635       2.722       2.823
              47 (  A) B  48 (  A) B
                    3.14         3.4
  Import MO data ...  CPU 0.01 s  wall 0.00 s
  Import HF data ...  CPU 0.21 s  wall 0.05 s
  Import 2e integrals ...  CPU 1.28 s  wall 0.19 s

--------------------------------------------------------------------------------
                                   HF Summary                                   
--------------------------------------------------------------------------------
  Energy:                                                  -78.0398361347 a.u.
  Dip. moment [a.u.]:                  [  -0.001252,   -0.000023,    0.011411]
  Total dipole [Debye]:                                               0.029177
  <r^2> [a.u.]:                        [ 175.312905,   34.919413,   11.615089]
  Total <r^2> [a.u.]:                                               221.847407
--------------------------------------------------------------------------------
  HF properties ...  CPU 0.01 s  wall 0.01 s
  MP(1) calculation ...  CPU 0.01 s  wall 0.00 s
  N^6 prerequesite intermediates ...  CPU 0.58 s  wall 0.09 s
  Difference density matrix of state mp2_gs printed to ASCII file 'State_mp2_gs_Difference.txt'
Exporting MP density matrix to file 'Densmat_MP.txt'.
Export successful
  Total density matrix of state mp2_gs printed to ASCII file 'State_mp2_gs_Total.txt'
Exporting MP density matrix to file 'Densmat_MP.txt'.
Export successful

--------------------------------------------------------------------------------
                                 MP(2) Summary                                  
--------------------------------------------------------------------------------
  MP energy contribution:                                   -0.2796897572 a.u.
  Total energy:                                            -78.3195258919 a.u.
  Dip. moment [a.u.]:                  [  -0.001221,   -0.000042,    0.011263]
  Total dipole [Debye]:                                               0.028796
  <r^2> [a.u.]:                        [ 175.360147,   34.960085,   11.446836]
  Total <r^2> [a.u.]:                                               221.767068

  Density matrix analysis:
  ------------------------
  NOs
    Occupation of frontier NOs:
       0.0453   1.9382
    Number of electrons: 16.000000
    Number of unpaired electrons: n_u =  0.40335, n_u,nl =  0.04507
    NO participation ratio (PR_NO): 13.854609
  
  
  Mulliken Population Analysis
  Atom      Charge (e)              h+              e-           Del q
  --------------------------------------------------------------------
   1 H        0.050988        0.014030       -0.011202        0.002828
   2 C       -0.100871        0.093237       -0.098861       -0.005624
   3 H        0.050571        0.014074       -0.011190        0.002884
   4 C       -0.100828        0.092883       -0.098857       -0.005974
   5 H        0.049995        0.014140       -0.011179        0.002960
   6 H        0.050145        0.014113       -0.011187        0.002926
  --------------------------------------------------------------------
  Sum:       -0.000000        0.242477       -0.242477        0.000000
  
  Multipole moment analysis of the density matrix
    Molecular charge:                      0.000000
    Number of electrons:                   16.000000
      Center of electronic charge [Ang]: [ -1.560536,  -0.065601,   0.004106]
    Total nuclear charge:                  16.000000
      Center of nuclear charge [Ang]:    [ -1.560576,  -0.065602,   0.004478]
    Dipole moment [D]:                     0.028796
      Cartesian components [D]:          [ -0.003103,  -0.000106,   0.028628]
    RMS size of the density [Ang]:         1.200719
      Cartesian components [Ang]:        [  0.796143,   0.779462,   0.447575]
  
  Exciton analysis of the difference density matrix
    <r_h> [Ang]:                  [ -1.560130,  -0.065766,   0.002268]
    <r_e> [Ang]:                  [ -1.560198,  -0.065725,   0.002590]
    |<r_e - r_h>| [Ang]:            0.000331
    Hole size [Ang]:                1.393523
      Cartesian components [Ang]: [  0.846334,   0.834154,   0.727882]
    Electron size [Ang]:            1.359750
      Cartesian components [Ang]: [  0.877855,   0.861852,   0.579224]
--------------------------------------------------------------------------------
  MP(2) calculation ...  CPU 0.27 s  wall 0.14 s
  Start ADC(2)-s ...  CPU 0.01 s  wall 0.00 s
  ADC(2) intermediates ...  CPU 0.02 s  wall 0.01 s
  Starting Davidson for singlet states of irrep A ... 
--------------------------------------------------------------------------------
   It NVec Conv  Avg. Norm  Max. Norm  Conv. states           Remark
--------------------------------------------------------------------------------
        10    0  1.330e-01  4.688e-01  0.4119 n n n n n n n n Guess.
    1   20    0  2.325e-02  1.109e-01  0.3258 n n n n n n n n 
    2   30    0  6.116e-03  2.505e-02  0.3211 n n n n n n n n 
    3   40    0  2.089e-03  1.016e-02  0.3207 n n n n n n n n 
    4   50    0  5.379e-04  3.347e-03  0.3207 n n n n n n n n 
    5   20    0  3.077e-04  1.637e-03  0.3207 n n n n n n n n Subspace collapsed.
    6   30    0  2.586e-04  1.468e-03  0.3207 n n n n n n n n 
    7   40    0  1.934e-04  1.329e-03  0.3207 n n n n n n n n 
    8   50    0  1.208e-04  9.053e-04  0.3207 n n n n n n n n 
    9   20    0  5.425e-05  3.893e-04  0.3207 n n n n n n n n Subspace collapsed.
   10   30    2  4.051e-05  2.706e-04  0.3207 n y y n n n n n 
   11   40    3  1.736e-05  1.138e-04  0.3207 n y y y n n n n 
   12   50    5  1.125e-05  8.734e-05  0.3207 y y y y y n n n 
   13   20    6  8.927e-06  7.339e-05  0.3207 y y y y y y n n Subspace collapsed.
   14   30    6  1.251e-05  1.083e-04  0.3207 y y y y y y n n 
   15   40    6  1.428e-05  1.324e-04  0.3207 y y y y y y n n 
   16   50    6  9.368e-06  8.976e-05  0.3207 y y y y y y n n 
   17   20    6  5.644e-06  5.435e-05  0.3207 y y y y y y n n Subspace collapsed.
   18   30    7  3.319e-06  3.185e-05  0.3207 y y y y y y y n 
   19   40    7  2.014e-06  1.947e-05  0.3207 y y y y y y y n 
   20   50    7  1.693e-06  1.651e-05  0.3207 y y y y y y y n 
   21   20    8  1.127e-06  1.104e-05  0.3207 y y y y y y y y Subspace collapsed.
   22   30    8  1.676e-06  1.653e-05  0.3207 y y y y y y y y 
   23   40    8  1.994e-06  1.979e-05  0.3207 y y y y y y y y 
   24   42    8  1.984e-06  1.970e-05  0.3207 y y y y y y y y 
   25   50    8  1.284e-06  1.279e-05  0.3207 y y y y y y y y 
   26   17    9  6.244e-07  6.219e-06  0.3207 y y y y y y y y Subspace collapsed.
   27   23    9  4.709e-07  4.690e-06  0.3207 y y y y y y y y 
   28   29    9  2.256e-07  2.248e-06  0.3207 y y y y y y y y 
   29   35    9  1.778e-07  1.773e-06  0.3207 y y y y y y y y 
   30   40    9  1.956e-07  1.952e-06  0.3207 y y y y y y y y 
   31   40    9  1.956e-07  1.952e-06  0.3207 y y y y y y y y 
   32   50    9  2.051e-07  2.049e-06  0.3207 y y y y y y y y 
   33   15    9  1.137e-07  1.136e-06  0.3207 y y y y y y y y Subspace collapsed.
   34   15    9  1.137e-07  1.136e-06  0.3207 y y y y y y y y 
   35   17    9  1.137e-07  1.136e-06  0.3207 y y y y y y y y 
   36   21   10  7.821e-08  7.815e-07  0.3207 y y y y y y y y Converged.
--------------------------------------------------------------------------------
  Davidson Summary: 
 ------------------------------------------------------------
  State  0: excitation energy =   0.3207 a.u.   (converged)
  State  1: excitation energy =   0.3329 a.u.   (converged)
  State  2: excitation energy =   0.3371 a.u.   (converged)
  State  3: excitation energy =   0.3615 a.u.   (converged)
  State  4: excitation energy =   0.3753 a.u.   (converged)
  State  5: excitation energy =   0.3872 a.u.   (converged)
  State  6: excitation energy =   0.4249 a.u.   (converged)
  State  7: excitation energy =   0.4470 a.u.   (converged)
  State  8: excitation energy =   0.4563 a.u.   (converged)
  State  9: excitation energy =   0.4649 a.u.   (converged)
 ------------------------------------------------------------

  Singlet states of irrep A ...  CPU 129.49 s  wall 35.26 s
  TDMs ...  CPU 0.97 s  wall 0.36 s
  SDMs ...  CPU 3.07 s  wall 0.74 s
  Starting TPA DIIS iterations ... 
------------------------------------ 
   It     Res. Norm  Remark
------------------------------------
                       Guess.
    1     4.401e+00  
    2     5.833e+00  
    3     1.075e+00  
    4     2.562e-01  
    5     6.567e-02  
    6     2.686e-02  
    7     8.223e-03  
    8     1.533e-03  
    9     5.504e-04  
   10     1.326e-04  
   11     4.460e-05  
   12     1.760e-05  
   13     5.674e-06  
   14     3.086e-06  
   15     5.438e-07  Converged.
   ... Converged in 15 steps (norm: 5.43792e-07)
------------------------------------
  Starting TPA DIIS iterations ... 
------------------------------------ 
   It     Res. Norm  Remark
------------------------------------
                       Guess.
    1     4.182e+00  
    2     5.537e+00  
    3     1.029e+00  
    4     2.553e-01  
    5     6.535e-02  
    6     2.673e-02  
    7     8.089e-03  
    8     1.438e-03  
    9     5.151e-04  
   10     1.127e-04  
   11     3.410e-05  
   12     1.288e-05  
   13     3.958e-06  
   14     1.982e-06  
   15     4.063e-07  Converged.
   ... Converged in 15 steps (norm: 4.06261e-07)
------------------------------------
  Starting TPA DIIS iterations ... 
------------------------------------ 
   It     Res. Norm  Remark
------------------------------------
                       Guess.
    1     6.848e-01  
    2     4.801e-01  
    3     1.696e-01  
    4     3.962e-02  
    5     1.601e-02  
    6     7.558e-03  
    7     1.039e-03  
    8     4.484e-04  
    9     1.244e-04  
   10     2.925e-05  
   11     5.307e-06  
   12     1.420e-06  
   13     6.077e-07  Converged.
   ... Converged in 13 steps (norm: 6.07665e-07)
------------------------------------
  Starting TPA DIIS iterations ... 
------------------------------------ 
   It     Res. Norm  Remark
------------------------------------
                       Guess.
    1     4.702e+00  
    2     6.373e+00  
    3     1.160e+00  
    4     2.861e-01  
    5     7.440e-02  
    6     3.071e-02  
    7     9.381e-03  
    8     1.759e-03  
    9     6.367e-04  
   10     1.578e-04  
   11     5.536e-05  
   12     2.215e-05  
   13     7.257e-06  
   14     3.863e-06  
   15     6.996e-07  Converged.
   ... Converged in 15 steps (norm: 6.9957e-07)
------------------------------------
  Starting TPA DIIS iterations ... 
------------------------------------ 
   It     Res. Norm  Remark
------------------------------------
                       Guess.
    1     4.467e+00  
    2     6.049e+00  
    3     1.110e+00  
    4     2.849e-01  
    5     7.405e-02  
    6     3.058e-02  
    7     9.229e-03  
    8     1.637e-03  
    9     5.893e-04  
   10     1.328e-04  
   11     4.049e-05  
   12     1.605e-05  
   13     4.823e-06  
   14     2.555e-06  
   15     5.099e-07  Converged.
   ... Converged in 15 steps (norm: 5.09905e-07)
------------------------------------
  Starting TPA DIIS iterations ... 
------------------------------------ 
   It     Res. Norm  Remark
------------------------------------
                       Guess.
    1     6.973e-01  
    2     4.979e-01  
    3     1.798e-01  
    4     4.354e-02  
    5     1.784e-02  
    6     8.325e-03  
    7     1.178e-03  
    8     5.320e-04  
    9     1.513e-04  
   10     3.343e-05  
   11     6.041e-06  
   12     1.680e-06  
   13     7.506e-07  Converged.
   ... Converged in 13 steps (norm: 7.50646e-07)
------------------------------------
  Starting TPA DIIS iterations ... 
------------------------------------ 
   It     Res. Norm  Remark
------------------------------------
                       Guess.
    1     4.813e+00  
    2     6.576e+00  
    3     1.191e+00  
    4     2.975e-01  
    5     7.773e-02  
    6     3.218e-02  
    7     9.823e-03  
    8     1.846e-03  
    9     6.701e-04  
   10     1.678e-04  
   11     5.976e-05  
   12     2.400e-05  
   13     7.910e-06  
   14     4.176e-06  
   15     7.632e-07  Converged.
   ... Converged in 15 steps (norm: 7.63231e-07)
------------------------------------
  Starting TPA DIIS iterations ... 
------------------------------------ 
   It     Res. Norm  Remark
------------------------------------
                       Guess.
    1     4.573e+00  
    2     6.241e+00  
    3     1.139e+00  
    4     2.962e-01  
    5     7.737e-02  
    6     3.205e-02  
    7     9.663e-03  
    8     1.713e-03  
    9     6.176e-04  
   10     1.407e-04  
   11     4.301e-05  
   12     1.734e-05  
   13     5.168e-06  
   14     2.795e-06  
   15     5.519e-07  Converged.
   ... Converged in 15 steps (norm: 5.51929e-07)
------------------------------------
  Starting TPA DIIS iterations ... 
------------------------------------ 
   It     Res. Norm  Remark
------------------------------------
                       Guess.
    1     7.017e-01  
    2     5.044e-01  
    3     1.835e-01  
    4     4.503e-02  
    5     1.852e-02  
    6     8.609e-03  
    7     1.232e-03  
    8     5.648e-04  
    9     1.618e-04  
   10     3.470e-05  
   11     6.317e-06  
   12     1.782e-06  
   13     8.084e-07  Converged.
   ... Converged in 13 steps (norm: 8.08442e-07)
------------------------------------
  Starting TPA DIIS iterations ... 
------------------------------------ 
   It     Res. Norm  Remark
------------------------------------
                       Guess.
    1     5.557e+00  
    2     7.963e+00  
    3     1.399e+00  
    4     3.781e-01  
    5     1.012e-01  
    6     4.272e-02  
    7     1.295e-02  
    8     2.469e-03  
    9     9.145e-04  
   10     2.431e-04  
   11     9.537e-05  
   12     3.879e-05  
   13     1.330e-05  
   14     6.612e-06  
   15     1.275e-06  
   16     6.117e-07  Converged.
   ... Converged in 16 steps (norm: 6.11687e-07)
------------------------------------
  Starting TPA DIIS iterations ... 
------------------------------------ 
   It     Res. Norm  Remark
------------------------------------
                       Guess.
    1     5.277e+00  
    2     7.557e+00  
    3     1.338e+00  
    4     3.758e-01  
    5     1.008e-01  
    6     4.258e-02  
    7     1.274e-02  
    8     2.247e-03  
    9     8.181e-04  
   10     2.000e-04  
   11     6.218e-05  
   12     2.763e-05  
   13     7.855e-06  
   14     4.829e-06  
   15     8.856e-07  Converged.
   ... Converged in 15 steps (norm: 8.85564e-07)
------------------------------------
  Starting TPA DIIS iterations ... 
------------------------------------ 
   It     Res. Norm  Remark
------------------------------------
                       Guess.
    1     7.283e-01  
    2     5.449e-01  
    3     2.077e-01  
    4     5.552e-02  
    5     2.303e-02  
    6     1.053e-02  
    7     1.630e-03  
    8     8.008e-04  
    9     2.364e-04  
   10     3.949e-05  
   11     8.244e-06  
   12     2.548e-06  
   13     1.268e-06  
   14     4.930e-07  Converged.
   ... Converged in 14 steps (norm: 4.92996e-07)
------------------------------------
  Starting TPA DIIS iterations ... 
------------------------------------ 
   It     Res. Norm  Remark
------------------------------------
                       Guess.
    1     6.066e+00  
    2     8.947e+00  
    3     1.541e+00  
    4     4.375e-01  
    5     1.185e-01  
    6     5.058e-02  
    7     1.525e-02  
    8     2.940e-03  
    9     1.103e-03  
   10     3.037e-04  
   11     1.264e-04  
   12     5.146e-05  
   13     1.809e-05  
   14     8.633e-06  
   15     1.713e-06  
   16     8.135e-07  Converged.
   ... Converged in 16 steps (norm: 8.13503e-07)
------------------------------------
  Starting TPA DIIS iterations ... 
------------------------------------ 
   It     Res. Norm  Remark
------------------------------------
                       Guess.
    1     5.760e+00  
    2     8.490e+00  
    3     1.473e+00  
    4     4.343e-01  
    5     1.181e-01  
    6     5.044e-02  
    7     1.500e-02  
    8     2.638e-03  
    9     9.659e-04  
   10     2.470e-04  
   11     7.775e-05  
   12     3.650e-05  
   13     1.011e-05  
   14     6.703e-06  
   15     1.169e-06  
   16     9.270e-07  Converged.
   ... Converged in 16 steps (norm: 9.27026e-07)
------------------------------------
  Starting TPA DIIS iterations ... 
------------------------------------ 
   It     Res. Norm  Remark
------------------------------------
                       Guess.
    1     7.443e-01  
    2     5.707e-01  
    3     2.236e-01  
    4     6.323e-02  
    5     2.603e-02  
    6     1.189e-02  
    7     1.939e-03  
    8     9.680e-04  
    9     2.886e-04  
   10     4.043e-05  
   11     9.688e-06  
   12     3.164e-06  
   13     1.663e-06  
   14     6.355e-07  Converged.
   ... Converged in 14 steps (norm: 6.35541e-07)
------------------------------------
  Starting TPA DIIS iterations ... 
------------------------------------ 
   It     Res. Norm  Remark
------------------------------------
                       Guess.
    1     6.566e+00  
    2     9.937e+00  
    3     1.679e+00  
    4     4.988e-01  
    5     1.364e-01  
    6     5.877e-02  
    7     1.763e-02  
    8     3.436e-03  
    9     1.305e-03  
   10     3.705e-04  
   11     1.623e-04  
   12     6.597e-05  
   13     2.374e-05  
   14     1.090e-05  
   15     2.216e-06  
   16     1.040e-06  
   17     1.657e-07  Converged.
   ... Converged in 17 steps (norm: 1.65683e-07)
------------------------------------
  Starting TPA DIIS iterations ... 
------------------------------------ 
   It     Res. Norm  Remark
------------------------------------
                       Guess.
    1     6.234e+00  
    2     9.430e+00  
    3     1.605e+00  
    4     4.946e-01  
    5     1.359e-01  
    6     5.863e-02  
    7     1.734e-02  
    8     3.040e-03  
    9     1.119e-03  
   10     2.985e-04  
   11     9.512e-05  
   12     4.676e-05  
   13     1.267e-05  
   14     8.959e-06  
   15     1.491e-06  
   16     1.241e-06  
   17     2.094e-07  Converged.
   ... Converged in 17 steps (norm: 2.09429e-07)
------------------------------------
  Starting TPA DIIS iterations ... 
------------------------------------ 
   It     Res. Norm  Remark
------------------------------------
                       Guess.
    1     7.586e-01  
    2     5.946e-01  
    3     2.388e-01  
    4     7.122e-02  
    5     2.890e-02  
    6     1.327e-02  
    7     2.271e-03  
    8     1.126e-03  
    9     3.390e-04  
   10     4.095e-05  
   11     1.123e-05  
   12     3.846e-06  
   13     2.123e-06  
   14     8.034e-07  Converged.
   ... Converged in 14 steps (norm: 8.0337e-07)
------------------------------------
  Starting TPA DIIS iterations ... 
------------------------------------ 
   It     Res. Norm  Remark
------------------------------------
                       Guess.
    1     8.688e+00  
    2     1.438e+01  
    3     2.256e+00  
    4     7.862e-01  
    5     2.203e-01  
    6     9.810e-02  
    7     2.883e-02  
    8     5.895e-03  
    9     2.348e-03  
   10     7.328e-04  
   11     3.767e-04  
   12     1.505e-04  
   13     5.847e-05  
   14     2.354e-05  
   15     5.149e-06  
   16     2.293e-06  
   17     4.233e-07  Converged.
   ... Converged in 17 steps (norm: 4.23316e-07)
------------------------------------
  Starting TPA DIIS iterations ... 
------------------------------------ 
   It     Res. Norm  Remark
------------------------------------
                       Guess.
    1     8.244e+00  
    2     1.365e+01  
    3     2.154e+00  
    4     7.768e-01  
    5     2.197e-01  
    6     9.797e-02  
    7     2.831e-02  
    8     4.913e-03  
    9     1.840e-03  
   10     5.761e-04  
   11     1.946e-04  
   12     1.094e-04  
   13     2.766e-05  
   14     2.335e-05  
   15     3.357e-06  
   16     2.886e-06  
   17     4.831e-07  Converged.
   ... Converged in 17 steps (norm: 4.83127e-07)
------------------------------------
  Starting TPA DIIS iterations ... 
------------------------------------ 
   It     Res. Norm  Remark
------------------------------------
                       Guess.
    1     8.077e-01  
    2     6.843e-01  
    3     2.988e-01  
    4     1.094e-01  
    5     4.054e-02  
    6     1.957e-02  
    7     3.937e-03  
    8     1.619e-03  
    9     5.349e-04  
   10     5.207e-05  
   11     1.923e-05  
   12     7.737e-06  
   13     5.041e-06  
   14     1.917e-06  
   15     6.307e-07  Converged.
   ... Converged in 15 steps (norm: 6.3074e-07)
------------------------------------
  Starting TPA DIIS iterations ... 
------------------------------------ 
   It     Res. Norm  Remark
------------------------------------
                       Guess.
    1     1.050e+01  
    2     1.846e+01  
    3     2.736e+00  
    4     1.060e+00  
    5     3.009e-01  
    6     1.368e-01  
    7     3.959e-02  
    8     8.433e-03  
    9     3.474e-03  
   10     1.143e-03  
   11     6.398e-04  
   12     2.519e-04  
   13     1.015e-04  
   14     3.819e-05  
   15     8.665e-06  
   16     3.742e-06  
   17     7.936e-07  Converged.
   ... Converged in 17 steps (norm: 7.93637e-07)
------------------------------------
  Starting TPA DIIS iterations ... 
------------------------------------ 
   It     Res. Norm  Remark
------------------------------------
                       Guess.
    1     9.964e+00  
    2     1.751e+01  
    3     2.611e+00  
    4     1.044e+00  
    5     3.002e-01  
    6     1.367e-01  
    7     3.882e-02  
    8     6.692e-03  
    9     2.539e-03  
   10     8.906e-04  
   11     3.195e-04  
   12     1.901e-04  
   13     4.574e-05  
   14     4.178e-05  
   15     5.671e-06  
   16     4.430e-06  
   17     1.030e-06  
   18     7.624e-07  Converged.
   ... Converged in 18 steps (norm: 7.62381e-07)
------------------------------------
  Starting TPA DIIS iterations ... 
------------------------------------ 
   It     Res. Norm  Remark
------------------------------------
                       Guess.
    1     8.397e-01  
    2     7.497e-01  
    3     3.455e-01  
    4     1.471e-01  
    5     5.057e-02  
    6     2.525e-02  
    7     5.592e-03  
    8     1.818e-03  
    9     6.851e-04  
   10     7.262e-05  
   11     2.803e-05  
   12     1.247e-05  
   13     9.069e-06  
   14     3.530e-06  
   15     9.880e-07  Converged.
   ... Converged in 15 steps (norm: 9.88038e-07)
------------------------------------
  Starting TPA DIIS iterations ... 
------------------------------------ 
   It     Res. Norm  Remark
------------------------------------
                       Guess.
    1     1.144e+01  
    2     2.066e+01  
    3     2.981e+00  
    4     1.209e+00  
    5     3.454e-01  
    6     1.585e-01  
    7     4.555e-02  
    8     9.900e-03  
    9     4.141e-03  
   10     1.390e-03  
   11     8.044e-04  
   12     3.148e-04  
   13     1.282e-04  
   14     4.717e-05  
   15     1.082e-05  
   16     4.646e-06  
   17     1.055e-06  
   18     6.347e-07  Converged.
   ... Converged in 18 steps (norm: 6.34664e-07)
------------------------------------
  Starting TPA DIIS iterations ... 
------------------------------------ 
   It     Res. Norm  Remark
------------------------------------
                       Guess.
    1     1.086e+01  
    2     1.961e+01  
    3     2.844e+00  
    4     1.190e+00  
    5     3.446e-01  
    6     1.583e-01  
    7     4.461e-02  
    8     7.670e-03  
    9     2.930e-03  
   10     1.082e-03  
   11     4.014e-04  
   12     2.424e-04  
   13     5.718e-05  
   14     5.344e-05  
   15     7.200e-06  
   16     5.199e-06  
   17     1.465e-06  
   18     1.034e-06  
   19     2.780e-07  Converged.
   ... Converged in 19 steps (norm: 2.7795e-07)
------------------------------------
  Starting TPA DIIS iterations ... 
------------------------------------ 
   It     Res. Norm  Remark
------------------------------------
                       Guess.
    1     8.539e-01  
    2     7.805e-01  
    3     3.684e-01  
    4     1.683e-01  
    5     5.597e-02  
    6     2.815e-02  
    7     6.498e-03  
    8     1.875e-03  
    9     7.593e-04  
   10     8.509e-05  
   11     3.336e-05  
   12     1.538e-05  
   13     1.173e-05  
   14     4.642e-06  
   15     1.447e-06  
   16     1.061e-06  
   17     5.353e-07  Converged.
   ... Converged in 17 steps (norm: 5.35308e-07)
------------------------------------
  Starting TPA DIIS iterations ... 
------------------------------------ 
   It     Res. Norm  Remark
------------------------------------
                       Guess.
    1     1.244e+01  
    2     2.307e+01  
    3     3.237e+00  
    4     1.372e+00  
    5     3.945e-01  
    6     1.827e-01  
    7     5.212e-02  
    8     1.157e-02  
    9     4.909e-03  
   10     1.678e-03  
   11     9.999e-04  
   12     3.891e-04  
   13     1.595e-04  
   14     5.776e-05  
   15     1.334e-05  
   16     5.739e-06  
   17     1.394e-06  
   18     8.616e-07  Converged.
   ... Converged in 18 steps (norm: 8.61633e-07)
------------------------------------
  Starting TPA DIIS iterations ... 
------------------------------------ 
   It     Res. Norm  Remark
------------------------------------
                       Guess.
    1     1.180e+01  
    2     2.189e+01  
    3     3.088e+00  
    4     1.349e+00  
    5     3.936e-01  
    6     1.825e-01  
    7     5.101e-02  
    8     8.746e-03  
    9     3.366e-03  
   10     1.306e-03  
   11     5.030e-04  
   12     3.061e-04  
   13     7.120e-05  
   14     6.737e-05  
   15     9.133e-06  
   16     5.976e-06  
   17     2.047e-06  
   18     1.361e-06  
   19     3.738e-07  Converged.
   ... Converged in 19 steps (norm: 3.73839e-07)
------------------------------------
  Starting TPA DIIS iterations ... 
------------------------------------ 
   It     Res. Norm  Remark
------------------------------------
                       Guess.
    1     8.675e-01  
    2     8.114e-01  
    3     3.918e-01  
    4     1.921e-01  
    5     6.188e-02  
    6     3.114e-02  
    7     7.483e-03  
    8     1.923e-03  
    9     8.363e-04  
   10     9.911e-05  
   11     3.969e-05  
   12     1.870e-05  
   13     1.486e-05  
   14     6.037e-06  
   15     2.160e-06  
   16     1.410e-06  
   17     7.604e-07  Converged.
   ... Converged in 17 steps (norm: 7.6039e-07)
------------------------------------
  Two-photon absorbption ...  CPU 118.53 s  wall 24.47 s
  Transition density matrix of state singlet_A_1 printed to ASCII file 'State_singlet_A_1_Transition.txt'
  Transition density matrix of state singlet_A_2 printed to ASCII file 'State_singlet_A_2_Transition.txt'
  Transition density matrix of state singlet_A_3 printed to ASCII file 'State_singlet_A_3_Transition.txt'
  Transition density matrix of state singlet_A_4 printed to ASCII file 'State_singlet_A_4_Transition.txt'
  Transition density matrix of state singlet_A_5 printed to ASCII file 'State_singlet_A_5_Transition.txt'
  Transition density matrix of state singlet_A_6 printed to ASCII file 'State_singlet_A_6_Transition.txt'
  Transition density matrix of state singlet_A_7 printed to ASCII file 'State_singlet_A_7_Transition.txt'
  Transition density matrix of state singlet_A_8 printed to ASCII file 'State_singlet_A_8_Transition.txt'
  Transition density matrix of state singlet_A_9 printed to ASCII file 'State_singlet_A_9_Transition.txt'
  Transition density matrix of state singlet_A_10 printed to ASCII file 'State_singlet_A_10_Transition.txt'
  Transition properties ...  CPU 0.17 s  wall 0.54 s
  Difference density matrix of state singlet_A_1 printed to ASCII file 'State_singlet_A_1_Difference.txt'
  Total density matrix of state singlet_A_1 printed to ASCII file 'State_singlet_A_1_Total.txt'
  Difference density matrix of state singlet_A_2 printed to ASCII file 'State_singlet_A_2_Difference.txt'
  Total density matrix of state singlet_A_2 printed to ASCII file 'State_singlet_A_2_Total.txt'
  Difference density matrix of state singlet_A_3 printed to ASCII file 'State_singlet_A_3_Difference.txt'
  Total density matrix of state singlet_A_3 printed to ASCII file 'State_singlet_A_3_Total.txt'
  Difference density matrix of state singlet_A_4 printed to ASCII file 'State_singlet_A_4_Difference.txt'
  Total density matrix of state singlet_A_4 printed to ASCII file 'State_singlet_A_4_Total.txt'
  Difference density matrix of state singlet_A_5 printed to ASCII file 'State_singlet_A_5_Difference.txt'
  Total density matrix of state singlet_A_5 printed to ASCII file 'State_singlet_A_5_Total.txt'
  Difference density matrix of state singlet_A_6 printed to ASCII file 'State_singlet_A_6_Difference.txt'
  Total density matrix of state singlet_A_6 printed to ASCII file 'State_singlet_A_6_Total.txt'
  Difference density matrix of state singlet_A_7 printed to ASCII file 'State_singlet_A_7_Difference.txt'
  Total density matrix of state singlet_A_7 printed to ASCII file 'State_singlet_A_7_Total.txt'
  Difference density matrix of state singlet_A_8 printed to ASCII file 'State_singlet_A_8_Difference.txt'
  Total density matrix of state singlet_A_8 printed to ASCII file 'State_singlet_A_8_Total.txt'
  Difference density matrix of state singlet_A_9 printed to ASCII file 'State_singlet_A_9_Difference.txt'
  Total density matrix of state singlet_A_9 printed to ASCII file 'State_singlet_A_9_Total.txt'
  Difference density matrix of state singlet_A_10 printed to ASCII file 'State_singlet_A_10_Difference.txt'
  Total density matrix of state singlet_A_10 printed to ASCII file 'State_singlet_A_10_Total.txt'
  Properties ...  CPU 0.34 s  wall 0.99 s
  ISR TDMS ...  CPU 15.64 s  wall 4.28 s
  ISR transition properties ...  CPU 0.23 s  wall 0.10 s
  Sum-over-states TPA ...  CPU 0.00 s  wall 0.00 s

--------------------------------------------------------------------------------
                   State-averaged natural transition orbitals
--------------------------------------------------------------------------------
--------------------------------------------------------------------------------
  SA-NTO decomposition ...  CPU 0.01 s  wall 0.03 s

--------------------------------------------------------------------------------
                             Excited State Summary
--------------------------------------------------------------------------------
--------------------------------------------------------------------------------

  Excited state 1 (singlet, A)                                     [converged]
  ----------------------------------------------------------------------------
  Term symbol:  2 (1) A                                     R^2 =  6.15658e-14

  Total energy:                                            -77.9988183634 a.u.
  Excitation energy:                                               8.726896 eV

  Osc. strength:                                                      0.434490
  Trans. dip. moment [a.u.]:           [  -1.031886,    0.983535,    0.006847]
  <i|r^2|0> [a.u.]:                    [  -6.071805,    0.250706,   -0.018181]
  Two-photon absorption cross-section (SoS) [a.u.]:                   0.002510
  Two-photon absorption matrix (SoS) [a.u.]:
                                       |    0.001905    0.003894    0.008819 |
                                       |    0.003894   -0.010247   -0.004873 |
                                       |    0.008819   -0.004873   -0.010445 |
  Two-photon absorption cross-section [a.u.]:                         0.094091
  Two-photon absorption matrix [a.u.]:
                                       |    0.004154   -0.002562    0.089534 |
                                       |   -0.002562   -0.016218    0.059777 |
                                       |    0.089534    0.059777    0.005093 |

  Dip. moment [a.u.]:                  [  -0.000035,   -0.000142,    0.014247]
  Total dipole [Debye]:                                               0.036214
  <r^2> [a.u.]:                        [ 176.075279,   35.613694,   11.888027]
  Total <r^2> [a.u.]:                                               223.577000

  V1^2 = 0.9711, V2^2 = 0.0289

  Important amplitudes:
      occ i     occ j     vir a      vir b          v   
    -----------------------------------------------------
     8 (A) A              9 (A) A                -0.6755
     7 (A) A              9 (A) A                -0.0874
     6 (A) A             14 (A) A                -0.0616
     4 (A) A             10 (A) A                 0.0598
     7 (A) A             16 (A) A                -0.0563
     5 (A) A             13 (A) A                 0.0507
     6 (A) A             23 (A) A                -0.0480
     8 (A) A             20 (A) A                -0.0347
     6 (A) A             19 (A) A                -0.0305
     3 (A) A             12 (A) A                -0.0278
     5 (A) A             22 (A) A                 0.0212
     7 (A) A             11 (A) A                -0.0211
     4 (A) A             24 (A) A                 0.0185
     3 (A) A             26 (A) A                 0.0183
     8 (A) A   8 (A) B   17 (A) A   20 (A) B      0.0182
     6 (A) A             26 (A) A                -0.0162
     8 (A) A   8 (A) B    9 (A) A   28 (A) B      0.0154
     7 (A) A             21 (A) A                -0.0147
     3 (A) A             14 (A) A                 0.0138
     6 (A) A             12 (A) A                -0.0130
     3 (A) A   4 (A) B    9 (A) A    9 (A) B     -0.0128
     3 (A) A             19 (A) A                 0.0118
     8 (A) A   8 (A) B   18 (A) A   19 (A) B     -0.0112
     7 (A) A             20 (A) A                -0.0100
     7 (A) A             32 (A) A                -0.0094
     7 (A) A             36 (A) A                -0.0084
     3 (A) A             23 (A) A                 0.0079
     8 (A) A   8 (A) B   25 (A) A   29 (A) B      0.0073
     6 (A) A             35 (A) A                -0.0071
     6 (A) A             40 (A) A                 0.0067
     8 (A) A   8 (A) B    9 (A) A   27 (A) B     -0.0064
     3 (A) A   6 (A) B    9 (A) A   28 (A) B     -0.0060
     5 (A) A   8 (A) B   11 (A) A   20 (A) B      0.0059
     7 (A) A   8 (A) B   13 (A) A   20 (A) B     -0.0059
     6 (A) A              9 (A) A                 0.0058
     5 (A) A   8 (A) B   16 (A) A    9 (A) B      0.0058
     5 (A) A   7 (A) B    9 (A) A    9 (A) B      0.0058
     5 (A) A   8 (A) B   11 (A) A    9 (A) B     -0.0058
     5 (A) A             27 (A) A                -0.0057
     3 (A) A   5 (A) B    9 (A) A   25 (A) B      0.0057
    -----------------------------------------------------

  Density matrix analysis:
  ------------------------
  NOs
    Occupation of frontier NOs:
       0.9507   1.0210
    Number of electrons: 16.000000
    Number of unpaired electrons: n_u =  2.31408, n_u,nl =  2.03269
    NO participation ratio (PR_NO):  2.860188
  
  
  Mulliken Population Analysis
  Atom      Charge (e)              h+              e-           Del q
  --------------------------------------------------------------------
   1 H        0.061249        0.022696       -0.012436        0.010261
   2 C       -0.120360        0.485632       -0.505121       -0.019489
   3 H        0.060004        0.021941       -0.012508        0.009433
   4 C       -0.120565        0.485484       -0.505221       -0.019737
   5 H        0.059826        0.022538       -0.012707        0.009832
   6 H        0.059846        0.022253       -0.012552        0.009701
  --------------------------------------------------------------------
  Sum:       -0.000000        1.060543       -1.060543        0.000000
  
  Multipole moment analysis of the density matrix
    Molecular charge:                      0.000000
    Number of electrons:                   16.000000
      Center of electronic charge [Ang]: [ -1.560575,  -0.065598,   0.004007]
    Total nuclear charge:                  16.000000
      Center of nuclear charge [Ang]:    [ -1.560576,  -0.065602,   0.004478]
    Dipole moment [D]:                     0.036214
      Cartesian components [D]:          [ -0.000088,  -0.000362,   0.036212]
    RMS size of the density [Ang]:         1.213788
      Cartesian components [Ang]:        [  0.803888,   0.786766,   0.456120]
  
  Exciton analysis of the difference density matrix
    <r_h> [Ang]:                  [ -1.559799,  -0.065007,  -0.001326]
    <r_e> [Ang]:                  [ -1.560390,  -0.064957,  -0.002815]
    |<r_e - r_h>| [Ang]:            0.001603
    Hole size [Ang]:                1.290095
      Cartesian components [Ang]: [  0.736118,   0.718810,   0.778323]
    Electron size [Ang]:            1.463010
      Cartesian components [Ang]: [  0.853726,   0.830226,   0.849867]

  Transition density matrix analysis:
  -----------------------------------
  
  CT numbers (Mulliken)
    omega =     0.9529
    <Phe> =    -0.1581
  
  Exciton analysis of the transition density matrix
    Trans. dipole moment [D]:             1.811686
      Cartesian components [D]:         [ -1.311396,   1.249949,   0.008701]
    <r_h> [Ang]:                        [ -1.559798,  -0.065341,  -0.000386]
    <r_e> [Ang]:                        [ -1.560517,  -0.065028,  -0.003762]
    |<r_e - r_h>| [Ang]:                  0.003466
    Hole size [Ang]:                      1.221414
      Cartesian components [Ang]:       [  0.661274,   0.645665,   0.798552]
    Electron size [Ang]:                  1.484995
      Cartesian components [Ang]:       [  0.863785,   0.838626,   0.869363]
    RMS electron-hole separation [Ang]:   1.939934
      Cartesian components [Ang]:       [  1.112533,   1.079331,   1.166473]
    Covariance(r_h, r_e) [Ang^2]:        -0.033136
    Correlation coefficient:             -0.018269
    Center-of-mass size [Ang]:            0.952731
      Cartesian components [Ang]:       [  0.531292,   0.518507,   0.597140]

  Decomposition into state-averaged NTOs
    H- 0 -> L+ 0:  0.6648 ( 88.4%)
    H- 1 -> L+ 0: -0.0838 (  1.4%)
    H- 2 -> L+ 5: -0.0827 (  1.4%)
                   omega =  95.3%
  ----------------------------------------------------------------------------


  Excited state 2 (singlet, A)                                     [converged]
  ----------------------------------------------------------------------------
  Term symbol:  3 (1) A                                     R^2 =  1.28939e-13

  Total energy:                                            -77.9866216273 a.u.
  Excitation energy:                                               9.058786 eV

  Osc. strength:                                                      0.009539
  Trans. dip. moment [a.u.]:           [  -0.155428,    0.137178,    0.001997]
  <i|r^2|0> [a.u.]:                    [  -0.985073,   -0.025350,    0.128024]
  Two-photon absorption cross-section (SoS) [a.u.]:                   5.023036
  Two-photon absorption matrix (SoS) [a.u.]:
                                       |   -0.074286   -0.051775    0.546115 |
                                       |   -0.051775   -0.029175    0.564601 |
                                       |    0.546115    0.564601    0.099959 |
  Two-photon absorption cross-section [a.u.]:                         0.132691
  Two-photon absorption matrix [a.u.]:
                                       |   -0.096931    0.001179   -0.041350 |
                                       |    0.001179    0.107384   -0.065860 |
                                       |   -0.041350   -0.065860   -0.012113 |

  Dip. moment [a.u.]:                  [  -0.004136,    0.009074,    0.025749]
  Total dipole [Debye]:                                               0.070185
  <r^2> [a.u.]:                        [ 174.582655,   34.000325,   13.132728]
  Total <r^2> [a.u.]:                                               221.715708

  V1^2 = 0.9545, V2^2 = 0.0455

  Important amplitudes:
      occ i     occ j     vir a      vir b          v   
    -----------------------------------------------------
     7 (A) A              9 (A) A                 0.6634
     8 (A) A             11 (A) A                 0.1493
     8 (A) A              9 (A) A                -0.0853
     7 (A) A             20 (A) A                 0.0752
     5 (A) A   8 (A) B    9 (A) A    9 (A) B     -0.0313
     8 (A) A             16 (A) A                -0.0277
     8 (A) A             21 (A) A                 0.0177
     5 (A) A             28 (A) A                -0.0140
     4 (A) A   7 (A) B    9 (A) A   19 (A) B     -0.0134
     5 (A) A   7 (A) B    9 (A) A   16 (A) B      0.0132
     7 (A) A   8 (A) B   20 (A) A   17 (A) B     -0.0104
     5 (A) A   8 (A) B    9 (A) A   20 (A) B     -0.0095
     6 (A) A             14 (A) A                -0.0090
     4 (A) A   6 (A) B    9 (A) A   16 (A) B     -0.0090
     5 (A) A   6 (A) A    9 (A) A   23 (A) A      0.0090
     7 (A) A   8 (A) A    9 (A) A   28 (A) A      0.0088
     5 (A) A   6 (A) A    9 (A) A   14 (A) A      0.0088
     4 (A) A             10 (A) A                 0.0086
     5 (A) A   6 (A) B    9 (A) A   19 (A) B      0.0086
     4 (A) A   5 (A) A    9 (A) A   10 (A) A      0.0084
     6 (A) A   7 (A) B    9 (A) A   18 (A) B      0.0082
     5 (A) A   6 (A) B    9 (A) A   23 (A) B      0.0079
     3 (A) A   7 (A) B    9 (A) A   18 (A) B      0.0079
     7 (A) A             16 (A) A                -0.0079
     5 (A) A   7 (A) A    9 (A) A   16 (A) A      0.0078
     8 (A) A   7 (A) B    9 (A) A   28 (A) B     -0.0077
     4 (A) A   8 (A) B    9 (A) A   25 (A) B      0.0076
     5 (A) A             13 (A) A                 0.0075
     7 (A) A   8 (A) B   17 (A) A   20 (A) B     -0.0074
     4 (A) A   7 (A) B   19 (A) A    9 (A) B     -0.0073
     7 (A) A   8 (A) B   19 (A) A   18 (A) B      0.0071
     5 (A) A   5 (A) B    9 (A) A   13 (A) B     -0.0071
     5 (A) A   8 (A) A    9 (A) A   20 (A) A     -0.0068
     6 (A) A             23 (A) A                -0.0067
     4 (A) A   5 (A) B    9 (A) A   18 (A) B     -0.0067
     7 (A) A   7 (A) B   20 (A) A   22 (A) B      0.0065
     7 (A) A   8 (A) B   17 (A) A    9 (A) B     -0.0064
     5 (A) A   6 (A) B    9 (A) A   14 (A) B      0.0063
     4 (A) A   7 (A) A    9 (A) A   19 (A) A     -0.0061
     4 (A) A   5 (A) B   10 (A) A    9 (A) B     -0.0061
    -----------------------------------------------------

  Density matrix analysis:
  ------------------------
  NOs
    Occupation of frontier NOs:
       0.9568   1.0537
    Number of electrons: 16.000000
    Number of unpaired electrons: n_u =  2.35436, n_u,nl =  2.06239
    NO participation ratio (PR_NO):  3.028850
  
  
  Mulliken Population Analysis
  Atom      Charge (e)              h+              e-           Del q
  --------------------------------------------------------------------
   1 H        0.145746        0.118548       -0.023789        0.094758
   2 C       -0.297136        0.274056       -0.470322       -0.196265
   3 H        0.150472        0.125320       -0.025419        0.099901
   4 C       -0.296881        0.276349       -0.472402       -0.196053
   5 H        0.152530        0.126146       -0.023610        0.102536
   6 H        0.145268        0.120433       -0.025310        0.095123
  --------------------------------------------------------------------
  Sum:       -0.000000        1.040852       -1.040852        0.000000
  
  Multipole moment analysis of the density matrix
    Molecular charge:                      -0.000000
    Number of electrons:                   16.000000
      Center of electronic charge [Ang]: [ -1.560439,  -0.065902,   0.003627]
    Total nuclear charge:                  16.000000
      Center of nuclear charge [Ang]:    [ -1.560576,  -0.065602,   0.004478]
    Dipole moment [D]:                     0.070185
      Cartesian components [D]:          [ -0.010511,   0.023065,   0.065448]
    RMS size of the density [Ang]:         1.200455
      Cartesian components [Ang]:        [  0.787741,   0.768585,   0.479409]
  
  Exciton analysis of the difference density matrix
    <r_h> [Ang]:                  [ -1.564723,  -0.062635,   0.005443]
    <r_e> [Ang]:                  [ -1.563241,  -0.067270,  -0.001922]
    |<r_e - r_h>| [Ang]:            0.008827
    Hole size [Ang]:                1.482412
      Cartesian components [Ang]: [  0.991795,   0.999214,   0.464175]
    Electron size [Ang]:            1.479116
      Cartesian components [Ang]: [  0.882676,   0.860009,   0.817956]

  Transition density matrix analysis:
  -----------------------------------
  
  CT numbers (Mulliken)
    omega =     0.9224
    <Phe> =    -0.0148
  
  Exciton analysis of the transition density matrix
    Trans. dipole moment [D]:             0.263472
      Cartesian components [D]:         [ -0.197529,   0.174336,   0.002537]
    <r_h> [Ang]:                        [ -1.565276,  -0.061960,   0.007199]
    <r_e> [Ang]:                        [ -1.562828,  -0.067861,  -0.003572]
    |<r_e - r_h>| [Ang]:                  0.012523
    Hole size [Ang]:                      1.508516
      Cartesian components [Ang]:       [  1.012095,   1.021951,   0.454863]
    Electron size [Ang]:                  1.476716
      Cartesian components [Ang]:       [  0.874228,   0.850110,   0.832902]
    RMS electron-hole separation [Ang]:   2.091825
      Cartesian components [Ang]:       [  1.322087,   1.315009,   0.947929]
    Covariance(r_h, r_e) [Ang^2]:         0.040368
    Correlation coefficient:              0.018121
    Center-of-mass size [Ang]:            1.065017
      Cartesian components [Ang]:       [  0.676261,   0.671738,   0.475079]

  Decomposition into state-averaged NTOs
    H- 1 -> L+ 0:  0.6562 ( 86.1%)
    H- 0 -> L+ 2: -0.1497 (  4.5%)
    H- 0 -> L+ 0:  0.0804 (  1.3%)
                   omega =  92.2%
  ----------------------------------------------------------------------------


  Excited state 3 (singlet, A)                                     [converged]
  ----------------------------------------------------------------------------
  Term symbol:  4 (1) A                                     R^2 =  1.53583e-13

  Total energy:                                            -77.9824319264 a.u.
  Excitation energy:                                               9.172793 eV

  Osc. strength:                                                      0.025413
  Trans. dip. moment [a.u.]:           [   0.004490,   -0.034248,    0.334496]
  <i|r^2|0> [a.u.]:                    [   0.116391,   -0.081058,   -0.010625]
  Two-photon absorption cross-section (SoS) [a.u.]:                   2.442615
  Two-photon absorption matrix (SoS) [a.u.]:
                                       |    0.527543    0.023666    0.025466 |
                                       |    0.023666   -0.555144   -0.027642 |
                                       |    0.025466   -0.027642   -0.106176 |
  Two-photon absorption cross-section [a.u.]:                         1.333566
  Two-photon absorption matrix [a.u.]:
                                       |    0.341585    0.033137    0.024671 |
                                       |    0.033137   -0.440692   -0.024205 |
                                       |    0.024671   -0.024205   -0.065767 |

  Dip. moment [a.u.]:                  [  -0.016485,    0.006558,   -0.015385]
  Total dipole [Debye]:                                               0.059689
  <r^2> [a.u.]:                        [ 180.766243,   40.614658,   11.011160]
  Total <r^2> [a.u.]:                                               232.392061

  V1^2 = 0.9587, V2^2 = 0.0413

  Important amplitudes:
      occ i     occ j     vir a      vir b          v   
    -----------------------------------------------------
     8 (A) A             10 (A) A                -0.6891
     8 (A) A             24 (A) A                -0.0507
     8 (A) A             18 (A) A                 0.0312
     4 (A) A              9 (A) A                 0.0237
     8 (A) A   8 (A) B    9 (A) A   12 (A) B     -0.0219
     8 (A) A   8 (A) B   10 (A) A   17 (A) B     -0.0173
     8 (A) A             15 (A) A                -0.0168
     5 (A) A   8 (A) B   11 (A) A   10 (A) B     -0.0165
     7 (A) A   8 (A) B   13 (A) A   10 (A) B      0.0141
     4 (A) A   8 (A) B   12 (A) A   10 (A) B      0.0111
     6 (A) A   8 (A) A   10 (A) A   15 (A) A     -0.0110
     7 (A) A   8 (A) B   22 (A) A   10 (A) B      0.0108
     6 (A) A   8 (A) B   15 (A) A   10 (A) B      0.0108
     4 (A) A   8 (A) A   10 (A) A   12 (A) A     -0.0106
     7 (A) A   8 (A) A   10 (A) A   22 (A) A     -0.0099
     7 (A) A   8 (A) A   10 (A) A   13 (A) A     -0.0097
     5 (A) A   8 (A) B   21 (A) A   10 (A) B     -0.0094
     5 (A) A   8 (A) A   10 (A) A   11 (A) A      0.0094
     6 (A) A   8 (A) A   10 (A) A   18 (A) A     -0.0088
     6 (A) A   8 (A) B   10 (A) A   10 (A) B     -0.0087
     7 (A) A   8 (A) A   12 (A) A   16 (A) A     -0.0082
     5 (A) A   8 (A) A   10 (A) A   21 (A) A      0.0080
     3 (A) A   4 (A) B   10 (A) A    9 (A) B     -0.0079
     4 (A) A   8 (A) B   19 (A) A   10 (A) B     -0.0075
     8 (A) A   8 (A) B    9 (A) A   23 (A) B     -0.0075
     3 (A) A   8 (A) B   10 (A) A   10 (A) B     -0.0072
     5 (A) A   8 (A) B   10 (A) A   11 (A) B     -0.0071
     3 (A) A   8 (A) A   10 (A) A   24 (A) A      0.0071
     7 (A) A   8 (A) B   16 (A) A   12 (A) B      0.0070
     3 (A) A   8 (A) B   10 (A) A   18 (A) B      0.0069
     8 (A) A   8 (A) B    9 (A) A   19 (A) B      0.0068
     8 (A) A   8 (A) B   10 (A) A   28 (A) B      0.0068
     6 (A) A   8 (A) B   18 (A) A   10 (A) B      0.0066
     3 (A) A   6 (A) B   10 (A) A   28 (A) B     -0.0058
     7 (A) A   8 (A) B   12 (A) A   11 (A) B     -0.0057
     3 (A) A   5 (A) B   10 (A) A   25 (A) B      0.0056
     5 (A) A   8 (A) A   10 (A) A   16 (A) A     -0.0056
     3 (A) A   8 (A) A   10 (A) A   18 (A) A      0.0055
     4 (A) A   8 (A) A   10 (A) A   23 (A) A     -0.0055
     4 (A) A             20 (A) A                 0.0052
    -----------------------------------------------------

  Density matrix analysis:
  ------------------------
  NOs
    Occupation of frontier NOs:
       0.9814   0.9851
    Number of electrons: 16.000000
    Number of unpaired electrons: n_u =  2.28521, n_u,nl =  2.02439
    NO participation ratio (PR_NO):  2.691736
  
  
  Mulliken Population Analysis
  Atom      Charge (e)              h+              e-           Del q
  --------------------------------------------------------------------
   1 H       -0.165815        0.053850       -0.270653       -0.216803
   2 C        0.328453        0.539380       -0.110056        0.429324
   3 H       -0.165314        0.053782       -0.269667       -0.215885
   4 C        0.327492        0.536912       -0.108592        0.428320
   5 H       -0.163901        0.054034       -0.267930       -0.213895
   6 H       -0.160915        0.053945       -0.265005       -0.211060
  --------------------------------------------------------------------
  Sum:       -0.000000        1.291903       -1.291903        0.000000
  
  Multipole moment analysis of the density matrix
    Molecular charge:                      -0.000000
    Number of electrons:                   16.000000
      Center of electronic charge [Ang]: [ -1.560031,  -0.065819,   0.004987]
    Total nuclear charge:                  16.000000
      Center of nuclear charge [Ang]:    [ -1.560576,  -0.065602,   0.004478]
    Dipole moment [D]:                     0.059689
      Cartesian components [D]:          [ -0.041901,   0.016670,  -0.039105]
    RMS size of the density [Ang]:         1.276410
      Cartesian components [Ang]:        [  0.854421,   0.840534,   0.438965]
  
  Exciton analysis of the difference density matrix
    <r_h> [Ang]:                  [ -1.559500,  -0.066116,   0.000983]
    <r_e> [Ang]:                  [ -1.553248,  -0.068819,   0.011899]
    |<r_e - r_h>| [Ang]:            0.012867
    Hole size [Ang]:                1.410372
      Cartesian components [Ang]: [  0.834000,   0.819988,   0.788170]
    Electron size [Ang]:            2.076329
      Cartesian components [Ang]: [  1.373617,   1.377564,   0.725696]

  Transition density matrix analysis:
  -----------------------------------
  
  CT numbers (Mulliken)
    omega =     0.9260
    <Phe> =    -0.0109
  
  Exciton analysis of the transition density matrix
    Trans. dipole moment [D]:             0.427363
      Cartesian components [D]:         [  0.005706,  -0.043525,   0.425103]
    <r_h> [Ang]:                        [ -1.559831,  -0.065646,  -0.002096]
    <r_e> [Ang]:                        [ -1.550628,  -0.069903,   0.014798]
    |<r_e - r_h>| [Ang]:                  0.019704
    Hole size [Ang]:                      1.213190
      Cartesian components [Ang]:       [  0.636531,   0.623816,   0.823111]
    Electron size [Ang]:                  2.296711
      Cartesian components [Ang]:       [  1.518232,   1.525213,   0.802232]
    RMS electron-hole separation [Ang]:   2.587578
      Cartesian components [Ang]:       [  1.638768,   1.640852,   1.147870]
    Covariance(r_h, r_e) [Ang^2]:         0.025769
    Correlation coefficient:              0.009248
    Center-of-mass size [Ang]:            1.303673
      Cartesian components [Ang]:       [  0.826881,   0.827416,   0.575512]

  Decomposition into state-averaged NTOs
    H- 0 -> L+ 1: -0.6797 ( 92.4%)
                   omega =  92.6%
  ----------------------------------------------------------------------------


  Excited state 4 (singlet, A)                                     [converged]
  ----------------------------------------------------------------------------
  Term symbol:  5 (1) A                                     R^2 =  2.57631e-13

  Total energy:                                            -77.9580378742 a.u.
  Excitation energy:                                               9.836589 eV

  Osc. strength:                                                      0.001648
  Trans. dip. moment [a.u.]:           [   0.060660,   -0.056191,    0.000449]
  <i|r^2|0> [a.u.]:                    [   0.340625,   -0.027978,    0.030838]
  Two-photon absorption cross-section (SoS) [a.u.]:                 149.778587
  Two-photon absorption matrix (SoS) [a.u.]:
                                       |   -0.350149   -0.283573    3.004538 |
                                       |   -0.283573   -0.210555    3.061992 |
                                       |    3.004538    3.061992    0.557479 |
  Two-photon absorption cross-section [a.u.]:                        92.190993
  Two-photon absorption matrix [a.u.]:
                                       |   -0.350491   -0.226404    2.343325 |
                                       |   -0.226404   -0.092147    2.412472 |
                                       |    2.343325    2.412472    0.437599 |

  Dip. moment [a.u.]:                  [  -0.002927,    0.008323,   -0.016385]
  Total dipole [Debye]:                                               0.047299
  <r^2> [a.u.]:                        [ 181.225652,   40.586083,   10.749467]
  Total <r^2> [a.u.]:                                               232.561202

  V1^2 = 0.9635, V2^2 = 0.0365

  Important amplitudes:
      occ i     occ j     vir a      vir b          v   
    -----------------------------------------------------
     8 (A) A             11 (A) A                 0.6695
     7 (A) A              9 (A) A                -0.1506
     8 (A) A             21 (A) A                 0.0781
     8 (A) A             16 (A) A                -0.0644
     8 (A) A   8 (A) B    9 (A) A   13 (A) B     -0.0167
     5 (A) A   8 (A) B   11 (A) A   11 (A) B      0.0155
     8 (A) A              9 (A) A                 0.0143
     8 (A) A   8 (A) B   11 (A) A   17 (A) B      0.0140
     7 (A) A             20 (A) A                -0.0137
     7 (A) A   8 (A) B   13 (A) A   11 (A) B     -0.0127
     5 (A) A   8 (A) A   11 (A) A   21 (A) A     -0.0110
     4 (A) A   8 (A) B   12 (A) A   11 (A) B     -0.0110
     8 (A) A   8 (A) B    9 (A) A   22 (A) B     -0.0107
     7 (A) A   8 (A) A   11 (A) A   22 (A) A      0.0096
     8 (A) A             12 (A) A                 0.0096
     6 (A) A   8 (A) B   15 (A) A   11 (A) B     -0.0090
     6 (A) A   8 (A) B   10 (A) A   11 (A) B      0.0090
     7 (A) A   8 (A) B   22 (A) A   11 (A) B     -0.0089
     3 (A) A   4 (A) B   11 (A) A    9 (A) B      0.0083
     3 (A) A   8 (A) B   11 (A) A   18 (A) B     -0.0081
     6 (A) A   8 (A) A   11 (A) A   15 (A) A      0.0080
     6 (A) A              9 (A) A                -0.0079
     7 (A) A   8 (A) A   13 (A) A   16 (A) A     -0.0078
     7 (A) A   8 (A) A   11 (A) A   13 (A) A      0.0077
     5 (A) A   8 (A) B   21 (A) A   11 (A) B      0.0071
     4 (A) A   8 (A) B   19 (A) A   11 (A) B      0.0070
     5 (A) A   8 (A) B    9 (A) A    9 (A) B      0.0068
     4 (A) A   8 (A) A   11 (A) A   12 (A) A      0.0062
     6 (A) A   8 (A) A   11 (A) A   18 (A) A      0.0062
     6 (A) A   8 (A) B   18 (A) A   11 (A) B     -0.0060
     7 (A) A   8 (A) B   16 (A) A   13 (A) B      0.0057
     3 (A) A   8 (A) A   11 (A) A   18 (A) A     -0.0056
     3 (A) A   6 (A) B   11 (A) A   28 (A) B      0.0056
     5 (A) A   8 (A) B   10 (A) A   10 (A) B      0.0056
     3 (A) A   8 (A) B   11 (A) A   30 (A) B     -0.0055
     3 (A) A   5 (A) B   11 (A) A   25 (A) B     -0.0054
     6 (A) A   8 (A) B   11 (A) A   10 (A) B      0.0054
     7 (A) A   8 (A) B   12 (A) A   10 (A) B      0.0054
     8 (A) A   8 (A) B   20 (A) A   22 (A) B     -0.0053
     3 (A) A   8 (A) A   11 (A) A   24 (A) A     -0.0053
    -----------------------------------------------------

  Density matrix analysis:
  ------------------------
  NOs
    Occupation of frontier NOs:
       0.9404   1.0281
    Number of electrons: 16.000000
    Number of unpaired electrons: n_u =  2.31908, n_u,nl =  2.04926
    NO participation ratio (PR_NO):  2.916096
  
  
  Mulliken Population Analysis
  Atom      Charge (e)              h+              e-           Del q
  --------------------------------------------------------------------
   1 H       -0.142446        0.045749       -0.239182       -0.193433
   2 C        0.274584        0.497124       -0.121670        0.375454
   3 H       -0.133005        0.046967       -0.230544       -0.183576
   4 C        0.273212        0.496445       -0.122405        0.374039
   5 H       -0.130210        0.047087       -0.227291       -0.180204
   6 H       -0.142135        0.045879       -0.238158       -0.192280
  --------------------------------------------------------------------
  Sum:       -0.000000        1.179251       -1.179251        0.000000
  
  Multipole moment analysis of the density matrix
    Molecular charge:                      -0.000000
    Number of electrons:                   16.000000
      Center of electronic charge [Ang]: [ -1.560479,  -0.065878,   0.005020]
    Total nuclear charge:                  16.000000
      Center of nuclear charge [Ang]:    [ -1.560576,  -0.065602,   0.004478]
    Dipole moment [D]:                     0.047299
      Cartesian components [D]:          [ -0.007439,   0.021154,  -0.041645]
    RMS size of the density [Ang]:         1.277018
      Cartesian components [Ang]:        [  0.858298,   0.840231,   0.433716]
  
  Exciton analysis of the difference density matrix
    <r_h> [Ang]:                  [ -1.560274,  -0.065686,   0.000440]
    <r_e> [Ang]:                  [ -1.559508,  -0.069440,   0.012846]
    |<r_e - r_h>| [Ang]:            0.012985
    Hole size [Ang]:                1.394954
      Cartesian components [Ang]: [  0.818026,   0.807277,   0.790591]
    Electron size [Ang]:            2.123869
      Cartesian components [Ang]: [  1.436800,   1.409665,   0.677694]

  Transition density matrix analysis:
  -----------------------------------
  
  CT numbers (Mulliken)
    omega =     0.9298
    <Phe> =    -0.0137
  
  Exciton analysis of the transition density matrix
    Trans. dipole moment [D]:             0.105085
      Cartesian components [D]:         [  0.077091,  -0.071412,   0.000570]
    <r_h> [Ang]:                        [ -1.560404,  -0.065328,  -0.001697]
    <r_e> [Ang]:                        [ -1.559413,  -0.070050,   0.014615]
    |<r_e - r_h>| [Ang]:                  0.017011
    Hole size [Ang]:                      1.228159
      Cartesian components [Ang]:       [  0.657803,   0.650641,   0.807674]
    Electron size [Ang]:                  2.261601
      Cartesian components [Ang]:       [  1.530329,   1.501600,   0.719812]
    RMS electron-hole separation [Ang]:   2.562823
      Cartesian components [Ang]:       [  1.657060,   1.628651,   1.081531]
    Covariance(r_h, r_e) [Ang^2]:         0.027721
    Correlation coefficient:              0.009980
    Center-of-mass size [Ang]:            1.292155
      Cartesian components [Ang]:       [  0.837164,   0.822161,   0.541177]

  Decomposition into state-averaged NTOs
    H- 0 -> L+ 2: -0.6647 ( 88.4%)
    H- 1 -> L+ 0: -0.1486 (  4.4%)
                   omega =  93.0%
  ----------------------------------------------------------------------------


  Excited state 5 (singlet, A)                                     [converged]
  ----------------------------------------------------------------------------
  Term symbol:  6 (1) A                                     R^2 =  1.33339e-13

  Total energy:                                            -77.9441958386 a.u.
  Excitation energy:                                              10.213250 eV

  Osc. strength:                                                      0.000033
  Trans. dip. moment [a.u.]:           [  -0.006103,   -0.009698,   -0.001176]
  <i|r^2|0> [a.u.]:                    [   0.033285,   -0.095491,    0.031233]
  Two-photon absorption cross-section (SoS) [a.u.]:                 179.689580
  Two-photon absorption matrix (SoS) [a.u.]:
                                       |    0.345260    0.011788   -3.375664 |
                                       |    0.011788   -0.257131    3.309813 |
                                       |   -3.375664    3.309813    0.121789 |
[...]
    16   -1.361307107066e-03
    17   -2.144923439624e-03
    18   -8.376610618673e-05
    19   -3.352690784359e-03
    20    1.060892819987e-02
    21    9.341758092585e-01
    22   -2.730927806493e-04
    23    1.398047837560e-02
    24    9.960814646950e-04
    25    7.005316670432e-02
    26   -5.195438040710e-02
    27   -1.398101230159e+00
    28    9.729783835933e-02
    29   -9.278460448772e-02
    30   -7.273559772836e-03
    31    3.840962458002e-01
    32   -3.629384457416e-01
    33   -2.897113355890e-02
    34    1.573646100518e-02
    35   -2.021617995850e-04
    36   -1.814425974244e-03
    37   -1.581951574134e-04
    38   -3.159950094220e-03
    39    9.708865631631e-03
    40    9.333557397530e-01
    41    1.932772948500e-04
    42   -1.393424894454e-02
    43   -9.107431698547e-04
    44    9.563331055126e-03
    45    9.372031495092e-01
    46    1.413952751305e-02
    47    4.015917164831e-04
    48    4.458808838691e-05
Sym=X
Ene= 0.233068
Spin=Alpha
Occup=0
     1    2.598043387336e-02
     2    1.225979474972e+00
     3   -1.418294560297e-02
     4   -3.745307399497e-03
     5   -9.552060901662e-04
     6    2.266255681580e-03
     7   -2.745307899489e-03
     8   -3.326360259730e-02
     9   -1.542400105972e-01
    10   -1.592102161250e-01
    11   -1.971983598806e-02
    12   -5.546123668536e-01
    13   -5.611012670355e-01
    14   -7.327481826198e-02
    15    3.496428390984e-04
    16   -1.016207530271e-04
    17    4.384944670073e-04
    18   -2.229834422737e-04
    19   -2.533163939631e-04
    20   -2.508438656979e-02
    21   -1.172259554174e+00
    22   -2.541842839981e-03
    23   -1.373878205330e-02
    24   -1.215054948778e-03
    25   -2.292241098830e-03
    26    2.717959817391e-03
    27    3.458714617310e-02
    28   -1.538460738811e-01
    29   -1.594806227489e-01
    30   -8.909413820796e-03
    31   -5.481844082902e-01
    32   -5.562018736170e-01
    33   -2.803593764425e-02
    34   -4.761043624880e-04
    35   -7.198368907786e-04
    36   -2.488956136344e-04
    37    4.072007141877e-04
    38    3.439779069927e-04
    39    2.536822749750e-02
    40    1.162545601807e+00
    41   -2.496644712906e-03
    42   -1.370844938006e-02
    43   -6.601654758670e-04
    44   -2.585590455143e-02
    45   -1.218118483710e+00
    46   -1.423808675862e-02
    47   -3.744138910177e-03
    48   -2.908680763135e-04
Sym=X
Ene= 0.239430
Spin=Alpha
Occup=0
     1   -1.603798617574e-02
     2   -1.057555267054e+00
     3    1.659007404300e-02
     4    9.119040168939e-03
     5    1.362980000334e-03
     6   -8.639902815992e-02
     7    7.963837412410e-02
     8    1.590812509472e+00
     9    5.399157374872e-02
    10   -5.960094819487e-02
    11    1.375989795380e-03
    12    2.135100368259e-01
    13   -2.326042169175e-01
    14    8.077135154900e-03
    15   -2.254782770334e-02
    16    2.742239938619e-03
    17    2.490655164010e-03
    18   -5.103022518666e-04
    19    1.285034158531e-02
    20   -1.698421561056e-02
    21   -1.115907876019e+00
    22   -8.529580622147e-03
    23   -1.766633426118e-02
    24   -1.229060370512e-03
    25    8.648122334564e-02
    26   -7.922536166724e-02
    27   -1.599640694039e+00
    28    5.456170840216e-02
    29   -5.990838061081e-02
    30   -7.726672968474e-03
    31    2.173534353308e-01
    32   -2.362989732900e-01
    33   -3.025777646127e-02
    34    2.277300506395e-02
    35   -1.448726496501e-03
    36   -2.931838471310e-03
    37    6.005896505005e-04
    38   -1.284670114362e-02
    39    1.642397689910e-02
    40    1.123169241929e+00
    41   -8.669947546651e-03
    42   -1.779956784301e-02
    43   -1.650992406518e-03
    44    1.549120701234e-02
    45    1.061128345411e+00
    46    1.666536491377e-02
    47    9.348771266696e-03
    48    5.590526984832e-04
Sym=X
Ene= 0.303285
Spin=Alpha
Occup=0
     1   -2.083501188271e-02
     2    1.690665533271e+00
     3   -2.291323266138e-02
     4    2.816333465774e-04
     5   -1.302963799297e-03
     6   -1.360048436041e-04
     7    1.410240570356e-04
     8   -4.580461575934e-04
     9   -1.337627933310e-01
    10   -1.393031403505e-01
    11   -1.551791953135e-02
    12   -1.143324491108e+00
    13   -1.193872608948e+00
    14   -1.172313376703e-01
    15   -1.251779715853e-04
    16   -1.909130607222e-03
    17    1.368948147992e-03
    18   -3.268572648524e-02
    19   -1.567584307020e-03
    20    1.990719642585e-02
    21   -1.687736790544e+00
    22    1.437767627489e-03
    23   -2.287871777523e-02
    24   -1.156756966786e-03
    25    3.296408129997e-05
    26    2.742905374834e-04
    27   -9.480151379321e-03
    28    1.350473237344e-01
    29    1.406719849095e-01
    30    9.573031711571e-03
    31    1.142596990859e+00
    32    1.198250496606e+00
    33    9.700814619087e-02
    34    2.392118628318e-04
    35   -4.883871126032e-05
    36    2.697166059500e-03
    37   -3.254674647158e-02
    38   -1.819288564056e-03
    39    1.936878610386e-02
    40   -1.693597116089e+00
    41   -1.659337531911e-03
    42    2.287381189608e-02
    43    1.180756179110e-03
    44   -2.025912480083e-02
    45    1.702210536871e+00
    46    2.307258588656e-02
    47   -3.717725473707e-04
    48    3.937931728883e-04
Sym=X
Ene= 0.462151
Spin=Alpha
Occup=0
     1   -1.157123901357e-01
     2   -7.150329140954e-01
     3   -1.563491275306e-02
     4   -1.036305067281e-02
     5   -1.425669277568e-03
     6    6.084838381314e-02
     7    1.724037922381e-02
     8   -3.593219095665e+00
     9    1.030272757773e-01
    10   -9.873770942958e-02
    11   -2.410224758971e-03
    12    2.427305109169e+00
    13   -2.305194263045e+00
    14   -1.224704337837e-02
    15    5.365005732493e-02
    16   -2.975362751629e-03
    17   -5.772228116827e-03
    18   -7.479007672032e-04
    19    1.795349048535e-02
    20   -1.217777730182e-01
    21   -7.021494538995e-01
    22    8.748841102419e-03
    23    1.639082977046e-02
    24    1.600177893048e-03
    25   -6.100213116764e-02
    26   -1.603304646697e-02
    27    3.591220348127e+00
    28    1.053530357865e-01
    29   -1.003845887297e-01
    30   -7.972560620372e-03
    31    2.425023718693e+00
    32   -2.297897364907e+00
    33   -3.728703379094e-02
    34   -5.271328641134e-02
    35    1.553959664652e-03
    36    3.213744594951e-03
    37    6.110977784507e-04
    38   -1.902465823815e-02
    39    1.145792898493e-01
    40    7.091471483317e-01
    41    8.501625329882e-03
    42    1.625889917480e-02
    43    7.066774287556e-04
    44    1.092916197132e-01
    45    7.225396402223e-01
    46   -1.542093507380e-02
    47   -9.968243313752e-03
    48   -9.406330185690e-04
Sym=X
Ene= 0.577592
Spin=Alpha
Occup=0
     1    2.467581393773e-01
     2    3.990850179945e-02
     3   -1.852634855455e-02
     4    2.561942088359e-02
     5    6.810338372425e-04
     6   -4.365547808009e-03
     7   -1.575671317179e-01
     8   -4.716992429975e-01
     9    2.992351037078e-01
    10   -2.883534941585e-01
    11   -3.794798305402e-03
    12   -7.165202064416e-01
    13    6.924262921933e-01
    14    1.387402709698e-02
    15   -5.791640154113e-03
    16    3.697113794096e-03
    17    2.963733213156e-03
    18   -4.446809457094e-03
    19    6.021187386341e-02
    20    2.548358587417e-01
    21    2.789466263964e-02
    22   -2.642840498950e-02
    23    1.653619458284e-02
    24   -2.061532284002e-04
    25   -5.784121262554e-03
    26   -1.582502053670e-01
    27   -4.053638374426e-01
    28   -2.971543012069e-01
    29    2.854315708443e-01
    30    2.641585944124e-03
    31    7.679710574568e-01
    32   -7.365263485664e-01
    33   -1.984879742418e-02
    34   -5.724022408241e-03
    35    3.482701658247e-03
    36    2.875401710202e-03
    37   -3.963056087271e-03
    38    6.017637418351e-02
    39    2.504888551532e-01
    40    5.118213847809e-02
    41    2.724490198437e-02
    42   -1.704420979729e-02
    43   -4.321858093402e-04
    44    2.479435147901e-01
    45    6.084960481956e-02
    46    1.844986506827e-02
    47   -2.577741919994e-02
    48   -1.125198143650e-03
Sym=X
Ene= 0.615034
Spin=Alpha
Occup=0
     1   -5.220978697010e-01
     2    1.996660316472e-01
     3   -6.137995201339e-02
     4    3.761442393321e-02
     5   -2.273828127136e-04
     6   -5.916345590870e-04
     7   -1.349424180626e-04
     8   -1.965066384767e-02
     9   -4.021058686631e-02
    10   -3.878824262757e-02
    11   -2.097228499583e-03
    12    3.049052190679e-01
    13    2.759673599187e-01
    14    3.945616527470e-02
    15    1.919812668247e-03
    16   -7.268584163592e-03
    17    6.738325621351e-03
    18   -1.478703401055e-01
    19   -6.354700244534e-03
    20    5.075354617038e-01
    21   -2.057295026603e-01
    22    4.177661604735e-02
    23   -5.840251587749e-02
    24   -9.041319072561e-04
    25    3.910401279412e-04
    26   -5.782873172342e-04
    27    2.429538584951e-02
    28   -4.105479680557e-02
    29   -4.046624303865e-02
    30   -5.331086213093e-03
    31    3.105378935002e-01
    32    2.901574953067e-01
    33    1.423687521808e-02
    34   -1.699279771100e-03
    35    2.477305641095e-03
    36   -1.080461268432e-02
    37    1.490569816807e-01
    38    6.351348623696e-03
    39   -5.155511071239e-01
    40    2.080445664921e-01
    41    4.086261898991e-02
    42   -5.853001046579e-02
    43   -3.108394823162e-03
    44    5.214533418793e-01
    45   -1.996261771553e-01
    46   -6.133442050680e-02
    47    3.735992197290e-02
    48    4.818125294687e-04
Sym=X
Ene= 0.689180
Spin=Alpha
Occup=0
     1    1.207217673341e-02
     2   -2.742948713627e-03
     3    3.054099556367e-03
     4    3.306597483597e-03
     5   -2.078961457642e-02
     6    7.196939364785e-04
     7    6.717762006606e-03
     8    2.262425366393e-03
     9    2.714404006186e-02
    10    4.493493157113e-02
    11   -6.702678760406e-01
    12   -4.217901331952e-02
    13   -2.924295886324e-02
    14    6.134956982011e-01
    15   -4.367260306669e-03
    16    8.315925852251e-02
    17   -7.802413093061e-02
    18   -5.533349803193e-03
    19    1.146976503601e-03
    20    9.744247125773e-03
    21    7.598613185669e-03
    22    5.031222029304e-04
    23   -7.912424414077e-05
    24   -2.103104697955e-02
    25    1.866330134238e-04
    26    1.192553946740e-02
    27   -1.339277937782e-02
    28    2.018264130964e-02
    29    3.018617133748e-02
    30   -6.707523645443e-01
    31   -3.145540886409e-02
    32   -1.081549412596e-02
    33    6.144445720566e-01
    34   -1.717544990663e-03
    35   -8.264872400975e-02
    36    7.870348103682e-02
    37    9.284163830095e-03
    38    1.288334903593e-03
    39    8.783224689897e-04
    40   -8.074765608841e-03
    41   -2.200398835821e-04
    42    3.531849767107e-03
    43   -2.097370509885e-02
    44    3.125307469586e-03
    45   -1.863963667403e-02
    46   -2.769605636907e-03
    47    1.989200027721e-04
    48   -2.145931893034e-02
Sym=X
Ene= 0.709281
Spin=Alpha
Occup=0
     1   -4.773648766653e-01
     2    1.613798036972e-01
     3   -8.102672067185e-02
     4   -4.442498435289e-02
     5   -7.229179743573e-03
     6   -4.826744630716e-02
     7   -3.192068052770e-01
     8    5.194577762266e-01
     9    2.034589578383e-01
    10   -1.906630424667e-01
    11   -1.381306127660e-02
    12   -1.029692250910e-01
    13    8.462445502523e-02
    14    2.476496023645e-03
    15    1.950697858144e-01
    16   -1.900780282968e-02
    17   -2.342904557925e-02
    18    3.292049320583e-03
    19   -7.783126661098e-02
    20   -4.815882588557e-01
    21    1.535122096241e-01
    22    4.108224369605e-02
    23    8.223664233930e-02
    24    5.751859312748e-03
    25   -4.633538219843e-02
    26   -3.221556426003e-01
    27    4.579056624952e-01
    28   -2.033377172330e-01
    29    1.927930434351e-01
    30   -7.865462390284e-03
    31    5.521944646379e-02
    32   -4.742913228841e-02
    33    2.353463002105e-02
    34    1.938345875857e-01
    35   -1.436902227264e-02
    36   -1.925550618907e-02
    37    2.339432489954e-03
    38   -7.590554983384e-02
    39   -4.702723949537e-01
    40    1.321438360611e-01
    41   -4.091254211261e-02
    42   -8.065395310860e-02
    43   -5.018760249545e-03
    44   -4.721472925064e-01
    45    1.383608779211e-01
    46    8.030900913558e-02
    47    4.398813108474e-02
    48    4.659503594863e-03
Sym=X
Ene= 0.784829
Spin=Alpha
Occup=0
     1    5.243772609830e-01
     2   -4.667267870334e-01
     3    1.098387208524e-01
     4    2.564555704332e-02
     5    7.136832453025e-03
     6    9.069258036569e-02
     7   -2.176955108509e-01
     8   -6.337225427793e-01
     9    1.107313063906e-01
    10   -1.077684707790e-01
    11    1.962051479253e-02
    12    3.157282706587e-01
    13   -2.879285551621e-01
    14   -4.042427318295e-02
    15   -2.052353677689e-01
    16    1.870340635480e-02
    17    2.242045671038e-02
    18   -1.279104800539e-03
    19    8.501592083908e-03
    20    5.334963919605e-01
    21   -4.669334580097e-01
    22   -2.012830052191e-02
    23   -1.120223554885e-01
    24   -7.507216167188e-03
    25   -9.163247952255e-02
    26    2.103350364814e-01
    27    6.582769145595e-01
    28    1.132351509905e-01
    29   -1.030442597263e-01
    30   -1.773705118471e-02
    31    2.998965876693e-01
    32   -2.891525370371e-01
    33    3.309610312725e-02
    34    2.096878956271e-01
    35   -6.129114531460e-03
    36   -2.029768390883e-02
    37    1.742971773271e-03
    38   -9.443876857498e-03
    39   -5.440129196497e-01
    40    4.675838296243e-01
    41   -2.091644485179e-02
    42   -1.135470784163e-01
    43   -6.284198001452e-03
    44   -5.330206196098e-01
    45    4.577321493623e-01
    46    1.102013464873e-01
    47    2.702882532954e-02
    48    3.879484650260e-03
Sym=X
Ene= 0.807951
Spin=Alpha
Occup=0
     1    1.141966745318e-02
     2    9.794582136537e-04
     3    3.026722662662e-03
     4    5.876960646055e-04
     5   -3.381415647716e-02
     6    2.450553023067e-03
     7   -9.149015939446e-03
     8   -1.664331246097e-03
     9    4.508598599470e-02
    10    4.387612954263e-02
    11   -7.622031233860e-01
    12   -5.481685900762e-02
    13   -7.900602209610e-02
    14    1.125274939497e+00
    15   -5.415161867110e-03
    16   -6.501438850058e-02
    17    6.269092798425e-02
    18    2.102755183352e-03
    19   -1.096324377764e-03
    20    1.236057085002e-02
    21   -2.725247567976e-02
    22    7.258123824909e-04
    23   -2.668821431980e-03
    24   -3.480984699169e-02
    25   -2.066869499904e-03
    26    1.898511078171e-04
    27    6.872096297358e-03
    28   -1.174188311749e-02
    29   -3.835632267942e-02
    30    7.641961233871e-01
    31    3.037678132504e-02
    32    4.040223640849e-02
    33   -1.128634378603e+00
    34    8.213226926541e-03
    35   -6.532322639015e-02
    36    6.102737299612e-02
    37    9.560045324091e-03
    38    2.201374704634e-03
    39   -1.231674077393e-02
    40    2.994805744299e-02
    41   -1.039268817107e-03
    42   -8.643852320163e-03
    43    3.390922997637e-02
    44   -1.154026686379e-02
    45    9.465549245613e-04
    46    2.657587366757e-03
    47   -3.722767570354e-03
    48    3.405612654528e-02
Sym=X
Ene= 0.862336
Spin=Alpha
Occup=0
     1    1.556390172611e-02
     2   -1.097921277914e+00
     3    1.490597631132e-01
     4    5.640163024869e-02
     5    9.325485087009e-03
     6    3.836865915372e-04
     7   -2.044522128175e-03
     8    4.118020330778e-03
     9   -4.062950807121e-01
    10   -4.295236999032e-01
    11   -5.409282105392e-02
    12    9.460547145099e-01
    13    9.985921376313e-01
    14    1.242884068111e-01
    15   -1.400167186734e-03
    16    8.501571118612e-03
    17   -1.338429820100e-02
    18    2.358631993232e-01
    19    9.354655302724e-03
    20   -1.394803946535e-02
    21    1.103922233204e+00
    22    5.027271603946e-02
    23    1.513689252026e-01
    24    1.164626332862e-02
    25   -3.890275376100e-04
    26    7.316640144105e-04
    27   -2.431224806479e-03
    28   -4.056502565279e-01
    29   -4.305574032390e-01
    30   -2.274953686533e-02
    31    9.473123813822e-01
    32    1.005207182457e+00
    33    5.473868536820e-02
    34    1.578232392394e-03
    35   -7.596937824056e-03
    36    1.413048669262e-02
    37   -2.368143403773e-01
    38   -9.965688554022e-03
    39    1.018492407320e-02
    40   -1.101857049272e+00
    41    4.880205880478e-02
    42    1.512483616240e-01
    43    1.089314134743e-02
    44   -1.164347174328e-02
    45    1.094975944817e+00
    46    1.490961761495e-01
    47    5.536109868111e-02
    48    5.372879822408e-03
Sym=X
Ene= 0.936065
Spin=Alpha
Occup=0
     1    1.118977866211e-01
     2   -1.278511997956e+00
     3    1.806028921669e-01
     4   -5.438242805788e-03
     5    9.770564519066e-03
     6   -1.182224119760e-04
     7    5.668610228429e-03
     8   -6.808156024393e-03
     9   -4.735870290551e-01
    10   -4.981706809273e-01
    11   -4.964410221158e-02
    12    1.469976614552e+00
    13    1.538981161454e+00
    14    1.524504185965e-01
    15    1.610614607725e-03
    16    9.796823932255e-03
    17   -5.579853944226e-03
    18    1.195352347923e-01
    19    2.486068277409e-03
    20   -1.165351412873e-01
    21    1.285753995521e+00
    22   -1.160123132708e-02
    23    1.829594035912e-01
    24    9.230447087771e-03
    25    2.152782837137e-04
    26    4.638196918330e-03
    27   -4.064154945807e-03
    28    4.738384745163e-01
    29    4.999820991608e-01
    30    3.938810042410e-02
    31   -1.470193872425e+00
    32   -1.541162501108e+00
    33   -1.232580196561e-01
    34   -3.546898388701e-04
    35    3.991794952055e-04
    36   -6.323335819044e-03
    37    1.216905713875e-01
    38    3.868329565223e-03
    39   -1.158905919801e-01
    40    1.288032239792e+00
    41    1.315833008462e-02
    42   -1.827373768706e-01
    43   -8.604915341605e-03
    44    1.148002148401e-01
    45   -1.286126124833e+00
    46   -1.820164417916e-01
    47    6.019175226066e-03
    48   -4.200078682599e-03
Sym=X
Ene= 0.972553
Spin=Alpha
Occup=0
     1   -6.563135167395e-02
     2    9.283154776286e-01
     3   -9.164251188777e-02
     4   -9.884873151816e-02
     5   -9.249668408760e-03
     6    2.529358039835e-02
     7    2.591028013877e-01
     8    5.076014234946e-01
     9    4.809404608252e-01
    10   -4.558317816299e-01
    11   -1.491759483937e-03
    12   -1.492979325338e+00
    13    1.413712579288e+00
    14    4.592981117468e-03
    15   -5.336299764432e-02
    16   -1.071530462460e-02
    17   -8.555150147022e-03
    18    1.321109524005e-02
    19   -3.022615642088e-01
    20   -6.243197545560e-02
    21    9.156905902073e-01
    22    9.563263784943e-02
    23    9.396483893203e-02
    24    9.077276672633e-03
    25   -2.500266848101e-02
    26   -2.325680508909e-01
    27   -5.518604128242e-01
    28    4.784015389276e-01
    29   -4.525268646346e-01
    30   -1.553119444731e-02
    31   -1.489275421594e+00
    32    1.408080104607e+00
    33    4.320606214933e-02
    34    5.199052730109e-02
    35    9.841820201693e-03
    36    9.525589478479e-03
    37   -1.324461671829e-02
    38    2.983821399861e-01
    39    6.268521113210e-02
    40   -9.019115583143e-01
    41    9.409157399925e-02
    42    9.190636532645e-02
    43    1.077094808518e-02
    44    6.571420709425e-02
    45   -9.137322903149e-01
    46   -8.944723994707e-02
    47   -9.783185705504e-02
    48   -5.470448179001e-03
[5D]

======= END OF MOLDEN-FORMATTED INPUT FILE =======


        *************************************************************
        *                                                           *
        *  Thank you very much for using Q-Chem.  Have a nice day.  *
        *                                                           *
        *************************************************************


