                  Welcome to Q-Chem
     A Quantum Leap Into The Future Of Chemistry


 Q-Chem 5.4 (devel), Q-Chem, Inc., Pleasanton, CA (2021)

 E. Epifanovsky,  A. T. B. Gilbert,  Xintian Feng,  Joonho Lee,  Yuezhi Mao,  
 N. Mardirossian,  P. Pokhilko,  A. White,  M. Wormit,  M. P. Coons,  
 A. L. Dempwolff,  Zhengting Gan,  D. Hait,  P. R. Horn,  L. D. Jacobson,  
 I. Kaliman,  J. Kussmann,  A. W. Lange,  Ka Un Lao,  D. S. Levine,  Jie Liu,  
 S. C. McKenzie,  A. F. Morrison,  K. Nanda,  F. Plasser,  D. R. Rehn,  
 M. L. Vidal,  Zhi-Qiang You,  Ying Zhu,  B. Alam,  B. Albrecht,  
 A. Aldossary,  E. Alguire,  J. H. Andersen,  D. Barton,  K. Begam,  A. Behn,  
 Y. A. Bernard,  E. J. Berquist,  H. Burton,  A. Carreras,  K. Carter-Fenk,  
 R. Chakraborty,  A. D. Chien,  K. D. Closser,  V. Cofer-Shabica,  
 S. Dasgupta,  Jia Deng,  M. de Wergifosse,  M. Diedenhofen,  Hainam Do,  
 S. Ehlert,  Po-Tung Fang,  S. Fatehi,  Qingguo Feng,  T. Friedhoff,  
 J. Gayvert,  Qinghui Ge,  G. Gidofalvi,  M. Goldey,  J. Gomes,  
 C. Gonzalez-Espinoza,  S. Gulania,  A. Gunina,  M. W. D. Hanson-Heine,  
 P. H. P. Harbach,  A. W. Hauser,  M. F. Herbst,  M. Hernandez Vera,  
 M. Hodecker,  Z. C. Holden,  S. Houck,  Xunkun Huang,  Kerwin Hui,  
 B. C. Huynh,  M. Ivanov,  Hyunjun Ji,  Hanjie Jiang,  B. Kaduk,  S. Kaehler,  
 K. Khistyaev,  Jaehoon Kim,  P. Klunzinger,  Z. Koczor-Benda,  
 Joong Hoon Koh,  D. Kosenkov,  L. Koulias,  T. Kowalczyk,  C. M. Krauter,  
 K. Kue,  A. Kunitsa,  T. Kus,  A. Landau,  K. V. Lawler,  D. Lefrancois,  
 S. Lehtola,  Rain Li,  Yi-Pei Li,  Jiashu Liang,  M. Liebenthal,  
 Hung-Hsuan Lin,  You-Sheng Lin,  Fenglai Liu,  Kuan-Yu Liu,  
 M. Loipersberger,  A. Luenser,  A. Manjanath,  P. Manohar,  E. Mansoor,  
 S. F. Manzer,  Shan-Ping Mao,  A. V. Marenich,  T. Markovich,  S. Mason,  
 S. A. Maurer,  P. F. McLaughlin,  M. F. S. J. Menger,  J.-M. Mewes,  
 S. A. Mewes,  P. Morgante,  J. W. Mullinax,  K. J. Oosterbaan,  G. Paran,  
 Alexander C. Paul,  Suranjan K. Paul,  F. Pavosevic,  Zheng Pei,  S. Prager,  
 E. I. Proynov,  E. Ramos,  B. Rana,  A. E. Rask,  A. Rettig,  R. M. Richard,  
 F. Rob,  E. Rossomme,  T. Scheele,  M. Scheurer,  M. Schneider,  
 N. Sergueev,  S. M. Sharada,  W. Skomorowski,  D. W. Small,  C. J. Stein,  
 Yu-Chuan Su,  E. J. Sundstrom,  Zhen Tao,  J. Thirman,  T. Tsuchimochi,  
 N. M. Tubman,  S. P. Veccham,  O. Vydrov,  J. Wenzel,  J. Witte,  A. Yamada,  
 Kun Yao,  S. Yeganeh,  S. R. Yost,  A. Zech,  Igor Ying Zhang,  Xing Zhang,  
 Yu Zhang,  D. Zuev,  A. Aspuru-Guzik,  A. T. Bell,  N. A. Besley,  
 K. B. Bravaya,  B. R. Brooks,  D. Casanova,  Jeng-Da Chai,  S. Coriani,  
 C. J. Cramer,  A. E. DePrince, III,  R. A. DiStasio Jr.,  A. Dreuw,  
 B. D. Dunietz,  T. R. Furlani,  W. A. Goddard III,  S. Grimme,  
 S. Hammes-Schiffer,  T. Head-Gordon,  W. J. Hehre,  Chao-Ping Hsu,  
 T.-C. Jagau,  Yousung Jung,  A. Klamt,  Jing Kong,  D. S. Lambrecht,  
 WanZhen Liang,  N. J. Mayhall,  C. W. McCurdy,  J. B. Neaton,  
 C. Ochsenfeld,  J. A. Parkhill,  R. Peverati,  V. A. Rassolov,  Yihan Shao,  
 L. V. Slipchenko,  T. Stauch,  R. P. Steele,  J. E. Subotnik,  
 A. J. W. Thom,  A. Tkatchenko,  D. G. Truhlar,  T. Van Voorhis,  
 T. A. Wesolowski,  K. B. Whaley,  H. L. Woodcock III,  P. M. Zimmerman,  
 S. Faraji,  P. M. W. Gill,  M. Head-Gordon,  J. M. Herbert,  A. I. Krylov

 Additional authors for Version 5.4.1: 
 S. Kotaru,  Shaozhi Li,  Xiangyuan Li,  F. Matz,  A. Molle,  Haisheng Ren,  
 Yingli Su,  Hung-Yi Tsai,  C. Utku,  Fang Wang

 Contributors to earlier versions of Q-Chem not listed above: 
 R. D. Adamson,  B. Austin,  R. Baer,  J. Baker,  G. J. O. Beran,  
 K. Brandhorst,  S. T. Brown,  E. F. C. Byrd,  A. K. Chakraborty,  
 G. K. L. Chan,  Chun-Min Chang,  Yunqing Chen,  C.-L. Cheng,  
 Siu Hung Chien,  D. M. Chipman,  D. L. Crittenden,  H. Dachsel,  
 R. J. Doerksen,  A. D. Dutoi,  R. G. Edgar,  J. Fosso-Tande,  
 L. Fusti-Molnar,  D. Ghosh,  A. Ghysels,  A. Golubeva-Zadorozhnaya,  
 J. Gonthier,  M. S. Gordon,  S. R. Gwaltney,  G. Hawkins,  J. E. Herr,  
 A. Heyden,  S. Hirata,  E. G. Hohenstein,  G. Kedziora,  F. J. Keil,  
 C. Kelley,  Jihan Kim,  R. A. King,  R. Z. Khaliullin,  P. P. Korambath,  
 W. Kurlancheek,  A. Laurent,  A. M. Lee,  M. S. Lee,  S. V. Levchenko,  
 Ching Yeh Lin,  D. Liotard,  E. Livshits,  R. C. Lochan,  I. Lotan,  
 L. A. Martinez-Martinez,  P. E. Maslen,  N. Nair,  D. P. O'Neill,  
 D. Neuhauser,  E. Neuscamman,  C. M. Oana,  R. Olivares-Amaya,  R. Olson,  
 T. M. Perrine,  B. Peters,  P. A. Pieniazek,  A. Prociuk,  Y. M. Rhee,  
 J. Ritchie,  M. A. Rohrdanz,  E. Rosta,  N. J. Russ,  H. F. Schaefer III,  
 M. W. Schmidt,  N. E. Schultz,  S. Sharma,  N. Shenvi,  C. D. Sherrill,  
 A. C. Simmonett,  A. Sodt,  T. Stein,  D. Stuck,  K. S. Thanthiriwatte,  
 V. Vanovschi,  L. Vogt,  Tao Wang,  A. Warshel,  M. A. Watson,  
 C. F. Williams,  Q. Wu,  X. Xu,  Jun Yang,  W. Zhang,  Yan Zhao

 Please cite Q-Chem as follows:
 Y. Shao et al., Mol. Phys. 113, 184-215 (2015)
 DOI: 10.1080/00268976.2014.952696

 Q-Chem 5.4.1 for Intel X86 EM64T Linux

 Parts of Q-Chem use Armadillo 9.800.1 (Horizon Scraper).
 http://arma.sourceforge.net/

 Q-Chem begins on Mon Mar 20 18:24:29 2023  

 Host: cpu186.baobab
0

     Scratch files written to /scratch/fum/qchem75752//
 Processing $rem in /home/share/wesolowski/qc5.aug2021.FDE/config/preferences:
 Processing $rem in /home/fum/.qchemrc:

 Checking the input file for inconsistencies... 	...done.

--------------------------------------------------------------
User input:
--------------------------------------------------------------
$comment
generated from CCJob.Templates
$end

$rem
sym_ignore = true
method = adc(2)
ee_states = 10
basis = cc-pVDZ
mem_static = 1024
mem_total = 40000
adc_davidson_maxiter = 900
adc_davidson_conv = 6
adc_print = 3
adc_prop_es = true
adc_prop_es2es = true
adc_prop_tpa = true
molden_format = True
state_analysis = true
print_orbitals = 15
gen_scfman = false
fde_export_density = true
fde_details = 3
$end

$molecule
0 1
H -0.02141693564179394 -0.24902194524245916 0.10641017202776215
C -1.0696096294689224 -0.5295933736364211 0.009428575809096762
H -1.2957754224446976 -1.5933270721083104 -0.10045985118158537
C -2.039428122514066 0.38599832092196207 -0.028390988847476806
H -1.8229832074257095 1.4589904024211835 0.09795939884432531
H -3.097315956327636 0.11468279595589798 -0.10881093256533084                     
$end
--------------------------------------------------------------
 ----------------------------------------------------------------
             Standard Nuclear Orientation (Angstroms)
    I     Atom           X                Y                Z
 ----------------------------------------------------------------
    1      H      -0.0214169356    -0.2490219452     0.1064101720
    2      C      -1.0696096295    -0.5295933736     0.0094285758
    3      H      -1.2957754224    -1.5933270721    -0.1004598512
    4      C      -2.0394281225     0.3859983209    -0.0283909888
    5      H      -1.8229832074     1.4589904024     0.0979593988
    6      H      -3.0973159563     0.1146827960    -0.1088109326
 ----------------------------------------------------------------
 Nuclear Repulsion Energy =          33.19327492 hartrees
 There are        8 alpha and        8 beta electrons
 Requested basis set is cc-pVDZ
 There are 24 shells and 48 basis functions
 Total memory of 40000 MB is distributed as follows: 
   MEM_STATIC is set to 1024 MB
   QALLOC/CCMAN JOB total memory use is  38976 MB
 Warning: actual memory use might exceed 40000 MB

 Total QAlloc Memory Limit  40000 MB
 Mega-Array Size      1001 MB
 MEM_STATIC part      1024 MB

                       Distance Matrix (Angstroms)
             H (  1)   C (  2)   H (  3)   C (  4)   H (  5)
   C (  2)  1.089419
   H (  3)  1.863851  1.093049
   C (  4)  2.119856  1.334274  2.115642
   H (  5)  2.482543  2.128350  3.103862  1.101873
   H (  6)  3.104796  2.130884  2.482522  1.095083  1.863824

 A cutoff of  1.0D-11 yielded    300 shell pairs
 There are      1220 function pairs (      1329 Cartesian)
 Smallest overlap matrix eigenvalue = 4.83E-03

 Scale SEOQF with 1.000000e-01/1.000000e-01/1.000000e+00

 Standard Electronic Orientation quadrupole field applied
 Nucleus-field energy     =     0.0000000021 hartrees
 Guess from superposition of atomic densities
 Warning:  Energy on first SCF cycle will be non-variational
 SAD guess density has 16.000000 electrons
 A restricted Hartree-Fock SCF calculation will be
 performed using Pulay DIIS extrapolation
 SCF converges when DIIS error is below 1.0E-08
 using 10 threads for integral computing
 -------------------------------------------------------
 OpenMP Integral computing Module                
 Release: version 1.0, May 2013, Q-Chem Inc. Pittsburgh 
 -------------------------------------------------------
 ---------------------------------------
  Cycle       Energy         DIIS Error
 ---------------------------------------
    1     -78.3947402017      9.91E-02
    2     -78.0172784412      7.12E-03
    3     -78.0377225161      1.82E-03
    4     -78.0391973311      5.63E-04
    5     -78.0393144252      5.89E-05
    6     -78.0393163099      1.06E-05
    7     -78.0393163786      4.15E-06
    8     -78.0393163850      1.05E-06
    9     -78.0393163857      2.17E-07
   10     -78.0393163858      6.77E-08
   11     -78.0393163858      7.29E-09 Convergence criterion met
 ---------------------------------------
 SCF time:  CPU 2.24 s  wall 8.84 s
 SCF   energy in the final basis set = -78.03931639
 Total energy in the final basis set = -78.03931639
Exporting Density Matrix to file 'Densmat_SCF.txt'.
Export successful
================================================================================
|                                                                              |
|                                 A D C  M A N                                 |
|                                                                              |
 ------------------------------------------------------------------------------ 
|                                                                              |
| Components:                                                                  |
|                                                                              |
| - libvmm - 1.3-trunk                                                         |
|   Authors:                                                                   |
|   Evgeny Epifanovsky, Ilya Kaliman                                           |
|                                                                              |
| - libtensor - 2.5-trunk                                                      |
|   Authors:                                                                   |
|   Evgeny Epifanovsky, Michael Wormit, Dmitry Zuev, Sam Manzer,               |
|   Ilya Kaliman                                                               |
|                                                                              |
| - libwfa - 1.1-trunk                                                         |
|   Authors:                                                                   |
|   Felix Plasser, Stefanie Mewes (Baeppler), Benjamin Thomitzni,              |
|   Michael Wormit, Feng Chen, Anna I. Krylov, Pavel Pokhilko                  |
|                                                                              |
| - libadc - 1.1-trunk                                                         |
|   Authors:                                                                   |
|   Michael Wormit, Adrian L. Dempwolff, Philipp H. P. Harbach,                |
|   Caroline Krauter, Dirk Rehn, Matthias Schneider, Jan Wenzel                |
|                                                                              |
| - adcman - 2.6-trunk                                                         |
|   Authors:                                                                   |
|   Michael Wormit, Adrian L. Dempwolff, Philipp H. P. Harbach,                |
|   Caroline Krauter, Daniel Lefrancois, Jan-Michael Mewes, Dirk Rehn,         |
|   Matthias Schneider, Jan Wenzel, Andreas Dreuw                              |
|                                                                              |
| Authors of earlier versions of ADCMAN:                                       |
| Andreas Dreuw, Jan Hendrik Starcke, Dirk Rehn, Michael Wormit                |
|                                                                              |
================================================================================

 Created directory /scratch/fum/qchem75752/plots
  Import QC data ...  CPU 0.00 s  wall 0.00 s

 Alpha MOs, Restricted
 -- Occupied --                  
-11.239 -11.237  -1.030  -0.786  -0.635  -0.582  -0.499  -0.374
  1 A     2 A     3 A     4 A     5 A     6 A     7 A     8 A                  
 -- Virtual --                   
  0.167   0.203   0.231   0.236   0.303   0.462   0.580   0.609
  9 A    10 A    11 A    12 A    13 A    14 A    15 A    16 A                  
  0.689   0.705   0.775   0.807   0.858   0.927   0.970   1.006
 17 A    18 A    19 A    20 A    21 A    22 A    23 A    24 A                  
  1.122   1.236   1.247   1.262   1.292   1.592   1.727   1.744
 25 A    26 A    27 A    28 A    29 A    30 A    31 A    32 A                  
  1.811   1.850   1.856   1.901   1.963   1.971   2.221   2.248
 33 A    34 A    35 A    36 A    37 A    38 A    39 A    40 A                  
  2.354   2.423   2.492   2.620   2.678   2.795   3.096   3.363
 41 A    42 A    43 A    44 A    45 A    46 A    47 A    48 A                  

 Beta MOs, Restricted
 -- Occupied --                  
-11.239 -11.237  -1.030  -0.786  -0.635  -0.582  -0.499  -0.374
  1 A     2 A     3 A     4 A     5 A     6 A     7 A     8 A                  
 -- Virtual --                   
  0.167   0.203   0.231   0.236   0.303   0.462   0.580   0.609
  9 A    10 A    11 A    12 A    13 A    14 A    15 A    16 A                  
  0.689   0.705   0.775   0.807   0.858   0.927   0.970   1.006
 17 A    18 A    19 A    20 A    21 A    22 A    23 A    24 A                  
  1.122   1.236   1.247   1.262   1.292   1.592   1.727   1.744
 25 A    26 A    27 A    28 A    29 A    30 A    31 A    32 A                  
  1.811   1.850   1.856   1.901   1.963   1.971   2.221   2.248
 33 A    34 A    35 A    36 A    37 A    38 A    39 A    40 A                  
  2.354   2.423   2.492   2.620   2.678   2.795   3.096   3.363
 41 A    42 A    43 A    44 A    45 A    46 A    47 A    48 A                  
  Import AO data ...  CPU 0.00 s  wall 0.00 s
  Using point group: C1
  Irreducible representations in point group: A
  Molecular orbitals: 
  Occupied MOs:
  Block   0:   1 (  A) A   2 (  A) A   3 (  A) A   4 (  A) A   5 (  A) A
                  -11.24      -11.24       -1.03     -0.7857     -0.6349
               6 (  A) A   7 (  A) A   8 (  A) A
                  -0.582     -0.4994     -0.3743
  Block   1:   1 (  A) B   2 (  A) B   3 (  A) B   4 (  A) B   5 (  A) B
                  -11.24      -11.24       -1.03     -0.7857     -0.6349
               6 (  A) B   7 (  A) B   8 (  A) B
                  -0.582     -0.4994     -0.3743
  Virtual MOs:
  Block   0:   9 (  A) A  10 (  A) A  11 (  A) A  12 (  A) A  13 (  A) A
                  0.1675      0.2026       0.231      0.2364      0.3029
              14 (  A) A  15 (  A) A  16 (  A) A  17 (  A) A  18 (  A) A
                  0.4623      0.5799      0.6089      0.6889       0.705
              19 (  A) A  20 (  A) A  21 (  A) A  22 (  A) A
                  0.7755      0.8072      0.8584      0.9273
  Block   1:  23 (  A) A  24 (  A) A  25 (  A) A  26 (  A) A  27 (  A) A
                  0.9699       1.006       1.122       1.236       1.247
              28 (  A) A  29 (  A) A  30 (  A) A  31 (  A) A  32 (  A) A
                   1.262       1.292       1.592       1.727       1.744
              33 (  A) A  34 (  A) A  35 (  A) A  36 (  A) A
                   1.811        1.85       1.856       1.901
  Block   2:  37 (  A) A  38 (  A) A  39 (  A) A  40 (  A) A  41 (  A) A
                   1.963       1.971       2.221       2.248       2.354
              42 (  A) A  43 (  A) A  44 (  A) A  45 (  A) A  46 (  A) A
                   2.423       2.492        2.62       2.678       2.795
              47 (  A) A  48 (  A) A
                   3.096       3.363
  Block   3:   9 (  A) B  10 (  A) B  11 (  A) B  12 (  A) B  13 (  A) B
                  0.1675      0.2026       0.231      0.2364      0.3029
              14 (  A) B  15 (  A) B  16 (  A) B  17 (  A) B  18 (  A) B
                  0.4623      0.5799      0.6089      0.6889       0.705
              19 (  A) B  20 (  A) B  21 (  A) B  22 (  A) B
                  0.7755      0.8072      0.8584      0.9273
  Block   4:  23 (  A) B  24 (  A) B  25 (  A) B  26 (  A) B  27 (  A) B
                  0.9699       1.006       1.122       1.236       1.247
              28 (  A) B  29 (  A) B  30 (  A) B  31 (  A) B  32 (  A) B
                   1.262       1.292       1.592       1.727       1.744
              33 (  A) B  34 (  A) B  35 (  A) B  36 (  A) B
                   1.811        1.85       1.856       1.901
  Block   5:  37 (  A) B  38 (  A) B  39 (  A) B  40 (  A) B  41 (  A) B
                   1.963       1.971       2.221       2.248       2.354
              42 (  A) B  43 (  A) B  44 (  A) B  45 (  A) B  46 (  A) B
                   2.423       2.492        2.62       2.678       2.795
              47 (  A) B  48 (  A) B
                   3.096       3.363
  Import MO data ...  CPU 0.15 s  wall 0.05 s
  Import HF data ...  CPU 0.26 s  wall 0.10 s
  Import 2e integrals ...  CPU 1.04 s  wall 0.20 s

--------------------------------------------------------------------------------
                                   HF Summary                                   
--------------------------------------------------------------------------------
  Energy:                                                  -78.0393163858 a.u.
  Dip. moment [a.u.]:                  [  -0.000687,   -0.001514,    0.008935]
  Total dipole [Debye]:                                               0.023100
  <r^2> [a.u.]:                        [ 174.841876,   35.285827,   11.765938]
  Total <r^2> [a.u.]:                                               221.893641
--------------------------------------------------------------------------------
  HF properties ...  CPU 0.03 s  wall 0.01 s
  MP(1) calculation ...  CPU 0.01 s  wall 0.01 s
  N^6 prerequesite intermediates ...  CPU 0.58 s  wall 0.09 s
  Difference density matrix of state mp2_gs printed to ASCII file 'State_mp2_gs_Difference.txt'
Exporting MP density matrix to file 'Densmat_MP.txt'.
Export successful
  Total density matrix of state mp2_gs printed to ASCII file 'State_mp2_gs_Total.txt'
Exporting MP density matrix to file 'Densmat_MP.txt'.
Export successful

--------------------------------------------------------------------------------
                                 MP(2) Summary                                  
--------------------------------------------------------------------------------
  MP energy contribution:                                   -0.2806081242 a.u.
  Total energy:                                            -78.3199245100 a.u.
  Dip. moment [a.u.]:                  [  -0.000624,   -0.001396,    0.008827]
  Total dipole [Debye]:                                               0.022771
  <r^2> [a.u.]:                        [ 174.883254,   35.319023,   11.594106]
  Total <r^2> [a.u.]:                                               221.796383

  Density matrix analysis:
  ------------------------
  NOs
    Occupation of frontier NOs:
       0.0456   1.9379
    Number of electrons: 16.000000
    Number of unpaired electrons: n_u =  0.40777, n_u,nl =  0.04595
    NO participation ratio (PR_NO): 13.885846
  
  
  Mulliken Population Analysis
  Atom      Charge (e)              h+              e-           Del q
  --------------------------------------------------------------------
   1 H        0.054689        0.013908       -0.011305        0.002603
   2 C       -0.104833        0.094345       -0.099629       -0.005284
   3 H        0.054760        0.013934       -0.011294        0.002639
   4 C       -0.116092        0.095192       -0.100243       -0.005050
   5 H        0.055989        0.013895       -0.011341        0.002554
   6 H        0.055488        0.013888       -0.011350        0.002538
  --------------------------------------------------------------------
  Sum:        0.000000        0.245163       -0.245163       -0.000000
  
  Multipole moment analysis of the density matrix
    Molecular charge:                      -0.000000
    Number of electrons:                   16.000000
      Center of electronic charge [Ang]: [ -1.555712,  -0.070594,  -0.007709]
    Total nuclear charge:                  16.000000
      Center of nuclear charge [Ang]:    [ -1.555732,  -0.070640,  -0.007417]
    Dipole moment [D]:                     0.022771
      Cartesian components [D]:          [ -0.001585,  -0.003549,   0.022436]
    RMS size of the density [Ang]:         1.206876
      Cartesian components [Ang]:        [  0.800331,   0.783047,   0.450398]
  
  Exciton analysis of the difference density matrix
    <r_h> [Ang]:                  [ -1.556840,  -0.068907,  -0.009160]
    <r_e> [Ang]:                  [ -1.556977,  -0.069160,  -0.008927]
    |<r_e - r_h>| [Ang]:            0.000370
    Hole size [Ang]:                1.402166
      Cartesian components [Ang]: [  0.852706,   0.841062,   0.729093]
    Electron size [Ang]:            1.361809
      Cartesian components [Ang]: [  0.879741,   0.863289,   0.579061]
--------------------------------------------------------------------------------
  MP(2) calculation ...  CPU 0.32 s  wall 0.22 s
  Start ADC(2)-s ...  CPU 0.02 s  wall 0.01 s
  ADC(2) intermediates ...  CPU 0.04 s  wall 0.01 s
  Starting Davidson for singlet states of irrep A ... 
--------------------------------------------------------------------------------
   It NVec Conv  Avg. Norm  Max. Norm  Conv. states           Remark
--------------------------------------------------------------------------------
        10    0  1.329e-01  4.686e-01  0.4114 n n n n n n n n Guess.
    1   20    0  2.834e-02  1.636e-01  0.3257 n n n n n n n n 
    2   30    0  6.678e-03  2.897e-02  0.3209 n n n n n n n n 
    3   40    0  2.640e-03  1.511e-02  0.3205 n n n n n n n n 
    4   50    0  1.091e-03  8.236e-03  0.3205 n n n n n n n n 
    5   20    0  7.686e-04  6.256e-03  0.3205 n n n n n n n n Subspace collapsed.
    6   30    0  9.899e-04  7.817e-03  0.3205 n n n n n n n n 
    7   40    0  6.979e-04  4.804e-03  0.3205 n n n n n n n n 
    8   50    0  3.688e-04  2.517e-03  0.3205 n n n n n n n n 
    9   20    0  2.412e-04  1.696e-03  0.3205 n n n n n n n n Subspace collapsed.
   10   30    1  8.582e-05  5.690e-04  0.3205 n n n y n n n n 
   11   40    4  4.669e-05  3.189e-04  0.3205 y y y y n n n n 
   12   50    5  2.659e-05  1.842e-04  0.3205 y y y y y n n n 
   13   20    5  1.934e-05  1.385e-04  0.3205 y y y y y n n n Subspace collapsed.
   14   30    6  2.667e-05  2.058e-04  0.3205 y y y y y y n n 
   15   40    6  2.272e-05  1.760e-04  0.3205 y y y y y y n n 
   16   50    6  1.269e-05  9.555e-05  0.3205 y y y y y y n n 
   17   20    6  6.995e-06  5.201e-05  0.3205 y y y y y y n n Subspace collapsed.
   18   30    7  3.915e-06  2.898e-05  0.3205 y y y y y y y n 
   19   40    7  1.668e-06  1.188e-05  0.3205 y y y y y y y n 
   20   50    7  1.467e-06  1.051e-05  0.3205 y y y y y y y n 
   21   20    7  8.520e-07  6.056e-06  0.3205 y y y y y y y n Subspace collapsed.
   22   30    7  1.417e-06  9.911e-06  0.3205 y y y y y y y n 
   23   40    7  1.390e-06  1.082e-05  0.3205 y y y y y y y n 
   24   50    8  9.659e-07  8.055e-06  0.3205 y y y y y y y y 
   25   18    8  4.820e-07  4.035e-06  0.3205 y y y y y y y y Subspace collapsed.
   26   25    8  3.001e-07  2.507e-06  0.3205 y y y y y y y y 
   27   31    9  1.639e-07  1.387e-06  0.3205 y y y y y y y y 
   28   37    9  1.444e-07  1.238e-06  0.3205 y y y y y y y y 
   29   43    9  1.460e-07  1.291e-06  0.3205 y y y y y y y y 
   30   49    9  1.408e-07  1.292e-06  0.3205 y y y y y y y y 
   31   49    9  1.408e-07  1.292e-06  0.3205 y y y y y y y y 
   32   50    9  1.432e-07  1.315e-06  0.3205 y y y y y y y y 
   33   11    9  1.419e-07  1.303e-06  0.3205 y y y y y y y y Subspace collapsed.
   34   16   10  7.756e-08  7.133e-07  0.3205 y y y y y y y y Converged.
--------------------------------------------------------------------------------
  Davidson Summary: 
 ------------------------------------------------------------
  State  0: excitation energy =   0.3205 a.u.   (converged)
  State  1: excitation energy =   0.3285 a.u.   (converged)
  State  2: excitation energy =   0.3358 a.u.   (converged)
  State  3: excitation energy =   0.3577 a.u.   (converged)
  State  4: excitation energy =   0.3730 a.u.   (converged)
  State  5: excitation energy =   0.3861 a.u.   (converged)
  State  6: excitation energy =   0.4200 a.u.   (converged)
  State  7: excitation energy =   0.4431 a.u.   (converged)
  State  8: excitation energy =   0.4534 a.u.   (converged)
  State  9: excitation energy =   0.4583 a.u.   (converged)
 ------------------------------------------------------------

  Singlet states of irrep A ...  CPU 215.68 s  wall 67.41 s
  TDMs ...  CPU 2.47 s  wall 0.88 s
  SDMs ...  CPU 5.02 s  wall 1.64 s
  Starting TPA DIIS iterations ... 
------------------------------------ 
   It     Res. Norm  Remark
------------------------------------
                       Guess.
    1     4.407e+00  
    2     5.851e+00  
    3     1.085e+00  
    4     2.633e-01  
    5     6.596e-02  
    6     2.766e-02  
    7     8.469e-03  
    8     1.550e-03  
    9     5.851e-04  
   10     9.777e-05  
   11     3.262e-05  
   12     5.195e-06  
   13     2.100e-06  
   14     5.620e-07  Converged.
   ... Converged in 14 steps (norm: 5.62034e-07)
------------------------------------
  Starting TPA DIIS iterations ... 
------------------------------------ 
   It     Res. Norm  Remark
------------------------------------
                       Guess.
    1     4.185e+00  
    2     5.549e+00  
    3     1.041e+00  
    4     2.644e-01  
    5     6.573e-02  
    6     2.806e-02  
    7     8.359e-03  
    8     1.601e-03  
    9     6.013e-04  
   10     9.935e-05  
   11     3.379e-05  
   12     5.322e-06  
   13     2.105e-06  
   14     5.431e-07  Converged.
   ... Converged in 14 steps (norm: 5.43126e-07)
------------------------------------
  Starting TPA DIIS iterations ... 
------------------------------------ 
   It     Res. Norm  Remark
------------------------------------
                       Guess.
    1     7.617e-01  
    2     6.335e-01  
    3     2.028e-01  
    4     1.354e-01  
    5     1.747e-02  
    6     6.274e-03  
    7     1.129e-03  
    8     4.730e-04  
    9     1.318e-04  
   10     2.955e-05  
   11     6.513e-06  
   12     2.582e-06  
   13     1.481e-06  
   14     5.567e-07  Converged.
   ... Converged in 14 steps (norm: 5.56655e-07)
------------------------------------
  Starting TPA DIIS iterations ... 
------------------------------------ 
   It     Res. Norm  Remark
------------------------------------
                       Guess.
    1     4.602e+00  
    2     6.201e+00  
    3     1.141e+00  
    4     2.831e-01  
    5     7.162e-02  
    6     3.022e-02  
    7     9.243e-03  
    8     1.692e-03  
    9     6.419e-04  
   10     1.076e-04  
   11     3.629e-05  
   12     5.816e-06  
   13     2.402e-06  
   14     6.407e-07  Converged.
   ... Converged in 14 steps (norm: 6.40734e-07)
------------------------------------
  Starting TPA DIIS iterations ... 
------------------------------------ 
   It     Res. Norm  Remark
------------------------------------
                       Guess.
    1     4.370e+00  
    2     5.881e+00  
    3     1.094e+00  
    4     2.842e-01  
    5     7.137e-02  
    6     3.069e-02  
    7     9.126e-03  
    8     1.749e-03  
    9     6.601e-04  
   10     1.094e-04  
   11     3.757e-05  
   12     5.957e-06  
   13     2.403e-06  
   14     6.131e-07  Converged.
   ... Converged in 14 steps (norm: 6.13146e-07)
------------------------------------
  Starting TPA DIIS iterations ... 
------------------------------------ 
   It     Res. Norm  Remark
------------------------------------
                       Guess.
    1     7.754e-01  
    2     6.584e-01  
    3     2.116e-01  
    4     1.416e-01  
    5     1.850e-02  
    6     6.712e-03  
    7     1.228e-03  
    8     5.290e-04  
    9     1.491e-04  
   10     3.221e-05  
   11     7.231e-06  
   12     2.866e-06  
   13     1.639e-06  
   14     6.455e-07  Converged.
   ... Converged in 14 steps (norm: 6.45473e-07)
------------------------------------
  Starting TPA DIIS iterations ... 
------------------------------------ 
   It     Res. Norm  Remark
------------------------------------
                       Guess.
    1     4.791e+00  
    2     6.544e+00  
    3     1.194e+00  
    4     3.029e-01  
    5     7.726e-02  
    6     3.280e-02  
    7     1.002e-02  
    8     1.833e-03  
    9     6.989e-04  
   10     1.175e-04  
   11     4.003e-05  
   12     6.451e-06  
   13     2.719e-06  
   14     7.249e-07  Converged.
   ... Converged in 14 steps (norm: 7.24946e-07)
------------------------------------
  Starting TPA DIIS iterations ... 
------------------------------------ 
   It     Res. Norm  Remark
------------------------------------
                       Guess.
    1     4.549e+00  
    2     6.206e+00  
    3     1.145e+00  
    4     3.039e-01  
    5     7.700e-02  
    6     3.332e-02  
    7     9.893e-03  
    8     1.896e-03  
    9     7.191e-04  
   10     1.194e-04  
   11     4.143e-05  
   12     6.605e-06  
   13     2.715e-06  
   14     6.869e-07  Converged.
   ... Converged in 14 steps (norm: 6.86865e-07)
------------------------------------
  Starting TPA DIIS iterations ... 
------------------------------------ 
   It     Res. Norm  Remark
------------------------------------
                       Guess.
    1     7.885e-01  
    2     6.826e-01  
    3     2.200e-01  
    4     1.473e-01  
    5     1.951e-02  
    6     7.147e-03  
    7     1.329e-03  
    8     5.868e-04  
    9     1.668e-04  
   10     3.463e-05  
   11     7.980e-06  
   12     3.160e-06  
   13     1.798e-06  
   14     7.372e-07  Converged.
   ... Converged in 14 steps (norm: 7.37194e-07)
------------------------------------
  Starting TPA DIIS iterations ... 
------------------------------------ 
   It     Res. Norm  Remark
------------------------------------
                       Guess.
    1     5.446e+00  
    2     7.763e+00  
    3     1.379e+00  
    4     3.754e-01  
    5     9.794e-02  
    6     4.233e-02  
    7     1.286e-02  
    8     2.352e-03  
    9     9.106e-04  
   10     1.541e-04  
   11     5.439e-05  
   12     8.884e-06  
   13     4.017e-06  
   14     1.090e-06  
   15     6.518e-07  Converged.
   ... Converged in 15 steps (norm: 6.51752e-07)
------------------------------------
  Starting TPA DIIS iterations ... 
------------------------------------ 
   It     Res. Norm  Remark
------------------------------------
                       Guess.
    1     5.168e+00  
    2     7.361e+00  
    3     1.321e+00  
    4     3.761e-01  
    5     9.764e-02  
    6     4.310e-02  
    7     1.271e-02  
    8     2.439e-03  
    9     9.385e-04  
   10     1.567e-04  
   11     5.618e-05  
   12     9.082e-06  
   13     3.984e-06  
   14     9.971e-07  Converged.
   ... Converged in 14 steps (norm: 9.97147e-07)
------------------------------------
  Starting TPA DIIS iterations ... 
------------------------------------ 
   It     Res. Norm  Remark
------------------------------------
                       Guess.
    1     8.322e-01  
    2     7.673e-01  
    3     2.481e-01  
    4     1.664e-01  
    5     2.307e-02  
    6     8.729e-03  
    7     1.711e-03  
    8     8.082e-04  
    9     2.338e-04  
   10     4.169e-05  
   11     1.102e-05  
   12     4.323e-06  
   13     2.397e-06  
   14     1.090e-06  
   15     2.970e-07  Converged.
   ... Converged in 15 steps (norm: 2.96979e-07)
------------------------------------
  Starting TPA DIIS iterations ... 
------------------------------------ 
   It     Res. Norm  Remark
------------------------------------
                       Guess.
    1     5.993e+00  
    2     8.816e+00  
    3     1.532e+00  
    4     4.405e-01  
    5     1.165e-01  
    6     5.101e-02  
    7     1.541e-02  
    8     2.819e-03  
    9     1.104e-03  
   10     1.875e-04  
   11     6.801e-05  
   12     1.118e-05  
   13     5.347e-06  
   14     1.503e-06  
   15     9.140e-07  Converged.
   ... Converged in 15 steps (norm: 9.13997e-07)
------------------------------------
  Starting TPA DIIS iterations ... 
------------------------------------ 
   It     Res. Norm  Remark
------------------------------------
                       Guess.
    1     5.685e+00  
    2     8.359e+00  
    3     1.467e+00  
    4     4.409e-01  
    5     1.162e-01  
    6     5.202e-02  
    7     1.525e-02  
    8     2.928e-03  
    9     1.139e-03  
   10     1.907e-04  
   11     7.013e-05  
   12     1.140e-05  
   13     5.273e-06  
   14     1.339e-06  
   15     7.863e-07  Converged.
   ... Converged in 15 steps (norm: 7.86299e-07)
------------------------------------
  Starting TPA DIIS iterations ... 
------------------------------------ 
   It     Res. Norm  Remark
------------------------------------
                       Guess.
    1     8.674e-01  
    2     8.395e-01  
    3     2.707e-01  
    4     1.815e-01  
    5     2.612e-02  
    6     1.014e-02  
    7     2.073e-03  
    8     1.008e-03  
    9     2.931e-04  
   10     4.652e-05  
   11     1.417e-05  
   12     5.507e-06  
   13     2.977e-06  
   14     1.419e-06  
   15     4.175e-07  Converged.
   ... Converged in 15 steps (norm: 4.1747e-07)
------------------------------------
  Starting TPA DIIS iterations ... 
------------------------------------ 
   It     Res. Norm  Remark
------------------------------------
                       Guess.
    1     6.538e+00  
    2     9.895e+00  
    3     1.684e+00  
    4     5.092e-01  
    5     1.361e-01  
    6     6.025e-02  
    7     1.810e-02  
    8     3.313e-03  
    9     1.311e-03  
   10     2.231e-04  
   11     8.295e-05  
   12     1.366e-05  
   13     6.901e-06  
   14     2.033e-06  
   15     1.231e-06  
   16     4.821e-07  Converged.
   ... Converged in 16 steps (norm: 4.82068e-07)
------------------------------------
  Starting TPA DIIS iterations ... 
------------------------------------ 
   It     Res. Norm  Remark
------------------------------------
                       Guess.
    1     6.201e+00  
    2     9.381e+00  
    3     1.611e+00  
    4     5.092e-01  
    5     1.357e-01  
    6     6.153e-02  
    7     1.792e-02  
    8     3.445e-03  
    9     1.354e-03  
   10     2.268e-04  
   11     8.537e-05  
   12     1.391e-05  
   13     6.763e-06  
   14     1.773e-06  
   15     1.056e-06  
   16     3.844e-07  Converged.
   ... Converged in 16 steps (norm: 3.84401e-07)
------------------------------------
  Starting TPA DIIS iterations ... 
------------------------------------ 
   It     Res. Norm  Remark
------------------------------------
                       Guess.
    1     9.017e-01  
    2     9.129e-01  
    3     2.923e-01  
    4     1.960e-01  
    5     2.922e-02  
    6     1.162e-02  
    7     2.473e-03  
    8     1.208e-03  
    9     3.526e-04  
   10     5.127e-05  
   11     1.792e-05  
   12     6.924e-06  
   13     3.651e-06  
   14     1.783e-06  
   15     5.717e-07  Converged.
   ... Converged in 15 steps (norm: 5.71713e-07)
------------------------------------
  Starting TPA DIIS iterations ... 
------------------------------------ 
   It     Res. Norm  Remark
------------------------------------
                       Guess.
    1     8.383e+00  
    2     1.374e+01  
    3     2.190e+00  
    4     7.648e-01  
    5     2.090e-01  
    6     9.540e-02  
    7     2.815e-02  
    8     5.166e-03  
    9     2.102e-03  
   10     3.577e-04  
   11     1.420e-04  
   12     2.327e-05  
   13     1.380e-05  
   14     4.838e-06  
   15     2.747e-06  
   16     1.162e-06  
   17     5.187e-07  Converged.
   ... Converged in 17 steps (norm: 5.18687e-07)
------------------------------------
  Starting TPA DIIS iterations ... 
------------------------------------ 
   It     Res. Norm  Remark
------------------------------------
                       Guess.
    1     7.947e+00  
    2     1.302e+01  
    3     2.093e+00  
    4     7.629e-01  
    5     2.086e-01  
    6     9.781e-02  
    7     2.793e-02  
    8     5.390e-03  
    9     2.180e-03  
   10     3.635e-04  
   11     1.452e-04  
   12     2.346e-05  
   13     1.321e-05  
   14     4.052e-06  
   15     2.369e-06  
   16     9.594e-07  Converged.
   ... Converged in 16 steps (norm: 9.59377e-07)
------------------------------------
  Starting TPA DIIS iterations ... 
------------------------------------ 
   It     Res. Norm  Remark
------------------------------------
                       Guess.
    1     1.014e+00  
    2     1.171e+00  
    3     3.597e-01  
    4     2.421e-01  
    5     4.011e-02  
    6     1.704e-02  
    7     4.071e-03  
    8     1.784e-03  
    9     5.449e-04  
   10     7.398e-05  
   11     3.575e-05  
   12     1.394e-05  
   13     6.640e-06  
   14     3.436e-06  
   15     1.224e-06  
   16     1.027e-06  
   17     5.697e-07  Converged.
   ... Converged in 17 steps (norm: 5.69689e-07)
------------------------------------
  Starting TPA DIIS iterations ... 
------------------------------------ 
   It     Res. Norm  Remark
------------------------------------
                       Guess.
    1     1.018e+01  
    2     1.774e+01  
    3     2.669e+00  
    4     1.041e+00  
    5     2.885e-01  
    6     1.346e-01  
    7     3.911e-02  
    8     7.209e-03  
    9     2.994e-03  
   10     5.061e-04  
   11     2.094e-04  
   12     3.424e-05  
   13     2.272e-05  
   14     9.147e-06  
   15     5.011e-06  
   16     2.182e-06  
   17     8.540e-07  Converged.
   ... Converged in 17 steps (norm: 8.53961e-07)
------------------------------------
  Starting TPA DIIS iterations ... 
------------------------------------ 
   It     Res. Norm  Remark
------------------------------------
                       Guess.
    1     9.646e+00  
    2     1.681e+01  
    3     2.550e+00  
    4     1.036e+00  
    5     2.880e-01  
    6     1.384e-01  
    7     3.887e-02  
    8     7.542e-03  
    9     3.117e-03  
   10     5.141e-04  
   11     2.130e-04  
   12     3.422e-05  
   13     2.124e-05  
   14     7.548e-06  
   15     4.408e-06  
   16     1.839e-06  
   17     7.528e-07  Converged.
   ... Converged in 17 steps (norm: 7.52797e-07)
------------------------------------
  Starting TPA DIIS iterations ... 
------------------------------------ 
   It     Res. Norm  Remark
------------------------------------
                       Guess.
    1     1.121e+00  
    2     1.438e+00  
    3     4.183e-01  
    4     2.843e-01  
    5     5.121e-02  
    6     2.263e-02  
    7     5.905e-03  
    8     2.126e-03  
    9     7.174e-04  
   10     1.073e-04  
   11     6.113e-05  
   12     2.437e-05  
   13     1.036e-05  
   14     5.991e-06  
   15     1.899e-06  
   16     1.914e-06  
   17     1.024e-06  
   18     3.704e-07  Converged.
   ... Converged in 18 steps (norm: 3.70406e-07)
------------------------------------
  Starting TPA DIIS iterations ... 
------------------------------------ 
   It     Res. Norm  Remark
------------------------------------
                       Guess.
    1     1.118e+01  
    2     2.009e+01  
    3     2.934e+00  
    4     1.204e+00  
    5     3.361e-01  
    6     1.585e-01  
    7     4.569e-02  
    8     8.449e-03  
    9     3.541e-03  
   10     5.954e-04  
   11     2.508e-04  
   12     4.128e-05  
   13     2.857e-05  
   14     1.221e-05  
   15     6.699e-06  
   16     2.950e-06  
   17     1.107e-06  
   18     4.792e-07  Converged.
   ... Converged in 18 steps (norm: 4.79243e-07)
------------------------------------
  Starting TPA DIIS iterations ... 
------------------------------------ 
   It     Res. Norm  Remark
------------------------------------
                       Guess.
    1     1.060e+01  
    2     1.904e+01  
    3     2.801e+00  
    4     1.198e+00  
    5     3.357e-01  
    6     1.632e-01  
    7     4.544e-02  
    8     8.850e-03  
    9     3.695e-03  
   10     6.050e-04  
   11     2.546e-04  
   12     4.114e-05  
   13     2.641e-05  
   14     1.004e-05  
   15     5.956e-06  
   16     2.491e-06  
   17     9.623e-07  Converged.
   ... Converged in 17 steps (norm: 9.62275e-07)
------------------------------------
  Starting TPA DIIS iterations ... 
------------------------------------ 
   It     Res. Norm  Remark
------------------------------------
                       Guess.
    1     1.180e+00  
    2     1.594e+00  
    3     4.488e-01  
    4     3.073e-01  
    5     5.761e-02  
    6     2.574e-02  
    7     7.015e-03  
    8     2.241e-03  
    9     8.098e-04  
   10     1.292e-04  
   11     7.863e-05  
   12     3.162e-05  
   13     1.274e-05  
   14     8.018e-06  
   15     2.311e-06  
   16     2.566e-06  
   17     1.315e-06  
   18     5.124e-07  Converged.
   ... Converged in 18 steps (norm: 5.12397e-07)
------------------------------------
  Starting TPA DIIS iterations ... 
------------------------------------ 
   It     Res. Norm  Remark
------------------------------------
                       Guess.
    1     1.172e+01  
    2     2.136e+01  
    3     3.073e+00  
    4     1.294e+00  
    5     3.623e-01  
    6     1.717e-01  
    7     4.931e-02  
    8     9.135e-03  
    9     3.845e-03  
   10     6.446e-04  
   11     2.739e-04  
   12     4.537e-05  
   13     3.193e-05  
   14     1.401e-05  
   15     7.727e-06  
   16     3.424e-06  
   17     1.266e-06  
   18     5.396e-07  Converged.
   ... Converged in 18 steps (norm: 5.3958e-07)
------------------------------------
  Starting TPA DIIS iterations ... 
------------------------------------ 
   It     Res. Norm  Remark
------------------------------------
                       Guess.
    1     1.111e+01  
    2     2.025e+01  
    3     2.934e+00  
    4     1.286e+00  
    5     3.619e-01  
    6     1.769e-01  
    7     4.906e-02  
    8     9.577e-03  
    9     4.018e-03  
   10     6.551e-04  
   11     2.778e-04  
   12     4.518e-05  
   13     2.936e-05  
   14     1.152e-05  
   15     6.903e-06  
   16     2.887e-06  
   17     1.091e-06  
   18     5.450e-07  Converged.
   ... Converged in 18 steps (norm: 5.45044e-07)
------------------------------------
  Starting TPA DIIS iterations ... 
------------------------------------ 
   It     Res. Norm  Remark
------------------------------------
                       Guess.
    1     1.212e+00  
    2     1.679e+00  
    3     4.644e-01  
    4     3.193e-01  
    5     6.107e-02  
    6     2.736e-02  
    7     7.623e-03  
    8     2.288e-03  
    9     8.582e-04  
   10     1.415e-04  
   11     8.881e-05  
   12     3.582e-05  
   13     1.411e-05  
   14     9.312e-06  
   15     2.598e-06  
   16     2.961e-06  
   17     1.478e-06  
   18     5.988e-07  Converged.
   ... Converged in 18 steps (norm: 5.98798e-07)
------------------------------------
  Two-photon absorbption ...  CPU 173.47 s  wall 46.52 s
  Transition density matrix of state singlet_A_1 printed to ASCII file 'State_singlet_A_1_Transition.txt'
  Transition density matrix of state singlet_A_2 printed to ASCII file 'State_singlet_A_2_Transition.txt'
  Transition density matrix of state singlet_A_3 printed to ASCII file 'State_singlet_A_3_Transition.txt'
  Transition density matrix of state singlet_A_4 printed to ASCII file 'State_singlet_A_4_Transition.txt'
  Transition density matrix of state singlet_A_5 printed to ASCII file 'State_singlet_A_5_Transition.txt'
  Transition density matrix of state singlet_A_6 printed to ASCII file 'State_singlet_A_6_Transition.txt'
  Transition density matrix of state singlet_A_7 printed to ASCII file 'State_singlet_A_7_Transition.txt'
  Transition density matrix of state singlet_A_8 printed to ASCII file 'State_singlet_A_8_Transition.txt'
  Transition density matrix of state singlet_A_9 printed to ASCII file 'State_singlet_A_9_Transition.txt'
  Transition density matrix of state singlet_A_10 printed to ASCII file 'State_singlet_A_10_Transition.txt'
  Transition properties ...  CPU 0.36 s  wall 4.66 s
  Difference density matrix of state singlet_A_1 printed to ASCII file 'State_singlet_A_1_Difference.txt'
  Total density matrix of state singlet_A_1 printed to ASCII file 'State_singlet_A_1_Total.txt'
  Difference density matrix of state singlet_A_2 printed to ASCII file 'State_singlet_A_2_Difference.txt'
  Total density matrix of state singlet_A_2 printed to ASCII file 'State_singlet_A_2_Total.txt'
  Difference density matrix of state singlet_A_3 printed to ASCII file 'State_singlet_A_3_Difference.txt'
  Total density matrix of state singlet_A_3 printed to ASCII file 'State_singlet_A_3_Total.txt'
  Difference density matrix of state singlet_A_4 printed to ASCII file 'State_singlet_A_4_Difference.txt'
  Total density matrix of state singlet_A_4 printed to ASCII file 'State_singlet_A_4_Total.txt'
  Difference density matrix of state singlet_A_5 printed to ASCII file 'State_singlet_A_5_Difference.txt'
  Total density matrix of state singlet_A_5 printed to ASCII file 'State_singlet_A_5_Total.txt'
  Difference density matrix of state singlet_A_6 printed to ASCII file 'State_singlet_A_6_Difference.txt'
  Total density matrix of state singlet_A_6 printed to ASCII file 'State_singlet_A_6_Total.txt'
  Difference density matrix of state singlet_A_7 printed to ASCII file 'State_singlet_A_7_Difference.txt'
  Total density matrix of state singlet_A_7 printed to ASCII file 'State_singlet_A_7_Total.txt'
  Difference density matrix of state singlet_A_8 printed to ASCII file 'State_singlet_A_8_Difference.txt'
  Total density matrix of state singlet_A_8 printed to ASCII file 'State_singlet_A_8_Total.txt'
  Difference density matrix of state singlet_A_9 printed to ASCII file 'State_singlet_A_9_Difference.txt'
  Total density matrix of state singlet_A_9 printed to ASCII file 'State_singlet_A_9_Total.txt'
  Difference density matrix of state singlet_A_10 printed to ASCII file 'State_singlet_A_10_Difference.txt'
  Total density matrix of state singlet_A_10 printed to ASCII file 'State_singlet_A_10_Total.txt'
  Properties ...  CPU 0.76 s  wall 1.51 s
  ISR TDMS ...  CPU 32.05 s  wall 13.38 s
  ISR transition properties ...  CPU 0.55 s  wall 0.35 s
  Sum-over-states TPA ...  CPU 0.00 s  wall 0.00 s

--------------------------------------------------------------------------------
                   State-averaged natural transition orbitals
--------------------------------------------------------------------------------
--------------------------------------------------------------------------------
  SA-NTO decomposition ...  CPU 0.01 s  wall 0.16 s

--------------------------------------------------------------------------------
                             Excited State Summary
--------------------------------------------------------------------------------
--------------------------------------------------------------------------------

  Excited state 1 (singlet, A)                                     [converged]
  ----------------------------------------------------------------------------
  Term symbol:  2 (1) A                                     R^2 =  2.70911e-13

  Total energy:                                            -77.9994355665 a.u.
  Excitation energy:                                               8.720948 eV

  Osc. strength:                                                      0.444211
  Trans. dip. moment [a.u.]:           [   1.044387,   -0.993161,    0.044136]
  <i|r^2|0> [a.u.]:                    [   6.137063,   -0.259876,    0.003865]
  Two-photon absorption cross-section (SoS) [a.u.]:                   0.010093
  Two-photon absorption matrix (SoS) [a.u.]:
                                       |    0.018321    0.015534   -0.008220 |
                                       |    0.015534    0.020363    0.014050 |
                                       |   -0.008220    0.014050    0.000307 |
  Two-photon absorption cross-section [a.u.]:                         0.006326
  Two-photon absorption matrix [a.u.]:
                                       |    0.001369    0.006418   -0.017594 |
                                       |    0.006418    0.001340    0.019922 |
                                       |   -0.017594    0.019922   -0.008220 |

  Dip. moment [a.u.]:                  [   0.001639,   -0.003767,    0.010463]
  Total dipole [Debye]:                                               0.028572
  <r^2> [a.u.]:                        [ 175.668399,   36.015387,   11.998457]
  Total <r^2> [a.u.]:                                               223.682243

  V1^2 = 0.9712, V2^2 = 0.0288

  Important amplitudes:
      occ i     occ j     vir a      vir b          v   
    -----------------------------------------------------
     8 (A) A              9 (A) A                 0.6806
     6 (A) A             14 (A) A                 0.0618
     4 (A) A             10 (A) A                 0.0611
     7 (A) A             16 (A) A                 0.0572
     5 (A) A             13 (A) A                -0.0527
     6 (A) A             23 (A) A                 0.0484
     8 (A) A             20 (A) A                 0.0347
     6 (A) A             19 (A) A                -0.0302
     3 (A) A             12 (A) A                -0.0284
     5 (A) A             22 (A) A                 0.0217
     4 (A) A             24 (A) A                 0.0188
     7 (A) A             11 (A) A                -0.0186
     3 (A) A             26 (A) A                -0.0186
     8 (A) A             10 (A) A                 0.0185
     8 (A) A   8 (A) B   17 (A) A   20 (A) B     -0.0183
     8 (A) A   8 (A) B    9 (A) A   28 (A) B     -0.0168
     6 (A) A             26 (A) A                 0.0163
     7 (A) A             21 (A) A                 0.0152
     3 (A) A             14 (A) A                -0.0143
     6 (A) A             12 (A) A                -0.0135
     3 (A) A   4 (A) B    9 (A) A    9 (A) B     -0.0129
     3 (A) A             19 (A) A                 0.0120
     8 (A) A   8 (A) B   18 (A) A   19 (A) B     -0.0110
     7 (A) A             32 (A) A                 0.0095
     7 (A) A             36 (A) A                 0.0085
     3 (A) A             23 (A) A                -0.0082
     8 (A) A   8 (A) B   25 (A) A   29 (A) B      0.0073
     4 (A) A              9 (A) A                 0.0071
     6 (A) A             40 (A) A                 0.0065
     3 (A) A   6 (A) B    9 (A) A   28 (A) B      0.0064
     5 (A) A   8 (A) B   11 (A) A    9 (A) B     -0.0062
     7 (A) A   8 (A) B   13 (A) A   20 (A) B      0.0060
     5 (A) A   7 (A) B    9 (A) A    9 (A) B     -0.0060
     5 (A) A   8 (A) B   11 (A) A   20 (A) B      0.0060
     6 (A) A   8 (A) A   19 (A) A   28 (A) A     -0.0059
     5 (A) A   8 (A) B   16 (A) A    9 (A) B     -0.0059
     5 (A) A             27 (A) A                -0.0059
     6 (A) A             35 (A) A                 0.0058
     7 (A) A   8 (A) B   22 (A) A   20 (A) B     -0.0057
     3 (A) A   5 (A) B    9 (A) A   25 (A) B     -0.0056
    -----------------------------------------------------

  Density matrix analysis:
  ------------------------
  NOs
    Occupation of frontier NOs:
       0.9493   1.0217
    Number of electrons: 16.000000
    Number of unpaired electrons: n_u =  2.31706, n_u,nl =  2.03333
    NO participation ratio (PR_NO):  2.873474
  
  
  Mulliken Population Analysis
  Atom      Charge (e)              h+              e-           Del q
  --------------------------------------------------------------------
   1 H        0.062284        0.020564       -0.012969        0.007595
   2 C       -0.119038        0.490695       -0.504900       -0.014205
   3 H        0.062197        0.020477       -0.013040        0.007437
   4 C       -0.130997        0.490523       -0.505427       -0.014904
   5 H        0.062956        0.020594       -0.013627        0.006967
   6 H        0.062597        0.020655       -0.013545        0.007109
  --------------------------------------------------------------------
  Sum:        0.000000        1.063508       -1.063508       -0.000000
  
  Multipole moment analysis of the density matrix
    Molecular charge:                      0.000000
    Number of electrons:                   16.000000
      Center of electronic charge [Ang]: [ -1.555787,  -0.070516,  -0.007763]
    Total nuclear charge:                  16.000000
      Center of nuclear charge [Ang]:    [ -1.555732,  -0.070640,  -0.007417]
    Dipole moment [D]:                     0.028572
      Cartesian components [D]:          [  0.004167,  -0.009574,   0.026595]
    RMS size of the density [Ang]:         1.220382
      Cartesian components [Ang]:        [  0.808726,   0.790798,   0.458186]
  
  Exciton analysis of the difference density matrix
    <r_h> [Ang]:                  [ -1.554805,  -0.071005,  -0.012040]
    <r_e> [Ang]:                  [ -1.555931,  -0.069826,  -0.012854]
    |<r_e - r_h>| [Ang]:            0.001822
    Hole size [Ang]:                1.288122
      Cartesian components [Ang]: [  0.732290,   0.715201,   0.781983]
    Electron size [Ang]:            1.467127
      Cartesian components [Ang]: [  0.859930,   0.833688,   0.847316]

  Transition density matrix analysis:
  -----------------------------------
  
  CT numbers (Mulliken)
    omega =     0.9530
    <Phe> =    -0.1602
  
  Exciton analysis of the transition density matrix
    Trans. dipole moment [D]:             1.832466
      Cartesian components [D]:         [  1.327283,  -1.262182,   0.056092]
    <r_h> [Ang]:                        [ -1.554192,  -0.071801,  -0.011126]
    <r_e> [Ang]:                        [ -1.555979,  -0.069626,  -0.013651]
    |<r_e - r_h>| [Ang]:                  0.003781
    Hole size [Ang]:                      1.214813
      Cartesian components [Ang]:       [  0.652219,   0.637157,   0.802752]
    Electron size [Ang]:                  1.490316
      Cartesian components [Ang]:       [  0.870594,   0.842846,   0.867593]
    RMS electron-hole separation [Ang]:   1.940227
      Cartesian components [Ang]:       [  1.112711,   1.077920,   1.168095]
    Covariance(r_h, r_e) [Ang^2]:        -0.033829
    Correlation coefficient:             -0.018685
    Center-of-mass size [Ang]:            0.952517
      Cartesian components [Ang]:       [  0.531161,   0.517399,   0.597875]

  Decomposition into state-averaged NTOs
    H- 0 -> L+ 0:  0.6687 ( 89.4%)
    H- 2 -> L+ 5:  0.0830 (  1.4%)
                   omega =  95.3%
  ----------------------------------------------------------------------------


  Excited state 2 (singlet, A)                                     [converged]
  ----------------------------------------------------------------------------
  Term symbol:  3 (1) A                                     R^2 =  2.72559e-13

  Total energy:                                            -77.9913809920 a.u.
  Excitation energy:                                               8.940124 eV

  Osc. strength:                                                      0.000014
  Trans. dip. moment [a.u.]:           [   0.004470,    0.005137,    0.004169]
  <i|r^2|0> [a.u.]:                    [   0.205825,    0.040124,   -0.218659]
  Two-photon absorption cross-section (SoS) [a.u.]:                   4.571145
  Two-photon absorption matrix (SoS) [a.u.]:
                                       |    0.172302    0.087718   -0.483142 |
                                       |    0.087718   -0.038092   -0.548295 |
                                       |   -0.483142   -0.548295   -0.166242 |
  Two-photon absorption cross-section [a.u.]:                         1.005312
  Two-photon absorption matrix [a.u.]:
                                       |    0.296630   -0.001129    0.103469 |
                                       |   -0.001129   -0.340804    0.110896 |
                                       |    0.103469    0.110896    0.033544 |

  Dip. moment [a.u.]:                  [  -0.034830,    0.025015,    0.019296]
  Total dipole [Debye]:                                               0.119523
  <r^2> [a.u.]:                        [ 173.868321,   34.256932,   13.285923]
  Total <r^2> [a.u.]:                                               221.411176

  V1^2 = 0.9540, V2^2 = 0.0460

  Important amplitudes:
      occ i     occ j     vir a      vir b          v   
    -----------------------------------------------------
     7 (A) A              9 (A) A                -0.6687
     8 (A) A             11 (A) A                 0.1494
     7 (A) A             20 (A) A                -0.0756
     5 (A) A   8 (A) B    9 (A) A    9 (A) B      0.0315
     8 (A) A             16 (A) A                 0.0278
     8 (A) A             21 (A) A                -0.0175
     7 (A) A             10 (A) A                 0.0153
     5 (A) A             28 (A) A                 0.0150
     4 (A) A   7 (A) B    9 (A) A   19 (A) B      0.0135
     5 (A) A   7 (A) B    9 (A) A   16 (A) B     -0.0134
     7 (A) A   8 (A) B   20 (A) A   17 (A) B      0.0105
     7 (A) A   8 (A) A    9 (A) A   28 (A) A     -0.0098
     5 (A) A   8 (A) B    9 (A) A   20 (A) B      0.0094
     4 (A) A   6 (A) B    9 (A) A   16 (A) B     -0.0091
     5 (A) A   6 (A) A    9 (A) A   23 (A) A     -0.0090
     5 (A) A   6 (A) A    9 (A) A   14 (A) A     -0.0089
     5 (A) A   6 (A) B    9 (A) A   19 (A) B      0.0086
     8 (A) A   7 (A) B    9 (A) A   28 (A) B      0.0085
     4 (A) A   5 (A) A    9 (A) A   10 (A) A      0.0085
     6 (A) A   7 (A) B    9 (A) A   18 (A) B     -0.0085
     5 (A) A   6 (A) B    9 (A) A   23 (A) B     -0.0080
     3 (A) A   7 (A) B    9 (A) A   18 (A) B     -0.0080
     5 (A) A   7 (A) A    9 (A) A   16 (A) A     -0.0078
     4 (A) A   7 (A) B   19 (A) A    9 (A) B      0.0075
     7 (A) A   8 (A) B   17 (A) A   20 (A) B      0.0074
     4 (A) A   8 (A) B    9 (A) A   25 (A) B      0.0074
     5 (A) A   5 (A) B    9 (A) A   13 (A) B      0.0072
     7 (A) A   8 (A) B   19 (A) A   18 (A) B      0.0070
     4 (A) A   5 (A) B    9 (A) A   18 (A) B     -0.0069
     5 (A) A   8 (A) A    9 (A) A   20 (A) A      0.0068
     7 (A) A   7 (A) B   20 (A) A   22 (A) B      0.0066
     8 (A) A             10 (A) A                -0.0065
     7 (A) A   8 (A) B   17 (A) A    9 (A) B      0.0065
     5 (A) A   6 (A) B    9 (A) A   14 (A) B     -0.0063
     5 (A) A   7 (A) B   11 (A) A   20 (A) B     -0.0062
     4 (A) A   5 (A) B   10 (A) A    9 (A) B     -0.0061
     4 (A) A   7 (A) A    9 (A) A   19 (A) A      0.0061
     5 (A) A             38 (A) A                 0.0060
     4 (A) A   6 (A) B   16 (A) A    9 (A) B     -0.0058
     6 (A) A   7 (A) A   19 (A) A   28 (A) A      0.0056
    -----------------------------------------------------

  Density matrix analysis:
  ------------------------
  NOs
    Occupation of frontier NOs:
       0.9571   1.0542
    Number of electrons: 16.000000
    Number of unpaired electrons: n_u =  2.35867, n_u,nl =  2.06419
    NO participation ratio (PR_NO):  3.039389
  
  
  Mulliken Population Analysis
  Atom      Charge (e)              h+              e-           Del q
  --------------------------------------------------------------------
   1 H        0.146451        0.116982       -0.025220        0.091762
   2 C       -0.306806        0.266914       -0.468887       -0.201972
   3 H        0.156144        0.125658       -0.024275        0.101384
   4 C       -0.315399        0.278746       -0.478053       -0.199306
   5 H        0.163826        0.134048       -0.026210        0.107838
   6 H        0.155783        0.123225       -0.022929        0.100295
  --------------------------------------------------------------------
  Sum:        0.000000        1.045574       -1.045574       -0.000000
  
  Multipole moment analysis of the density matrix
    Molecular charge:                      0.000000
    Number of electrons:                   16.000000
      Center of electronic charge [Ang]: [ -1.554580,  -0.071468,  -0.008055]
    Total nuclear charge:                  16.000000
      Center of nuclear charge [Ang]:    [ -1.555732,  -0.070640,  -0.007417]
    Dipole moment [D]:                     0.119523
      Cartesian components [D]:          [ -0.088530,   0.063581,   0.049046]
    RMS size of the density [Ang]:         1.205486
      Cartesian components [Ang]:        [  0.791382,   0.771006,   0.482144]
  
  Exciton analysis of the difference density matrix
    <r_h> [Ang]:                  [ -1.573121,  -0.050959,  -0.006370]
    <r_e> [Ang]:                  [ -1.555808,  -0.064326,  -0.011668]
    |<r_e - r_h>| [Ang]:            0.022505
    Hole size [Ang]:                1.496244
      Cartesian components [Ang]: [  0.998062,   1.015533,   0.459685]
    Electron size [Ang]:            1.479226
      Cartesian components [Ang]: [  0.882312,   0.863315,   0.815060]

  Transition density matrix analysis:
  -----------------------------------
  
  CT numbers (Mulliken)
    omega =     0.9212
    <Phe> =    -0.0116
  
  Exciton analysis of the transition density matrix
    Trans. dipole moment [D]:             0.010148
      Cartesian components [D]:         [  0.005681,   0.006529,   0.005299]
    <r_h> [Ang]:                        [ -1.576287,  -0.047934,  -0.005123]
    <r_e> [Ang]:                        [ -1.553259,  -0.066386,  -0.012946]
    |<r_e - r_h>| [Ang]:                  0.030528
    Hole size [Ang]:                      1.527378
      Cartesian components [Ang]:       [  1.021207,   1.042125,   0.451660]
    Electron size [Ang]:                  1.474508
      Cartesian components [Ang]:       [  0.871321,   0.851155,   0.830969]
    RMS electron-hole separation [Ang]:   2.103251
      Cartesian components [Ang]:       [  1.326565,   1.330720,   0.945027]
    Covariance(r_h, r_e) [Ang^2]:         0.042162
    Correlation coefficient:              0.018721
    Center-of-mass size [Ang]:            1.071376
      Cartesian components [Ang]:       [  0.679132,   0.680166,   0.473286]

  Decomposition into state-averaged NTOs
    H- 1 -> L+ 0:  0.6611 ( 87.4%)
    H- 0 -> L+ 2:  0.1494 (  4.5%)
                   omega =  92.1%
  ----------------------------------------------------------------------------


  Excited state 3 (singlet, A)                                     [converged]
  ----------------------------------------------------------------------------
  Term symbol:  4 (1) A                                     R^2 =  2.54269e-13

  Total energy:                                            -77.9841033319 a.u.
  Excitation energy:                                               9.138159 eV

  Osc. strength:                                                      0.025373
  Trans. dip. moment [a.u.]:           [   0.030928,   -0.079062,    0.325766]
  <i|r^2|0> [a.u.]:                    [   0.185507,   -0.014192,    0.007735]
  Two-photon absorption cross-section (SoS) [a.u.]:                   0.065948
  Two-photon absorption matrix (SoS) [a.u.]:
                                       |   -0.019505    0.011994    0.011975 |
                                       |    0.011994   -0.020860   -0.022452 |
                                       |    0.011975   -0.022452   -0.081573 |
  Two-photon absorption cross-section [a.u.]:                         0.088074
  Two-photon absorption matrix [a.u.]:
                                       |   -0.052366    0.024589    0.007610 |
                                       |    0.024589   -0.049805   -0.025339 |
                                       |    0.007610   -0.025339   -0.050429 |

  Dip. moment [a.u.]:                  [   0.018142,   -0.050432,   -0.014327]
  Total dipole [Debye]:                                               0.141010
  <r^2> [a.u.]:                        [ 180.434612,   40.969485,   11.196472]
  Total <r^2> [a.u.]:                                               232.600569

  V1^2 = 0.9581, V2^2 = 0.0419

  Important amplitudes:
      occ i     occ j     vir a      vir b          v   
    -----------------------------------------------------
     8 (A) A             10 (A) A                -0.6884
     8 (A) A             24 (A) A                -0.0507
     8 (A) A             18 (A) A                 0.0332
     4 (A) A              9 (A) A                -0.0243
     8 (A) A   8 (A) B    9 (A) A   12 (A) B      0.0222
     8 (A) A              9 (A) A                 0.0179
     8 (A) A   8 (A) B   10 (A) A   17 (A) B     -0.0171
     5 (A) A   8 (A) B   11 (A) A   10 (A) B      0.0169
     8 (A) A             15 (A) A                -0.0149
     7 (A) A   8 (A) B   13 (A) A   10 (A) B      0.0143
     4 (A) A   8 (A) B   12 (A) A   10 (A) B      0.0112
     6 (A) A   8 (A) A   10 (A) A   15 (A) A     -0.0112
     6 (A) A   8 (A) B   15 (A) A   10 (A) B      0.0109
     7 (A) A   8 (A) B   22 (A) A   10 (A) B     -0.0109
     4 (A) A   8 (A) A   10 (A) A   12 (A) A     -0.0108
     7 (A) A   8 (A) A   10 (A) A   22 (A) A      0.0099
     7 (A) A   8 (A) A   10 (A) A   13 (A) A     -0.0098
     5 (A) A   8 (A) A   10 (A) A   11 (A) A     -0.0097
     5 (A) A   8 (A) B   21 (A) A   10 (A) B     -0.0093
     6 (A) A   8 (A) B   10 (A) A   10 (A) B     -0.0089
     6 (A) A   8 (A) A   10 (A) A   18 (A) A     -0.0086
     7 (A) A   8 (A) A   12 (A) A   16 (A) A      0.0083
     3 (A) A   4 (A) B   10 (A) A    9 (A) B      0.0080
     5 (A) A   8 (A) A   10 (A) A   21 (A) A      0.0079
     4 (A) A   8 (A) B   19 (A) A   10 (A) B     -0.0075
     8 (A) A   8 (A) B    9 (A) A   23 (A) B     -0.0075
     8 (A) A   8 (A) B   10 (A) A   28 (A) B      0.0074
     5 (A) A   8 (A) B   10 (A) A   11 (A) B      0.0072
     7 (A) A   8 (A) B   16 (A) A   12 (A) B     -0.0072
     3 (A) A   8 (A) A   10 (A) A   24 (A) A      0.0072
     7 (A) A              9 (A) A                 0.0071
     3 (A) A   8 (A) B   10 (A) A   10 (A) B     -0.0071
     8 (A) A   8 (A) B    9 (A) A   19 (A) B     -0.0069
     3 (A) A   8 (A) B   10 (A) A   18 (A) B      0.0067
     6 (A) A   8 (A) B   18 (A) A   10 (A) B      0.0065
     3 (A) A   6 (A) B   10 (A) A   28 (A) B     -0.0062
     7 (A) A   8 (A) B   12 (A) A   11 (A) B     -0.0059
     6 (A) A             28 (A) A                 0.0058
     5 (A) A   8 (A) A   10 (A) A   16 (A) A     -0.0057
     6 (A) A   8 (A) A   11 (A) A   16 (A) A      0.0055
    -----------------------------------------------------

  Density matrix analysis:
  ------------------------
  NOs
    Occupation of frontier NOs:
       0.9814   0.9845
    Number of electrons: 16.000000
    Number of unpaired electrons: n_u =  2.28925, n_u,nl =  2.02516
    NO participation ratio (PR_NO):  2.702602
  
  
  Mulliken Population Analysis
  Atom      Charge (e)              h+              e-           Del q
  --------------------------------------------------------------------
   1 H       -0.152212        0.053998       -0.260898       -0.206900
   2 C        0.310908        0.535341       -0.119600        0.415742
   3 H       -0.147986        0.054385       -0.257130       -0.202746
   4 C        0.304723        0.540004       -0.119188        0.420816
   5 H       -0.161098        0.054371       -0.271458       -0.217087
   6 H       -0.154336        0.054347       -0.264171       -0.209824
  --------------------------------------------------------------------
  Sum:        0.000000        1.292445       -1.292445        0.000000
  
  Multipole moment analysis of the density matrix
    Molecular charge:                      0.000000
    Number of electrons:                   16.000000
      Center of electronic charge [Ang]: [ -1.556332,  -0.068972,  -0.006943]
    Total nuclear charge:                  16.000000
      Center of nuclear charge [Ang]:    [ -1.555732,  -0.070640,  -0.007417]
    Dipole moment [D]:                     0.141010
      Cartesian components [D]:          [  0.046113,  -0.128185,  -0.036415]
    RMS size of the density [Ang]:         1.282166
      Cartesian components [Ang]:        [  0.857763,   0.843968,   0.442617]
  
  Exciton analysis of the difference density matrix
    <r_h> [Ang]:                  [ -1.557268,  -0.068548,  -0.010137]
    <r_e> [Ang]:                  [ -1.564951,  -0.048471,  -0.000657]
    |<r_e - r_h>| [Ang]:            0.023495
    Hole size [Ang]:                1.412928
      Cartesian components [Ang]: [  0.836878,   0.822642,   0.786931]
    Electron size [Ang]:            2.077432
      Cartesian components [Ang]: [  1.370826,   1.379620,   0.730211]

  Transition density matrix analysis:
  -----------------------------------
  
  CT numbers (Mulliken)
    omega =     0.9250
    <Phe> =    -0.0114
  
  Exciton analysis of the transition density matrix
    Trans. dipole moment [D]:             0.427834
      Cartesian components [D]:         [  0.039306,  -0.100478,   0.414007]
    <r_h> [Ang]:                        [ -1.554833,  -0.071716,  -0.012633]
    <r_e> [Ang]:                        [ -1.567730,  -0.041272,   0.002012]
    |<r_e - r_h>| [Ang]:                  0.036161
    Hole size [Ang]:                      1.213282
      Cartesian components [Ang]:       [  0.637865,   0.624851,   0.821427]
    Electron size [Ang]:                  2.298623
      Cartesian components [Ang]:       [  1.515252,   1.528303,   0.807445]
    RMS electron-hole separation [Ang]:   2.589391
      Cartesian components [Ang]:       [  1.636510,   1.644268,   1.150288]
    Covariance(r_h, r_e) [Ang^2]:         0.026040
    Correlation coefficient:              0.009337
    Center-of-mass size [Ang]:            1.304588
      Cartesian components [Ang]:       [  0.825791,   0.829097,   0.576730]

  Decomposition into state-averaged NTOs
    H- 0 -> L+ 1:  0.6783 ( 92.0%)
                   omega =  92.5%
  ----------------------------------------------------------------------------


  Excited state 4 (singlet, A)                                     [converged]
  ----------------------------------------------------------------------------
  Term symbol:  5 (1) A                                     R^2 =  4.18505e-13

  Total energy:                                            -77.9621759221 a.u.
  Excitation energy:                                               9.734834 eV

  Osc. strength:                                                      0.000004
  Trans. dip. moment [a.u.]:           [  -0.000343,   -0.000566,   -0.003992]
  <i|r^2|0> [a.u.]:                    [   0.034235,    0.010606,   -0.047329]
  Two-photon absorption cross-section (SoS) [a.u.]:                 135.530157
  Two-photon absorption matrix (SoS) [a.u.]:
                                       |    0.806189    0.479715   -2.711627 |
                                       |    0.479715    0.081299   -2.936619 |
                                       |   -2.711627   -2.936619   -0.901298 |
  Two-photon absorption cross-section [a.u.]:                        82.494458
  Two-photon absorption matrix [a.u.]:
                                       |    0.879018    0.379641   -2.051868 |
                                       |    0.379641   -0.193573   -2.304557 |
                                       |   -2.051868   -2.304557   -0.694895 |

  Dip. moment [a.u.]:                  [   0.038567,    0.012802,   -0.008279]
  Total dipole [Debye]:                                               0.105409
  <r^2> [a.u.]:                        [ 180.622445,   41.094703,   10.910584]
  Total <r^2> [a.u.]:                                               232.627732

  V1^2 = 0.9633, V2^2 = 0.0367

  Important amplitudes:
      occ i     occ j     vir a      vir b          v   
    -----------------------------------------------------
     8 (A) A             11 (A) A                 0.6691
     7 (A) A              9 (A) A                 0.1515
     8 (A) A             21 (A) A                -0.0779
     8 (A) A             16 (A) A                 0.0675
     8 (A) A   8 (A) B    9 (A) A   13 (A) B      0.0167
     5 (A) A   8 (A) B   11 (A) A   11 (A) B     -0.0157
     7 (A) A             20 (A) A                 0.0138
     8 (A) A   8 (A) B   11 (A) A   17 (A) B      0.0137
     7 (A) A   8 (A) B   13 (A) A   11 (A) B     -0.0127
     4 (A) A   8 (A) B   12 (A) A   11 (A) B     -0.0111
     8 (A) A   8 (A) B    9 (A) A   22 (A) B     -0.0110
     5 (A) A   8 (A) A   11 (A) A   21 (A) A     -0.0109
     7 (A) A   8 (A) A   11 (A) A   22 (A) A     -0.0095
     6 (A) A   8 (A) B   10 (A) A   11 (A) B      0.0091
     6 (A) A   8 (A) B   15 (A) A   11 (A) B     -0.0089
     7 (A) A   8 (A) B   22 (A) A   11 (A) B      0.0088
     3 (A) A   4 (A) B   11 (A) A    9 (A) B     -0.0083
     3 (A) A   8 (A) B   11 (A) A   18 (A) B     -0.0080
     6 (A) A   8 (A) A   11 (A) A   15 (A) A      0.0079
     7 (A) A   8 (A) A   13 (A) A   16 (A) A      0.0079
     7 (A) A   8 (A) A   11 (A) A   13 (A) A      0.0075
     4 (A) A   8 (A) B   19 (A) A   11 (A) B      0.0070
     5 (A) A   8 (A) B   21 (A) A   11 (A) B      0.0069
     5 (A) A   8 (A) B    9 (A) A    9 (A) B     -0.0068
     4 (A) A   8 (A) A   11 (A) A   12 (A) A      0.0062
     3 (A) A   6 (A) B   11 (A) A   28 (A) B      0.0060
     6 (A) A   8 (A) A   11 (A) A   18 (A) A      0.0059
     6 (A) A   8 (A) B   18 (A) A   11 (A) B     -0.0058
     7 (A) A   8 (A) B   16 (A) A   13 (A) B     -0.0057
     3 (A) A   8 (A) B   11 (A) A   30 (A) B     -0.0056
     5 (A) A   8 (A) B   10 (A) A   10 (A) B     -0.0055
     7 (A) A   8 (A) B   12 (A) A   10 (A) B      0.0055
     8 (A) A   8 (A) B   20 (A) A   22 (A) B     -0.0055
     6 (A) A   8 (A) B   11 (A) A   10 (A) B      0.0055
     3 (A) A   8 (A) A   11 (A) A   18 (A) A     -0.0054
     3 (A) A   5 (A) B   11 (A) A   25 (A) B     -0.0053
     3 (A) A   8 (A) A   11 (A) A   24 (A) A     -0.0053
     5 (A) A   8 (A) A   11 (A) A   16 (A) A      0.0049
     6 (A) A   8 (A) A   10 (A) A   16 (A) A     -0.0047
     8 (A) A   8 (A) B   11 (A) A   28 (A) B     -0.0043
    -----------------------------------------------------

  Density matrix analysis:
  ------------------------
  NOs
    Occupation of frontier NOs:
       0.9398   1.0283
    Number of electrons: 16.000000
    Number of unpaired electrons: n_u =  2.32258, n_u,nl =  2.05031
    NO participation ratio (PR_NO):  2.926582
  
  
  Mulliken Population Analysis
  Atom      Charge (e)              h+              e-           Del q
  --------------------------------------------------------------------
   1 H       -0.117153        0.045250       -0.217092       -0.171842
   2 C        0.257687        0.494537       -0.132017        0.362521
   3 H       -0.133981        0.046213       -0.234953       -0.188741
   4 C        0.244548        0.497162       -0.136522        0.360641
   5 H       -0.124516        0.046413       -0.226918       -0.180505
   6 H       -0.126585        0.045586       -0.227659       -0.182073
  --------------------------------------------------------------------
  Sum:        0.000000        1.175161       -1.175161       -0.000000
  
  Multipole moment analysis of the density matrix
    Molecular charge:                      -0.000000
    Number of electrons:                   16.000000
      Center of electronic charge [Ang]: [ -1.557008,  -0.071064,  -0.007143]
    Total nuclear charge:                  16.000000
      Center of nuclear charge [Ang]:    [ -1.555732,  -0.070640,  -0.007417]
    Dipole moment [D]:                     0.105409
      Cartesian components [D]:          [  0.098027,   0.032540,  -0.021043]
    RMS size of the density [Ang]:         1.281415
      Cartesian components [Ang]:        [  0.858453,   0.845092,   0.436925]
  
  Exciton analysis of the difference density matrix
    <r_h> [Ang]:                  [ -1.557274,  -0.070153,  -0.010706]
    <r_e> [Ang]:                  [ -1.574921,  -0.076546,  -0.003003]
    |<r_e - r_h>| [Ang]:            0.020289
    Hole size [Ang]:                1.394904
      Cartesian components [Ang]: [  0.818197,   0.807874,   0.789716]
    Electron size [Ang]:            2.114390
      Cartesian components [Ang]: [  1.407750,   1.424081,   0.678882]

  Transition density matrix analysis:
  -----------------------------------
  
  CT numbers (Mulliken)
    omega =     0.9292
    <Phe> =    -0.0145
  
  Exciton analysis of the transition density matrix
    Trans. dipole moment [D]:             0.005143
      Cartesian components [D]:         [ -0.000436,  -0.000719,  -0.005073]
    <r_h> [Ang]:                        [ -1.555518,  -0.070194,  -0.012167]
    <r_e> [Ang]:                        [ -1.579293,  -0.076857,  -0.002061]
    |<r_e - r_h>| [Ang]:                  0.026680
    Hole size [Ang]:                      1.229159
      Cartesian components [Ang]:       [  0.660860,   0.651572,   0.805947]
    Electron size [Ang]:                  2.248490
      Cartesian components [Ang]:       [  1.496185,   1.516127,   0.720066]
    RMS electron-hole separation [Ang]:   2.551529
      Cartesian components [Ang]:       [  1.627021,   1.641966,   1.080301]
    Covariance(r_h, r_e) [Ang^2]:         0.028474
    Correlation coefficient:              0.010303
    Center-of-mass size [Ang]:            1.286807
      Cartesian components [Ang]:       [  0.822189,   0.829211,   0.540634]

  Decomposition into state-averaged NTOs
    H- 0 -> L+ 2:  0.6642 ( 88.2%)
    H- 1 -> L+ 0: -0.1494 (  4.5%)
                   omega =  92.9%
  ----------------------------------------------------------------------------


  Excited state 5 (singlet, A)                                     [converged]
  ----------------------------------------------------------------------------
  Term symbol:  6 (1) A                                     R^2 =  3.72449e-13

  Total energy:                                            -77.9469087082 a.u.
  Excitation energy:                                              10.150276 eV

  Osc. strength:                                                      0.000019
  Trans. dip. moment [a.u.]:           [  -0.004502,    0.003386,    0.006627]
  <i|r^2|0> [a.u.]:                    [   0.133273,   -0.105564,   -0.024430]
  Two-photon absorption cross-section (SoS) [a.u.]:                 219.479407
  Two-photon absorption matrix (SoS) [a.u.]:
                                       |    0.976507   -0.261550   -3.783342 |
                                       |   -0.261550   -0.203546    3.527736 |
                                       |   -3.783342    3.527736   -0.137427 |
  Two-photon absorption cross-section [a.u.]:                       113.634017
  Two-photon absorption matrix [a.u.]:
                                       |    0.939822   -0.036249   -2.649415 |
[...]
    16   -1.411102993650e-03
    17   -3.091204284444e-03
    18   -1.927642899500e-04
    19   -2.817659352636e-03
    20    1.086944654466e-02
    21    9.088949979577e-01
    22   -6.791420564858e-04
    23    1.346348357767e-02
    24    1.457162162026e-03
    25    7.134763599624e-02
    26   -5.361544850648e-02
    27   -1.386785744331e+00
    28    1.001914006923e-01
    29   -9.579098961268e-02
    30   -1.283141878676e-02
    31    3.951398962986e-01
    32   -3.698703369176e-01
    33   -4.872785705272e-02
    34    1.498474069929e-02
    35   -1.101946596959e-03
    36   -3.413441037810e-03
    37   -4.315598596016e-04
    38   -2.807861367675e-03
    39    1.172088255062e-02
    40    9.363176648011e-01
    41    4.130253303484e-04
    42   -1.353447907359e-02
    43   -1.675734911877e-03
    44    1.129564529566e-02
    45    9.374107852868e-01
    46    1.391421211239e-02
    47    2.351361220408e-04
    48    4.541387134466e-04
Sym=X
Ene= 0.230994
Spin=Alpha
Occup=0
     1   -2.955738639826e-02
     2   -1.164046899293e+00
     3    1.270461889276e-02
     4    3.617773031132e-03
     5    1.107932297077e-03
     6    9.542726125880e-04
     7   -1.395352770769e-04
     8   -2.459002490664e-02
     9    1.509415820888e-01
    10    1.629181185984e-01
    11    2.477686526388e-02
    12    5.318735727896e-01
    13    5.608449597760e-01
    14    8.655932738453e-02
    15    1.849235893246e-04
    16   -1.131135137793e-03
    17   -8.898582896034e-04
    18   -1.754179651367e-03
    19   -1.121671558389e-04
    20    3.056316229469e-02
    21    1.188197550914e+00
    22    2.799625296193e-03
    23    1.343520522290e-02
    24    1.458944428797e-03
    25   -3.805453241423e-04
    26   -2.289245114772e-04
    27    8.822980260330e-03
    28    1.538446469157e-01
    29    1.645130833562e-01
    30    2.517368245393e-02
    31    5.279516804884e-01
    32    5.485421631072e-01
    33    8.514195969791e-02
    34    9.700100601655e-05
    35    1.181654896855e-03
    36    1.074186473787e-03
    37    9.479707627681e-04
    38   -8.774790186742e-05
    39   -3.055313099832e-02
    40   -1.161416581438e+00
    41    2.666371020139e-03
    42    1.307191676956e-02
    43    1.455026482772e-03
    44    2.906591559723e-02
    45    1.157080642800e+00
    46    1.277106160807e-02
    47    3.571642793814e-03
    48    1.082973459532e-03
Sym=X
Ene= 0.236368
Spin=Alpha
Occup=0
     1    1.914886731313e-02
     2    1.097210638863e+00
     3   -1.630392814306e-02
     4   -9.130518773745e-03
     5   -1.897679022972e-03
     6    8.803442196047e-02
     7   -8.341513817080e-02
     8   -1.566527938936e+00
     9   -6.024014117066e-02
    10    5.486144491986e-02
    11    1.483036799129e-04
    12   -2.468765876411e-01
    13    2.264296797079e-01
    14   -4.073431972136e-03
    15    2.127273215471e-02
    16   -4.371372991768e-03
    17   -3.537281227693e-03
    18    5.908727792911e-04
    19   -1.248118383370e-02
    20    1.905562172321e-02
    21    1.072408425659e+00
    22    8.214263340441e-03
    23    1.639953755456e-02
    24    2.050257271540e-03
    25   -8.624491467638e-02
    26    8.115935251636e-02
    27    1.523560788700e+00
    28   -6.024729898034e-02
    29    5.417923148910e-02
    30    8.294101396282e-03
    31   -2.459005089727e-01
    32    2.197062557803e-01
    33    2.786488537061e-02
    34   -2.052594974495e-02
    35    3.483687847353e-03
    36    4.089817478577e-03
    37   -3.707452059625e-04
    38    1.207311224280e-02
    39   -1.952757944707e-02
    40   -1.042999160109e+00
    41    8.348056398299e-03
    42    1.561524979271e-02
    43    2.508457221542e-03
    44   -1.990541940760e-02
    45   -1.072328905578e+00
    46   -1.575701090245e-02
    47   -9.257185981258e-03
    48   -1.332648334602e-03
Sym=X
Ene= 0.302860
Spin=Alpha
Occup=0
     1   -2.329307133779e-02
     2    1.670228594230e+00
     3   -2.351558616918e-02
     4    2.021151810400e-04
     5   -2.288938672016e-03
     6    3.481792663425e-05
     7    1.933498011352e-04
     8   -1.248897945662e-02
     9   -1.350216396411e-01
    10   -1.417699065241e-01
    11   -2.188017417907e-02
    12   -1.121918089719e+00
    13   -1.185023366741e+00
    14   -1.819767811354e-01
    15    1.011846369910e-04
    16   -2.917382321402e-03
    17    2.495530405522e-03
    18   -3.442914383507e-02
    19   -2.194440614592e-03
    20    2.167042901942e-02
    21   -1.657527656909e+00
    22    1.673275581282e-03
    23   -2.341787482597e-02
    24   -1.276269141193e-03
    25   -2.861495936611e-05
    26    2.214482613366e-04
    27   -1.435853811452e-02
    28    1.357356868746e-01
    29    1.426974437411e-01
    30    2.197631380698e-02
    31    1.113884819951e+00
    32    1.172919297061e+00
    33    1.802692021125e-01
    34    4.787595347654e-04
    35   -1.663748170328e-03
    36    3.606525919341e-03
    37   -3.320095322300e-02
    38   -2.367459253574e-03
    39    1.831312084415e-02
    40   -1.637932043572e+00
    41   -1.855365100608e-03
    42    2.322368068931e-02
    43    1.625867449851e-03
    44   -2.045982162857e-02
    45    1.654684902260e+00
    46    2.339264731348e-02
    47   -3.028070847571e-04
    48    1.892267575059e-03
Sym=X
Ene= 0.462305
Spin=Alpha
Occup=0
     1   -1.157174364034e-01
     2   -7.053655686735e-01
     3   -1.482184765817e-02
     4   -1.107875872074e-02
     5   -2.156488518533e-03
     6    6.215844624142e-02
     7    1.787863248045e-02
     8   -3.619675313381e+00
     9    1.025091581216e-01
    10   -9.629958973200e-02
    11   -6.255179799281e-03
    12    2.439239687782e+00
    13   -2.303317681643e+00
    14    9.487999358224e-02
    15    5.342384437189e-02
    16   -6.219744753635e-03
    17   -5.584680379163e-03
    18   -4.555775043873e-04
    19    1.890637768667e-02
    20   -1.245655191700e-01
    21   -6.829732446237e-01
    22    9.172989168220e-03
    23    1.593777482218e-02
    24    1.856469811953e-03
    25   -6.289823486817e-02
    26   -1.498719550964e-02
    27    3.636986737151e+00
    28    1.080456491124e-01
    29   -1.012792509086e-01
    30   -1.044302960291e-02
    31    2.428178144739e+00
    32   -2.285811655540e+00
    33    7.633968007517e-02
    34   -5.147294248717e-02
    35    6.129424972541e-03
    36    4.722673250284e-03
    37    5.112967189677e-04
    38   -2.181951071449e-02
    39    1.137507409044e-01
    40    6.813224261590e-01
    41    8.569610192277e-03
    42    1.536654312459e-02
    43    1.610218261561e-03
    44    1.038582218405e-01
    45    7.129187419288e-01
    46   -1.425762439138e-02
    47   -1.053001216311e-02
    48   -2.221604213773e-03
Sym=X
Ene= 0.579923
Spin=Alpha
Occup=0
     1    2.374102868211e-01
     2    3.651282164320e-02
     3   -2.150163937298e-02
     4    2.567703214179e-02
     5    2.232618508193e-04
     6   -4.516685560612e-03
     7   -1.674285570896e-01
     8   -4.939912376857e-01
     9    3.067114144466e-01
    10   -2.944277730801e-01
    11    9.295260374620e-03
    12   -6.966538322298e-01
    13    6.640085114990e-01
    14   -1.471856062243e-03
    15   -1.576379730228e-03
    16    4.389081154250e-03
    17    5.569763759972e-03
    18   -5.261789377387e-03
    19    5.965778021829e-02
    20    2.435828737154e-01
    21    1.885182755866e-02
    22   -2.741681162766e-02
    23    1.967399993858e-02
    24   -7.369851235368e-04
    25   -7.929471183819e-03
    26   -1.696829744146e-01
    27   -3.378868578232e-01
    28   -3.007458731030e-01
    29    2.894597525264e-01
    30   -1.127558204905e-02
    31    7.970167679282e-01
    32   -7.570228297087e-01
    33    1.846198185914e-03
    34   -1.760520094703e-03
    35    4.233124666479e-03
    36    5.815434135601e-03
    37   -5.508002430805e-03
    38    5.968592925171e-02
    39    2.399372847777e-01
    40    5.419799542611e-02
    41    2.941109021615e-02
    42   -2.108945459995e-02
    43    3.750676015457e-04
    44    2.317799646549e-01
    45    7.787463819712e-02
    46    2.303585324170e-02
    47   -2.754272392402e-02
    48   -6.705028052872e-04
Sym=X
Ene= 0.608896
Spin=Alpha
Occup=0
     1   -5.191588032479e-01
     2    2.182307709848e-01
     3   -5.975961010800e-02
     4    3.670532958083e-02
     5   -2.212722117371e-03
     6   -5.111105456609e-04
     7   -7.135576118412e-04
     8   -3.477884451392e-02
     9   -3.781022214979e-02
    10   -3.706036034619e-02
    11   -6.320426333541e-03
    12    2.970621137152e-01
    13    2.508294778209e-01
    14    4.463746827705e-02
    15    1.768502077098e-03
    16   -1.214039974607e-02
    17    1.083965718867e-02
    18   -1.458275907489e-01
    19   -7.096658750691e-03
    20    5.076095619485e-01
    21   -2.367221047928e-01
    22    4.106406693283e-02
    23   -5.644209616378e-02
    24   -8.232213381640e-04
    25    4.934588335255e-04
    26    1.288230258074e-03
    27    2.909178207948e-02
    28   -3.671804750825e-02
    29   -3.372322798760e-02
    30   -6.048378449675e-03
    31    2.879086911672e-01
    32    2.343459186964e-01
    33    4.192807916044e-02
    34   -2.156555700174e-03
    35    9.331268809637e-03
    36   -1.458963122450e-02
    37    1.506284917379e-01
    38    7.575755699974e-03
    39   -5.207739998384e-01
    40    2.765934120985e-01
    41    4.065096560386e-02
    42   -5.732306987253e-02
    43   -2.067099010397e-03
    44    5.298816565572e-01
    45   -2.511859708080e-01
    46   -6.040866884876e-02
    47    3.595391768962e-02
    48   -1.226045568380e-03
Sym=X
Ene= 0.688929
Spin=Alpha
Occup=0
     1    2.199637450291e-02
     2    1.729743287093e-02
     3    2.387161611062e-03
     4    3.997026972932e-03
     5   -1.925560482458e-02
     6    1.409609876921e-03
     7    2.416077022054e-03
     8    1.920325567722e-02
     9    5.222711571975e-02
    10    5.347156472840e-02
    11   -6.684290216082e-01
    12   -9.441760448414e-02
    13   -5.302672813465e-03
    14    6.104449034306e-01
    15    1.503141688624e-03
    16    8.304356705309e-02
    17   -7.701391869047e-02
    18   -1.298770434026e-02
    19    6.940914036616e-03
    20    2.164636630802e-02
    21    1.683858234254e-02
    22   -9.599797538844e-04
    23    5.461312842522e-04
    24   -1.911915322339e-02
    25    1.067255274177e-04
    26    1.735008649252e-02
    27   -3.523163399350e-02
    28    5.906645966585e-02
    29    4.679170659413e-02
    30   -6.681822508330e-01
    31   -9.929312362059e-02
    32   -2.367562600474e-04
    33    6.083459031944e-01
    34   -9.437045872130e-03
    35   -8.160324980857e-02
    36    7.820799157666e-02
    37    1.288824968413e-02
    38   -4.121500280982e-03
    39   -2.775532367086e-03
    40   -2.869794861491e-02
    41    2.757441337418e-04
    42    5.490527805415e-03
    43   -1.725105166414e-02
    44   -3.245117865994e-03
    45   -2.932824815882e-02
    46   -2.737623096196e-03
    47    2.293503478116e-03
    48   -1.897437978367e-02
Sym=X
Ene= 0.704986
Spin=Alpha
Occup=0
     1   -4.767165440165e-01
     2    1.621017521623e-01
     3   -7.701526874729e-02
     4   -4.409219142292e-02
     5   -1.216296101074e-02
     6   -4.579505398672e-02
     7   -3.054231582854e-01
     8    5.094541701224e-01
     9    1.989063212130e-01
    10   -1.853792024115e-01
    11   -1.140189622284e-02
    12   -8.625486617768e-02
    13    7.709561726960e-02
    14   -1.805593502348e-02
    15    1.858854075161e-01
    16   -3.362248617320e-02
    17   -3.032976862796e-02
    18    4.319940634803e-03
    19   -7.682486818330e-02
    20   -4.829392355316e-01
    21    1.630614597578e-01
    22    4.032594816273e-02
    23    7.875272838865e-02
    24    6.855195530508e-03
    25   -4.603259858732e-02
    26   -2.942738715793e-01
    27    4.093009738931e-01
    28   -1.938445573925e-01
    29    1.878283726845e-01
    30   -1.696392862263e-02
    31    2.925498909486e-02
    32   -3.669608369122e-02
    33    4.637219795395e-02
    34    1.915395870763e-01
    35   -3.533403975887e-02
    36   -2.977349599626e-02
    37    4.122096038999e-03
    38   -7.387655743523e-02
    39   -4.981308093752e-01
    40    1.729361108752e-01
    41   -4.055013226796e-02
    42   -8.081450293841e-02
    43   -7.946772076199e-03
    44   -4.933009214494e-01
    45    1.623804649747e-01
    46    7.943185586005e-02
    47    4.406362705905e-02
    48    1.136308351335e-02
Sym=X
Ene= 0.775484
Spin=Alpha
Occup=0
     1   -5.350643103016e-01
     2    4.700887093107e-01
     3   -1.074967605655e-01
     4   -2.629103628070e-02
     5   -1.145105866041e-02
     6   -8.963966035817e-02
     7    2.145913416969e-01
     8    5.765946874835e-01
     9   -1.023376735568e-01
    10    9.178111038435e-02
    11   -1.854365948611e-02
    12   -2.994778240523e-01
    13    2.887491622192e-01
    14    1.226187282456e-02
    15    2.043590813956e-01
    16   -2.966962807604e-02
    17   -2.836361766804e-02
    18    3.348013710423e-03
    19   -8.246878342076e-03
    20   -5.452504126533e-01
    21    4.906707551302e-01
    22    2.078968615310e-02
    23    1.118678775936e-01
    24    9.637287196832e-03
    25    8.797817976485e-02
    26   -2.405015334968e-01
    27   -5.525331287614e-01
    28   -1.133784425959e-01
    29    9.512488845183e-02
    30   -2.522978961809e-03
    31   -2.784906423171e-01
    32    2.865854559501e-01
    33   -2.472435905660e-02
    34   -1.974341902233e-01
    35    2.508313706187e-02
    36    3.039354932059e-02
    37   -2.951542643729e-03
    38    4.680725714529e-03
    39    5.441052735138e-01
    40   -5.009837078992e-01
    41    2.066025671738e-02
    42    1.088074031042e-01
    43    9.653412416518e-03
    44    5.299125907218e-01
    45   -4.665936913633e-01
    46   -1.036420224190e-01
    47   -2.595664089408e-02
    48   -1.092382563720e-02
Sym=X
Ene= 0.807221
Spin=Alpha
Occup=0
     1    5.841407184601e-03
     2   -4.292168538714e-03
     3    2.170441319744e-03
     4    2.623389474015e-03
     5   -3.209456608171e-02
     6    1.694784179336e-03
     7   -1.411986497111e-02
     8    7.179335677100e-03
     9    7.250826474281e-02
    10    4.826355914842e-02
    11   -7.610001787253e-01
    12   -1.018675137547e-01
    13   -7.497811948971e-02
    14    1.120097527838e+00
    15   -7.271850404269e-03
    16   -6.456542425378e-02
    17    6.176749421690e-02
    18    1.016302869205e-02
    19   -3.949617672772e-03
    20    6.075049295443e-03
    21   -4.231765625619e-03
    22    2.406944260653e-03
    23    2.930694432734e-03
    24   -3.218261918370e-02
    25   -3.521415053815e-04
    26   -1.016448233104e-02
    27    4.637879001535e-03
    28   -6.270120817208e-02
    29   -5.697581911272e-02
    30    7.621052168603e-01
    31    1.023562125414e-01
    32    7.319926014269e-02
    33   -1.119855625606e+00
    34   -2.432252705399e-04
    35   -6.530091897049e-02
    36    6.098979505726e-02
    37    1.019508770813e-02
    38   -1.274797811826e-03
    39   -4.475007211642e-03
    40    1.201350903946e-02
    41   -6.777544589199e-04
    42   -7.446241022288e-03
    43    2.998537194325e-02
    44   -4.419138434749e-03
    45    1.040387488194e-02
    46    2.465288466647e-03
    47   -3.913353422016e-03
    48    3.089466340239e-02
Sym=X
Ene= 0.858376
Spin=Alpha
Occup=0
     1    1.458030423813e-02
     2   -1.060369374821e+00
     3    1.436190382165e-01
     4    5.712102079114e-02
     5    1.382059014118e-02
     6    1.283927205409e-03
     7   -4.690678941037e-03
     8    9.346057136947e-03
     9   -3.933452515510e-01
    10   -4.273404245919e-01
    11   -6.495950454335e-02
    12    9.030689668293e-01
    13    9.725562726186e-01
    14    1.482066767061e-01
    15   -3.662556420935e-03
    16    1.800491713694e-02
    17   -1.814892435746e-02
    18    2.271333854591e-01
    19    9.960587346365e-03
    20   -6.471425127847e-03
    21    1.062424169960e+00
    22    4.999841325446e-02
    23    1.443236152816e-01
    24    1.738683203195e-02
    25   -1.487509263070e-03
    26    3.237320083784e-04
    27   -6.241414138439e-03
    28   -4.136924793417e-01
    29   -4.496982237910e-01
    30   -6.800486218340e-02
    31    9.417041926097e-01
    32    1.013744217230e+00
    33    1.541982672138e-01
    34    4.890951121914e-03
    35   -1.786377518854e-02
    36    1.897841837149e-02
    37   -2.315578226342e-01
    38   -1.020437179376e-02
    39    1.339765595535e-02
    40   -1.088817419081e+00
    41    4.707002757636e-02
    42    1.504841061629e-01
    43    1.894188550494e-02
    44   -2.263881803204e-02
    45    1.086378281535e+00
    46    1.502642596176e-01
    47    5.432881115703e-02
    48    1.287425848064e-02
Sym=X
Ene= 0.927267
Spin=Alpha
Occup=0
     1   -1.381932793335e-01
     2    1.252293168605e+00
     3   -1.834415698117e-01
     4    5.219641219624e-03
     5   -1.767205014693e-02
     6   -1.376883580377e-05
     7   -1.785557713284e-02
     8    2.951824570357e-02
     9    4.777643241108e-01
    10    5.056894046878e-01
    11    7.741394768617e-02
    12   -1.403775073488e+00
    13   -1.477642765414e+00
    14   -2.273715391573e-01
    15   -1.224967777698e-03
    16   -1.377766217075e-02
    17    6.692596931386e-03
    18   -1.306484271548e-01
    19   -5.086461938004e-03
    20    1.418024025310e-01
    21   -1.262558376913e+00
    22    1.293154190305e-02
    23   -1.872968785678e-01
    24   -1.025831706028e-02
    25   -8.147645699693e-04
    26   -1.994277474413e-02
    27    2.201750206771e-02
    28   -4.579481545305e-01
    29   -4.970782873212e-01
    30   -7.514657672556e-02
    31    1.344196027934e+00
    32    1.445415603065e+00
    33    2.199576634378e-01
    34    2.090279690892e-03
    35   -9.009955848635e-03
    36    9.858809459040e-03
    37   -1.176406605639e-01
    38   -1.577965435477e-03
    39    1.396285846292e-01
    40   -1.216404390872e+00
    41   -1.499198350376e-02
    42    1.799334421808e-01
    43    1.179138456526e-02
    44   -1.384247861712e-01
    45    1.191911276949e+00
    46    1.760338283041e-01
    47   -9.527096174571e-03
    48    1.465089198798e-02
Sym=X
Ene= 0.969911
Spin=Alpha
Occup=0
     1   -6.110213474507e-02
     2    8.931411166565e-01
     3   -8.635861666855e-02
     4   -9.629647517552e-02
     5   -1.140785839309e-02
     6    2.676236085619e-02
     7    2.408098538172e-01
     8    5.371161312027e-01
     9    4.808120800714e-01
    10   -4.560965918679e-01
    11    1.147043035955e-02
    12   -1.466096503428e+00
    13    1.393509781805e+00
    14   -4.019777096421e-02
    15   -5.855349172337e-02
    16   -4.607889035049e-03
    17   -2.573878686154e-02
    18    1.331878460948e-02
    19   -2.962207439850e-01
    20   -5.611559606627e-02
    21    8.837815767979e-01
    22    9.165466893089e-02
    23    8.941980668618e-02
    24    1.719944311084e-02
    25   -2.715707836296e-02
    26   -2.604683542968e-01
    27   -5.044660244701e-01
    28    4.930151976816e-01
    29   -4.544077035039e-01
    30    1.417066460258e-03
    31   -1.508054451538e+00
    32    1.383559346807e+00
    33   -1.350064703782e-02
    34    5.950655543512e-02
    35    3.886592639620e-03
    36    2.619030383024e-02
    37   -1.104332263124e-02
    38    2.951453493927e-01
    39    5.917268157452e-02
    40   -8.776804043508e-01
    41    9.132264904541e-02
    42    8.951183840257e-02
    43    1.953917370651e-02
    44    6.386210871277e-02
    45   -9.262678139482e-01
    46   -9.195967043152e-02
    47   -9.637580709937e-02
    48   -9.639398638627e-03
[5D]

======= END OF MOLDEN-FORMATTED INPUT FILE =======


        *************************************************************
        *                                                           *
        *  Thank you very much for using Q-Chem.  Have a nice day.  *
        *                                                           *
        *************************************************************


