                  Welcome to Q-Chem
     A Quantum Leap Into The Future Of Chemistry


 Q-Chem 5.4 (devel), Q-Chem, Inc., Pleasanton, CA (2021)

 E. Epifanovsky,  A. T. B. Gilbert,  Xintian Feng,  Joonho Lee,  Yuezhi Mao,  
 N. Mardirossian,  P. Pokhilko,  A. White,  M. Wormit,  M. P. Coons,  
 A. L. Dempwolff,  Zhengting Gan,  D. Hait,  P. R. Horn,  L. D. Jacobson,  
 I. Kaliman,  J. Kussmann,  A. W. Lange,  Ka Un Lao,  D. S. Levine,  Jie Liu,  
 S. C. McKenzie,  A. F. Morrison,  K. Nanda,  F. Plasser,  D. R. Rehn,  
 M. L. Vidal,  Zhi-Qiang You,  Ying Zhu,  B. Alam,  B. Albrecht,  
 A. Aldossary,  E. Alguire,  J. H. Andersen,  D. Barton,  K. Begam,  A. Behn,  
 Y. A. Bernard,  E. J. Berquist,  H. Burton,  A. Carreras,  K. Carter-Fenk,  
 R. Chakraborty,  A. D. Chien,  K. D. Closser,  V. Cofer-Shabica,  
 S. Dasgupta,  Jia Deng,  M. de Wergifosse,  M. Diedenhofen,  Hainam Do,  
 S. Ehlert,  Po-Tung Fang,  S. Fatehi,  Qingguo Feng,  T. Friedhoff,  
 J. Gayvert,  Qinghui Ge,  G. Gidofalvi,  M. Goldey,  J. Gomes,  
 C. Gonzalez-Espinoza,  S. Gulania,  A. Gunina,  M. W. D. Hanson-Heine,  
 P. H. P. Harbach,  A. W. Hauser,  M. F. Herbst,  M. Hernandez Vera,  
 M. Hodecker,  Z. C. Holden,  S. Houck,  Xunkun Huang,  Kerwin Hui,  
 B. C. Huynh,  M. Ivanov,  Hyunjun Ji,  Hanjie Jiang,  B. Kaduk,  S. Kaehler,  
 K. Khistyaev,  Jaehoon Kim,  P. Klunzinger,  Z. Koczor-Benda,  
 Joong Hoon Koh,  D. Kosenkov,  L. Koulias,  T. Kowalczyk,  C. M. Krauter,  
 K. Kue,  A. Kunitsa,  T. Kus,  A. Landau,  K. V. Lawler,  D. Lefrancois,  
 S. Lehtola,  Rain Li,  Yi-Pei Li,  Jiashu Liang,  M. Liebenthal,  
 Hung-Hsuan Lin,  You-Sheng Lin,  Fenglai Liu,  Kuan-Yu Liu,  
 M. Loipersberger,  A. Luenser,  A. Manjanath,  P. Manohar,  E. Mansoor,  
 S. F. Manzer,  Shan-Ping Mao,  A. V. Marenich,  T. Markovich,  S. Mason,  
 S. A. Maurer,  P. F. McLaughlin,  M. F. S. J. Menger,  J.-M. Mewes,  
 S. A. Mewes,  P. Morgante,  J. W. Mullinax,  K. J. Oosterbaan,  G. Paran,  
 Alexander C. Paul,  Suranjan K. Paul,  F. Pavosevic,  Zheng Pei,  S. Prager,  
 E. I. Proynov,  E. Ramos,  B. Rana,  A. E. Rask,  A. Rettig,  R. M. Richard,  
 F. Rob,  E. Rossomme,  T. Scheele,  M. Scheurer,  M. Schneider,  
 N. Sergueev,  S. M. Sharada,  W. Skomorowski,  D. W. Small,  C. J. Stein,  
 Yu-Chuan Su,  E. J. Sundstrom,  Zhen Tao,  J. Thirman,  T. Tsuchimochi,  
 N. M. Tubman,  S. P. Veccham,  O. Vydrov,  J. Wenzel,  J. Witte,  A. Yamada,  
 Kun Yao,  S. Yeganeh,  S. R. Yost,  A. Zech,  Igor Ying Zhang,  Xing Zhang,  
 Yu Zhang,  D. Zuev,  A. Aspuru-Guzik,  A. T. Bell,  N. A. Besley,  
 K. B. Bravaya,  B. R. Brooks,  D. Casanova,  Jeng-Da Chai,  S. Coriani,  
 C. J. Cramer,  A. E. DePrince, III,  R. A. DiStasio Jr.,  A. Dreuw,  
 B. D. Dunietz,  T. R. Furlani,  W. A. Goddard III,  S. Grimme,  
 S. Hammes-Schiffer,  T. Head-Gordon,  W. J. Hehre,  Chao-Ping Hsu,  
 T.-C. Jagau,  Yousung Jung,  A. Klamt,  Jing Kong,  D. S. Lambrecht,  
 WanZhen Liang,  N. J. Mayhall,  C. W. McCurdy,  J. B. Neaton,  
 C. Ochsenfeld,  J. A. Parkhill,  R. Peverati,  V. A. Rassolov,  Yihan Shao,  
 L. V. Slipchenko,  T. Stauch,  R. P. Steele,  J. E. Subotnik,  
 A. J. W. Thom,  A. Tkatchenko,  D. G. Truhlar,  T. Van Voorhis,  
 T. A. Wesolowski,  K. B. Whaley,  H. L. Woodcock III,  P. M. Zimmerman,  
 S. Faraji,  P. M. W. Gill,  M. Head-Gordon,  J. M. Herbert,  A. I. Krylov

 Additional authors for Version 5.4.1: 
 S. Kotaru,  Shaozhi Li,  Xiangyuan Li,  F. Matz,  A. Molle,  Haisheng Ren,  
 Yingli Su,  Hung-Yi Tsai,  C. Utku,  Fang Wang

 Contributors to earlier versions of Q-Chem not listed above: 
 R. D. Adamson,  B. Austin,  R. Baer,  J. Baker,  G. J. O. Beran,  
 K. Brandhorst,  S. T. Brown,  E. F. C. Byrd,  A. K. Chakraborty,  
 G. K. L. Chan,  Chun-Min Chang,  Yunqing Chen,  C.-L. Cheng,  
 Siu Hung Chien,  D. M. Chipman,  D. L. Crittenden,  H. Dachsel,  
 R. J. Doerksen,  A. D. Dutoi,  R. G. Edgar,  J. Fosso-Tande,  
 L. Fusti-Molnar,  D. Ghosh,  A. Ghysels,  A. Golubeva-Zadorozhnaya,  
 J. Gonthier,  M. S. Gordon,  S. R. Gwaltney,  G. Hawkins,  J. E. Herr,  
 A. Heyden,  S. Hirata,  E. G. Hohenstein,  G. Kedziora,  F. J. Keil,  
 C. Kelley,  Jihan Kim,  R. A. King,  R. Z. Khaliullin,  P. P. Korambath,  
 W. Kurlancheek,  A. Laurent,  A. M. Lee,  M. S. Lee,  S. V. Levchenko,  
 Ching Yeh Lin,  D. Liotard,  E. Livshits,  R. C. Lochan,  I. Lotan,  
 L. A. Martinez-Martinez,  P. E. Maslen,  N. Nair,  D. P. O'Neill,  
 D. Neuhauser,  E. Neuscamman,  C. M. Oana,  R. Olivares-Amaya,  R. Olson,  
 T. M. Perrine,  B. Peters,  P. A. Pieniazek,  A. Prociuk,  Y. M. Rhee,  
 J. Ritchie,  M. A. Rohrdanz,  E. Rosta,  N. J. Russ,  H. F. Schaefer III,  
 M. W. Schmidt,  N. E. Schultz,  S. Sharma,  N. Shenvi,  C. D. Sherrill,  
 A. C. Simmonett,  A. Sodt,  T. Stein,  D. Stuck,  K. S. Thanthiriwatte,  
 V. Vanovschi,  L. Vogt,  Tao Wang,  A. Warshel,  M. A. Watson,  
 C. F. Williams,  Q. Wu,  X. Xu,  Jun Yang,  W. Zhang,  Yan Zhao

 Please cite Q-Chem as follows:
 Y. Shao et al., Mol. Phys. 113, 184-215 (2015)
 DOI: 10.1080/00268976.2014.952696

 Q-Chem 5.4.1 for Intel X86 EM64T Linux

 Parts of Q-Chem use Armadillo 9.800.1 (Horizon Scraper).
 http://arma.sourceforge.net/

 Q-Chem begins on Wed Mar 15 17:59:17 2023  

 Host: cpu121.yggdrasil
0

     Scratch files written to /srv/beegfs/scratch/users/f/fum/qchem95933//
 Processing $rem in /home/share/wesolowski/qc5.aug2021.FDE/config/preferences:
 Processing $rem in /home/fum/.qchemrc:

 Checking the input file for inconsistencies... 	...done.

--------------------------------------------------------------
User input:
--------------------------------------------------------------
$comment
generated from CCJob.Templates
$end

$rem
sym_ignore = true
method = adc(2)
ee_states = 10
basis = cc-pVDZ
mem_static = 1024
mem_total = 40000
adc_davidson_maxiter = 900
adc_davidson_conv = 6
adc_print = 3
adc_prop_es = true
adc_prop_es2es = true
adc_prop_tpa = true
molden_format = True
state_analysis = true
print_orbitals = 15
gen_scfman = false
fde_export_density = true
fde_details = 3
$end

$molecule
0 1
H -0.0348278765 -0.2442097827 0.0636489606
C -1.0765972949 -0.5242748755 -0.0023551776
H -1.313264467 -1.5767591607 -0.0757276926
C -2.043634118 0.3926884087 0.0061254933
H -1.8137616575 1.4459188338 0.12044568280000001
H -3.085977293 0.114931858 -0.0593381042                     
$end
--------------------------------------------------------------
 ----------------------------------------------------------------
             Standard Nuclear Orientation (Angstroms)
    I     Atom           X                Y                Z
 ----------------------------------------------------------------
    1      H      -0.0348278765    -0.2442097827     0.0636489606
    2      C      -1.0765972949    -0.5242748755    -0.0023551776
    3      H      -1.3132644670    -1.5767591607    -0.0757276926
    4      C      -2.0436341180     0.3926884087     0.0061254933
    5      H      -1.8137616575     1.4459188338     0.1204456828
    6      H      -3.0859772930     0.1149318580    -0.0593381042
 ----------------------------------------------------------------
 Nuclear Repulsion Energy =          33.41208823 hartrees
 There are        8 alpha and        8 beta electrons
 Requested basis set is cc-pVDZ
 There are 24 shells and 48 basis functions
 Total memory of 40000 MB is distributed as follows: 
   MEM_STATIC is set to 1024 MB
   QALLOC/CCMAN JOB total memory use is  38976 MB
 Warning: actual memory use might exceed 40000 MB

 Total QAlloc Memory Limit  40000 MB
 Mega-Array Size      1001 MB
 MEM_STATIC part      1024 MB

                       Distance Matrix (Angstroms)
             H (  1)   C (  2)   H (  3)   C (  4)   H (  5)
   C (  2)  1.080776
   H (  3)  1.851895  1.081258
   C (  4)  2.108139  1.332687  2.102109
   H (  5)  2.454458  2.107167  3.070108  1.084069
   H (  6)  3.074674  2.109370  2.450428  1.080700  1.849968

 A cutoff of  1.0D-11 yielded    300 shell pairs
 There are      1220 function pairs (      1329 Cartesian)
 Smallest overlap matrix eigenvalue = 4.80E-03

 Scale SEOQF with 1.000000e-01/1.000000e-01/1.000000e+00

 Standard Electronic Orientation quadrupole field applied
 Nucleus-field energy     =     0.0000000021 hartrees
 Guess from superposition of atomic densities
 Warning:  Energy on first SCF cycle will be non-variational
 SAD guess density has 16.000000 electrons
 A restricted Hartree-Fock SCF calculation will be
 performed using Pulay DIIS extrapolation
 SCF converges when DIIS error is below 1.0E-08
 using 10 threads for integral computing
 -------------------------------------------------------
 OpenMP Integral computing Module                
 Release: version 1.0, May 2013, Q-Chem Inc. Pittsburgh 
 -------------------------------------------------------
 ---------------------------------------
  Cycle       Energy         DIIS Error
 ---------------------------------------
    1     -78.4364256684      1.01E-01
    2     -78.0176194711      7.21E-03
    3     -78.0382401479      1.84E-03
    4     -78.0397227277      5.73E-04
    5     -78.0398442421      5.79E-05
    6     -78.0398461193      9.23E-06
    7     -78.0398461800      2.00E-06
    8     -78.0398461827      4.02E-07
    9     -78.0398461828      1.29E-07
   10     -78.0398461828      1.94E-08
   11     -78.0398461828      5.73E-09 Convergence criterion met
 ---------------------------------------
 SCF time:  CPU 2.18 s  wall 3.19 s
 SCF   energy in the final basis set = -78.03984618
 Total energy in the final basis set = -78.03984618
Exporting Density Matrix to file 'Densmat_SCF.txt'.
Export successful
================================================================================
|                                                                              |
|                                 A D C  M A N                                 |
|                                                                              |
 ------------------------------------------------------------------------------ 
|                                                                              |
| Components:                                                                  |
|                                                                              |
| - libvmm - 1.3-trunk                                                         |
|   Authors:                                                                   |
|   Evgeny Epifanovsky, Ilya Kaliman                                           |
|                                                                              |
| - libtensor - 2.5-trunk                                                      |
|   Authors:                                                                   |
|   Evgeny Epifanovsky, Michael Wormit, Dmitry Zuev, Sam Manzer,               |
|   Ilya Kaliman                                                               |
|                                                                              |
| - libwfa - 1.1-trunk                                                         |
|   Authors:                                                                   |
|   Felix Plasser, Stefanie Mewes (Baeppler), Benjamin Thomitzni,              |
|   Michael Wormit, Feng Chen, Anna I. Krylov, Pavel Pokhilko                  |
|                                                                              |
| - libadc - 1.1-trunk                                                         |
|   Authors:                                                                   |
|   Michael Wormit, Adrian L. Dempwolff, Philipp H. P. Harbach,                |
|   Caroline Krauter, Dirk Rehn, Matthias Schneider, Jan Wenzel                |
|                                                                              |
| - adcman - 2.6-trunk                                                         |
|   Authors:                                                                   |
|   Michael Wormit, Adrian L. Dempwolff, Philipp H. P. Harbach,                |
|   Caroline Krauter, Daniel Lefrancois, Jan-Michael Mewes, Dirk Rehn,         |
|   Matthias Schneider, Jan Wenzel, Andreas Dreuw                              |
|                                                                              |
| Authors of earlier versions of ADCMAN:                                       |
| Andreas Dreuw, Jan Hendrik Starcke, Dirk Rehn, Michael Wormit                |
|                                                                              |
================================================================================

 Created directory /srv/beegfs/scratch/users/f/fum/qchem95933/plots
  Import QC data ...  CPU 0.00 s  wall 0.01 s

 Alpha MOs, Restricted
 -- Occupied --                  
-11.235 -11.234  -1.032  -0.789  -0.641  -0.582  -0.504  -0.374
  1 A     2 A     3 A     4 A     5 A     6 A     7 A     8 A                  
 -- Virtual --                   
  0.168   0.204   0.233   0.239   0.303   0.462   0.577   0.615
  9 A    10 A    11 A    12 A    13 A    14 A    15 A    16 A                  
  0.689   0.709   0.784   0.808   0.862   0.935   0.972   1.009
 17 A    18 A    19 A    20 A    21 A    22 A    23 A    24 A                  
  1.129   1.235   1.250   1.268   1.295   1.601   1.725   1.749
 25 A    26 A    27 A    28 A    29 A    30 A    31 A    32 A                  
  1.819   1.860   1.866   1.921   1.976   1.978   2.220   2.258
 33 A    34 A    35 A    36 A    37 A    38 A    39 A    40 A                  
  2.374   2.453   2.504   2.632   2.719   2.820   3.138   3.396
 41 A    42 A    43 A    44 A    45 A    46 A    47 A    48 A                  

 Beta MOs, Restricted
 -- Occupied --                  
-11.235 -11.234  -1.032  -0.789  -0.641  -0.582  -0.504  -0.374
  1 A     2 A     3 A     4 A     5 A     6 A     7 A     8 A                  
 -- Virtual --                   
  0.168   0.204   0.233   0.239   0.303   0.462   0.577   0.615
  9 A    10 A    11 A    12 A    13 A    14 A    15 A    16 A                  
  0.689   0.709   0.784   0.808   0.862   0.935   0.972   1.009
 17 A    18 A    19 A    20 A    21 A    22 A    23 A    24 A                  
  1.129   1.235   1.250   1.268   1.295   1.601   1.725   1.749
 25 A    26 A    27 A    28 A    29 A    30 A    31 A    32 A                  
  1.819   1.860   1.866   1.921   1.976   1.978   2.220   2.258
 33 A    34 A    35 A    36 A    37 A    38 A    39 A    40 A                  
  2.374   2.453   2.504   2.632   2.719   2.820   3.138   3.396
 41 A    42 A    43 A    44 A    45 A    46 A    47 A    48 A                  
  Import AO data ...  CPU 0.00 s  wall 0.05 s
  Using point group: C1
  Irreducible representations in point group: A
  Molecular orbitals: 
  Occupied MOs:
  Block   0:   1 (  A) A   2 (  A) A   3 (  A) A   4 (  A) A   5 (  A) A
                  -11.24      -11.23      -1.032     -0.7894     -0.6409
               6 (  A) A   7 (  A) A   8 (  A) A
                 -0.5817     -0.5044      -0.374
  Block   1:   1 (  A) B   2 (  A) B   3 (  A) B   4 (  A) B   5 (  A) B
                  -11.24      -11.23      -1.032     -0.7894     -0.6409
               6 (  A) B   7 (  A) B   8 (  A) B
                 -0.5817     -0.5044      -0.374
  Virtual MOs:
  Block   0:   9 (  A) A  10 (  A) A  11 (  A) A  12 (  A) A  13 (  A) A
                  0.1683      0.2036      0.2328      0.2393      0.3032
              14 (  A) A  15 (  A) A  16 (  A) A  17 (  A) A  18 (  A) A
                  0.4619      0.5775      0.6152      0.6891      0.7086
              19 (  A) A  20 (  A) A  21 (  A) A  22 (  A) A
                  0.7841      0.8079       0.862      0.9354
  Block   1:  23 (  A) A  24 (  A) A  25 (  A) A  26 (  A) A  27 (  A) A
                  0.9722       1.009       1.129       1.235        1.25
              28 (  A) A  29 (  A) A  30 (  A) A  31 (  A) A  32 (  A) A
                   1.268       1.295       1.601       1.725       1.749
              33 (  A) A  34 (  A) A  35 (  A) A  36 (  A) A
                   1.819        1.86       1.866       1.921
  Block   2:  37 (  A) A  38 (  A) A  39 (  A) A  40 (  A) A  41 (  A) A
                   1.976       1.978        2.22       2.258       2.374
              42 (  A) A  43 (  A) A  44 (  A) A  45 (  A) A  46 (  A) A
                   2.453       2.504       2.632       2.719        2.82
              47 (  A) A  48 (  A) A
                   3.138       3.396
  Block   3:   9 (  A) B  10 (  A) B  11 (  A) B  12 (  A) B  13 (  A) B
                  0.1683      0.2036      0.2328      0.2393      0.3032
              14 (  A) B  15 (  A) B  16 (  A) B  17 (  A) B  18 (  A) B
                  0.4619      0.5775      0.6152      0.6891      0.7086
              19 (  A) B  20 (  A) B  21 (  A) B  22 (  A) B
                  0.7841      0.8079       0.862      0.9354
  Block   4:  23 (  A) B  24 (  A) B  25 (  A) B  26 (  A) B  27 (  A) B
                  0.9722       1.009       1.129       1.235        1.25
              28 (  A) B  29 (  A) B  30 (  A) B  31 (  A) B  32 (  A) B
                   1.268       1.295       1.601       1.725       1.749
              33 (  A) B  34 (  A) B  35 (  A) B  36 (  A) B
                   1.819        1.86       1.866       1.921
  Block   5:  37 (  A) B  38 (  A) B  39 (  A) B  40 (  A) B  41 (  A) B
                   1.976       1.978        2.22       2.258       2.374
              42 (  A) B  43 (  A) B  44 (  A) B  45 (  A) B  46 (  A) B
                   2.453       2.504       2.632       2.719        2.82
              47 (  A) B  48 (  A) B
                   3.138       3.396
  Import MO data ...  CPU 0.07 s  wall 0.03 s
  Import HF data ...  CPU 0.28 s  wall 0.08 s
  Import 2e integrals ...  CPU 0.97 s  wall 0.16 s

--------------------------------------------------------------------------------
                                   HF Summary                                   
--------------------------------------------------------------------------------
  Energy:                                                  -78.0398461828 a.u.
  Dip. moment [a.u.]:                  [  -0.000968,   -0.001138,    0.011313]
  Total dipole [Debye]:                                               0.029005
  <r^2> [a.u.]:                        [ 175.319015,   34.927078,   11.652077]
  Total <r^2> [a.u.]:                                               221.898169
--------------------------------------------------------------------------------
  HF properties ...  CPU 0.01 s  wall 0.01 s
  MP(1) calculation ...  CPU 0.01 s  wall 0.00 s
  N^6 prerequesite intermediates ...  CPU 0.46 s  wall 0.07 s
  Difference density matrix of state mp2_gs printed to ASCII file 'State_mp2_gs_Difference.txt'
Exporting MP density matrix to file 'Densmat_MP.txt'.
Export successful
  Total density matrix of state mp2_gs printed to ASCII file 'State_mp2_gs_Total.txt'
Exporting MP density matrix to file 'Densmat_MP.txt'.
Export successful

--------------------------------------------------------------------------------
                                 MP(2) Summary                                  
--------------------------------------------------------------------------------
  MP energy contribution:                                   -0.2797649941 a.u.
  Total energy:                                            -78.3196111769 a.u.
  Dip. moment [a.u.]:                  [  -0.000946,   -0.001096,    0.011170]
  Total dipole [Debye]:                                               0.028629
  <r^2> [a.u.]:                        [ 175.365663,   34.966868,   11.484016]
  Total <r^2> [a.u.]:                                               221.816547

  Density matrix analysis:
  ------------------------
  NOs
    Occupation of frontier NOs:
       0.0453   1.9382
    Number of electrons: 16.000000
    Number of unpaired electrons: n_u =  0.40370, n_u,nl =  0.04513
    NO participation ratio (PR_NO): 13.859124
  
  
  Mulliken Population Analysis
  Atom      Charge (e)              h+              e-           Del q
  --------------------------------------------------------------------
   1 H        0.050998        0.014036       -0.011204        0.002832
   2 C       -0.100314        0.093153       -0.098866       -0.005713
   3 H        0.050577        0.014080       -0.011192        0.002888
   4 C       -0.103047        0.093264       -0.098997       -0.005733
   5 H        0.051067        0.014068       -0.011204        0.002863
   6 H        0.050719        0.014069       -0.011206        0.002863
  --------------------------------------------------------------------
  Sum:        0.000000        0.242670       -0.242670        0.000000
  
  Multipole moment analysis of the density matrix
    Molecular charge:                      0.000000
    Number of electrons:                   16.000000
      Center of electronic charge [Ang]: [ -1.560545,  -0.065566,   0.004109]
    Total nuclear charge:                  16.000000
      Center of nuclear charge [Ang]:    [ -1.560576,  -0.065602,   0.004478]
    Dipole moment [D]:                     0.028629
      Cartesian components [D]:          [ -0.002405,  -0.002786,   0.028391]
    RMS size of the density [Ang]:         1.201070
      Cartesian components [Ang]:        [  0.796185,   0.779541,   0.448301]
  
  Exciton analysis of the difference density matrix
    <r_h> [Ang]:                  [ -1.560581,  -0.065056,   0.002310]
    <r_e> [Ang]:                  [ -1.560628,  -0.065147,   0.002623]
    |<r_e - r_h>| [Ang]:            0.000329
    Hole size [Ang]:                1.394086
      Cartesian components [Ang]: [  0.846610,   0.834811,   0.727886]
    Electron size [Ang]:            1.359826
      Cartesian components [Ang]: [  0.877742,   0.861867,   0.579554]
--------------------------------------------------------------------------------
  MP(2) calculation ...  CPU 0.26 s  wall 0.30 s
  Start ADC(2)-s ...  CPU 0.01 s  wall 0.00 s
  ADC(2) intermediates ...  CPU 0.02 s  wall 0.01 s
  Starting Davidson for singlet states of irrep A ... 
--------------------------------------------------------------------------------
   It NVec Conv  Avg. Norm  Max. Norm  Conv. states           Remark
--------------------------------------------------------------------------------
        10    0  1.330e-01  4.686e-01  0.4118 n n n n n n n n Guess.
    1   20    0  2.330e-02  1.109e-01  0.3258 n n n n n n n n 
    2   30    0  6.145e-03  2.525e-02  0.3211 n n n n n n n n 
    3   40    0  2.108e-03  1.032e-02  0.3207 n n n n n n n n 
    4   50    0  5.460e-04  3.350e-03  0.3207 n n n n n n n n 
    5   20    0  3.209e-04  1.733e-03  0.3207 n n n n n n n n Subspace collapsed.
    6   30    0  2.804e-04  1.643e-03  0.3207 n n n n n n n n 
    7   40    0  2.137e-04  1.525e-03  0.3207 n n n n n n n n 
    8   50    0  1.293e-04  9.833e-04  0.3207 n n n n n n n n 
    9   20    0  5.918e-05  4.429e-04  0.3207 n n n n n n n n Subspace collapsed.
   10   30    1  4.444e-05  3.129e-04  0.3207 n y n n n n n n 
   11   40    3  1.963e-05  1.393e-04  0.3207 n y y y n n n n 
   12   50    5  1.159e-05  9.207e-05  0.3207 y y y y y n n n 
   13   20    6  1.012e-05  8.259e-05  0.3207 y y y y y y n n Subspace collapsed.
   14   30    6  1.718e-05  1.542e-04  0.3207 y y y y y y n n 
   15   40    6  1.116e-05  1.052e-04  0.3207 y y y y y y n n 
   16   50    6  7.391e-06  7.107e-05  0.3207 y y y y y y n n 
   17   20    6  3.492e-06  3.368e-05  0.3207 y y y y y y n n Subspace collapsed.
   18   30    6  3.045e-06  2.936e-05  0.3207 y y y y y y n n 
   19   40    7  1.270e-06  1.218e-05  0.3207 y y y y y y n y 
   20   50    8  9.911e-07  9.644e-06  0.3207 y y y y y y y y 
   21   20    8  5.531e-07  5.394e-06  0.3207 y y y y y y y y Subspace collapsed.
   22   30    8  1.146e-06  1.128e-05  0.3207 y y y y y y y y 
   23   40    8  1.120e-06  1.112e-05  0.3207 y y y y y y y y 
   24   41    8  1.121e-06  1.113e-05  0.3207 y y y y y y y y 
   25   50    9  7.505e-07  7.470e-06  0.3207 y y y y y y y y 
   26   17    9  3.747e-07  3.728e-06  0.3207 y y y y y y y y Subspace collapsed.
   27   24    9  2.559e-07  2.548e-06  0.3207 y y y y y y y y 
   28   30    9  1.452e-07  1.446e-06  0.3207 y y y y y y y y 
   29   36    9  1.348e-07  1.344e-06  0.3207 y y y y y y y y 
   30   42    9  1.067e-07  1.064e-06  0.3207 y y y y y y y y 
   31   42    9  1.067e-07  1.064e-06  0.3207 y y y y y y y y 
   32   50    9  1.392e-07  1.390e-06  0.3207 y y y y y y y y 
   33   14   10  6.249e-08  6.242e-07  0.3207 y y y y y y y y Converged.
--------------------------------------------------------------------------------
  Davidson Summary: 
 ------------------------------------------------------------
  State  0: excitation energy =   0.3207 a.u.   (converged)
  State  1: excitation energy =   0.3328 a.u.   (converged)
  State  2: excitation energy =   0.3368 a.u.   (converged)
  State  3: excitation energy =   0.3612 a.u.   (converged)
  State  4: excitation energy =   0.3751 a.u.   (converged)
  State  5: excitation energy =   0.3870 a.u.   (converged)
  State  6: excitation energy =   0.4244 a.u.   (converged)
  State  7: excitation energy =   0.4469 a.u.   (converged)
  State  8: excitation energy =   0.4562 a.u.   (converged)
  State  9: excitation energy =   0.4644 a.u.   (converged)
 ------------------------------------------------------------

  Singlet states of irrep A ...  CPU 128.78 s  wall 34.46 s
  TDMs ...  CPU 1.12 s  wall 0.37 s
  SDMs ...  CPU 2.96 s  wall 0.74 s
  Starting TPA DIIS iterations ... 
------------------------------------ 
   It     Res. Norm  Remark
------------------------------------
                       Guess.
    1     4.397e+00  
    2     5.827e+00  
    3     1.075e+00  
    4     2.563e-01  
    5     6.569e-02  
    6     2.670e-02  
    7     8.210e-03  
    8     1.426e-03  
    9     5.091e-04  
   10     1.189e-04  
   11     3.479e-05  
   12     1.427e-05  
   13     4.004e-06  
   14     2.269e-06  
   15     4.442e-07  Converged.
   ... Converged in 15 steps (norm: 4.44157e-07)
------------------------------------
  Starting TPA DIIS iterations ... 
------------------------------------ 
   It     Res. Norm  Remark
------------------------------------
                       Guess.
    1     4.181e+00  
    2     5.534e+00  
    3     1.029e+00  
    4     2.562e-01  
    5     6.524e-02  
    6     2.696e-02  
    7     8.105e-03  
    8     1.561e-03  
    9     5.575e-04  
   10     1.340e-04  
   11     4.545e-05  
   12     1.774e-05  
   13     5.731e-06  
   14     3.129e-06  
   15     5.319e-07  Converged.
   ... Converged in 15 steps (norm: 5.31922e-07)
------------------------------------
  Starting TPA DIIS iterations ... 
------------------------------------ 
   It     Res. Norm  Remark
------------------------------------
                       Guess.
    1     6.865e-01  
    2     4.808e-01  
    3     1.698e-01  
    4     3.937e-02  
    5     1.585e-02  
    6     7.668e-03  
    7     1.069e-03  
    8     4.548e-04  
    9     1.265e-04  
   10     2.920e-05  
   11     5.756e-06  
   12     1.677e-06  
   13     8.184e-07  Converged.
   ... Converged in 13 steps (norm: 8.18379e-07)
------------------------------------
  Starting TPA DIIS iterations ... 
------------------------------------ 
   It     Res. Norm  Remark
------------------------------------
                       Guess.
    1     4.695e+00  
    2     6.362e+00  
    3     1.159e+00  
    4     2.860e-01  
    5     7.433e-02  
    6     3.048e-02  
    7     9.353e-03  
    8     1.621e-03  
    9     5.815e-04  
   10     1.405e-04  
   11     4.141e-05  
   12     1.780e-05  
   13     4.890e-06  
   14     2.936e-06  
   15     5.615e-07  Converged.
   ... Converged in 15 steps (norm: 5.61473e-07)
------------------------------------
  Starting TPA DIIS iterations ... 
------------------------------------ 
   It     Res. Norm  Remark
------------------------------------
                       Guess.
    1     4.463e+00  
    2     6.041e+00  
    3     1.109e+00  
    4     2.856e-01  
    5     7.384e-02  
    6     3.081e-02  
    7     9.239e-03  
    8     1.790e-03  
    9     6.441e-04  
   10     1.593e-04  
   11     5.625e-05  
   12     2.228e-05  
   13     7.335e-06  
   14     3.911e-06  
   15     6.821e-07  Converged.
   ... Converged in 15 steps (norm: 6.8208e-07)
------------------------------------
  Starting TPA DIIS iterations ... 
------------------------------------ 
   It     Res. Norm  Remark
------------------------------------
                       Guess.
    1     6.989e-01  
    2     4.985e-01  
    3     1.799e-01  
    4     4.318e-02  
    5     1.766e-02  
    6     8.449e-03  
    7     1.212e-03  
    8     5.391e-04  
    9     1.534e-04  
   10     3.328e-05  
   11     6.608e-06  
   12     1.990e-06  
   13     1.016e-06  
   14     3.660e-07  Converged.
   ... Converged in 14 steps (norm: 3.66025e-07)
------------------------------------
  Starting TPA DIIS iterations ... 
------------------------------------ 
   It     Res. Norm  Remark
------------------------------------
                       Guess.
    1     4.802e+00  
    2     6.557e+00  
    3     1.189e+00  
    4     2.970e-01  
    5     7.755e-02  
    6     3.190e-02  
    7     9.777e-03  
    8     1.693e-03  
    9     6.085e-04  
   10     1.488e-04  
   11     4.396e-05  
   12     1.919e-05  
   13     5.237e-06  
   14     3.207e-06  
   15     6.082e-07  Converged.
   ... Converged in 15 steps (norm: 6.08246e-07)
------------------------------------
  Starting TPA DIIS iterations ... 
------------------------------------ 
   It     Res. Norm  Remark
------------------------------------
                       Guess.
    1     4.565e+00  
    2     6.226e+00  
    3     1.138e+00  
    4     2.966e-01  
    5     7.704e-02  
    6     3.226e-02  
    7     9.661e-03  
    8     1.876e-03  
    9     6.768e-04  
   10     1.690e-04  
   11     6.054e-05  
   12     2.408e-05  
   13     7.981e-06  
   14     4.217e-06  
   15     7.419e-07  Converged.
   ... Converged in 15 steps (norm: 7.41863e-07)
------------------------------------
  Starting TPA DIIS iterations ... 
------------------------------------ 
   It     Res. Norm  Remark
------------------------------------
                       Guess.
    1     7.031e-01  
    2     5.047e-01  
    3     1.835e-01  
    4     4.459e-02  
    5     1.832e-02  
    6     8.730e-03  
    7     1.266e-03  
    8     5.714e-04  
    9     1.637e-04  
   10     3.454e-05  
   11     6.927e-06  
   12     2.109e-06  
   13     1.094e-06  
   14     3.929e-07  Converged.
   ... Converged in 14 steps (norm: 3.9289e-07)
------------------------------------
  Starting TPA DIIS iterations ... 
------------------------------------ 
   It     Res. Norm  Remark
------------------------------------
                       Guess.
    1     5.541e+00  
    2     7.936e+00  
    3     1.396e+00  
    4     3.771e-01  
    5     1.009e-01  
    6     4.227e-02  
    7     1.287e-02  
    8     2.218e-03  
    9     8.052e-04  
   10     2.131e-04  
   11     6.423e-05  
   12     3.074e-05  
   13     8.057e-06  
   14     5.541e-06  
   15     9.975e-07  Converged.
   ... Converged in 15 steps (norm: 9.97462e-07)
------------------------------------
  Starting TPA DIIS iterations ... 
------------------------------------ 
   It     Res. Norm  Remark
------------------------------------
                       Guess.
    1     5.265e+00  
    2     7.534e+00  
    3     1.335e+00  
    4     3.760e-01  
    5     1.003e-01  
    6     4.287e-02  
    7     1.274e-02  
    8     2.512e-03  
    9     9.225e-04  
   10     2.447e-04  
   11     9.625e-05  
   12     3.889e-05  
   13     1.348e-05  
   14     6.674e-06  
   15     1.237e-06  
   16     5.751e-07  Converged.
   ... Converged in 16 steps (norm: 5.75074e-07)
------------------------------------
  Starting TPA DIIS iterations ... 
------------------------------------ 
   It     Res. Norm  Remark
------------------------------------
                       Guess.
    1     7.298e-01  
    2     5.450e-01  
    3     2.074e-01  
    4     5.479e-02  
    5     2.282e-02  
    6     1.068e-02  
    7     1.677e-03  
    8     8.123e-04  
    9     2.389e-04  
   10     4.029e-05  
   11     9.303e-06  
   12     3.034e-06  
   13     1.721e-06  
   14     6.221e-07  Converged.
   ... Converged in 14 steps (norm: 6.22053e-07)
------------------------------------
  Starting TPA DIIS iterations ... 
------------------------------------ 
   It     Res. Norm  Remark
------------------------------------
                       Guess.
    1     6.051e+00  
    2     8.920e+00  
    3     1.538e+00  
    4     4.365e-01  
    5     1.183e-01  
    6     5.006e-02  
    7     1.516e-02  
    8     2.606e-03  
    9     9.515e-04  
   10     2.651e-04  
   11     8.115e-05  
   12     4.083e-05  
   13     1.047e-05  
   14     7.660e-06  
   15     1.335e-06  
   16     1.046e-06  
   17     1.507e-07  Converged.
   ... Converged in 17 steps (norm: 1.50737e-07)
------------------------------------
  Starting TPA DIIS iterations ... 
------------------------------------ 
   It     Res. Norm  Remark
------------------------------------
                       Guess.
    1     5.748e+00  
    2     8.468e+00  
    3     1.471e+00  
    4     4.348e-01  
    5     1.176e-01  
    6     5.084e-02  
    7     1.502e-02  
    8     2.994e-03  
    9     1.113e-03  
   10     3.060e-04  
   11     1.275e-04  
   12     5.167e-05  
   13     1.843e-05  
   14     8.726e-06  
   15     1.666e-06  
   16     7.630e-07  Converged.
   ... Converged in 16 steps (norm: 7.62976e-07)
------------------------------------
  Starting TPA DIIS iterations ... 
------------------------------------ 
   It     Res. Norm  Remark
------------------------------------
                       Guess.
    1     7.459e-01  
    2     5.708e-01  
    3     2.233e-01  
    4     6.232e-02  
    5     2.586e-02  
    6     1.205e-02  
    7     2.000e-03  
    8     9.863e-04  
    9     2.923e-04  
   10     4.229e-05  
   11     1.116e-05  
   12     3.779e-06  
   13     2.251e-06  
   14     8.308e-07  Converged.
   ... Converged in 14 steps (norm: 8.30799e-07)
------------------------------------
  Starting TPA DIIS iterations ... 
------------------------------------ 
   It     Res. Norm  Remark
------------------------------------
                       Guess.
    1     6.552e+00  
    2     9.910e+00  
    3     1.677e+00  
    4     4.979e-01  
    5     1.361e-01  
    6     5.817e-02  
    7     1.753e-02  
    8     3.005e-03  
    9     1.103e-03  
   10     3.223e-04  
   11     1.004e-04  
   12     5.257e-05  
   13     1.321e-05  
   14     1.016e-05  
   15     1.720e-06  
   16     1.368e-06  
   17     1.853e-07  Converged.
   ... Converged in 17 steps (norm: 1.85342e-07)
------------------------------------
  Starting TPA DIIS iterations ... 
------------------------------------ 
   It     Res. Norm  Remark
------------------------------------
                       Guess.
    1     6.223e+00  
    2     9.408e+00  
    3     1.603e+00  
    4     4.955e-01  
    5     1.354e-01  
    6     5.917e-02  
    7     1.738e-02  
    8     3.503e-03  
    9     1.317e-03  
   10     3.735e-04  
   11     1.638e-04  
   12     6.632e-05  
   13     2.426e-05  
   14     1.103e-05  
   15     2.159e-06  
   16     9.738e-07  Converged.
   ... Converged in 16 steps (norm: 9.73783e-07)
------------------------------------
  Starting TPA DIIS iterations ... 
------------------------------------ 
   It     Res. Norm  Remark
------------------------------------
                       Guess.
    1     7.602e-01  
    2     5.947e-01  
    3     2.385e-01  
    4     7.010e-02  
    5     2.878e-02  
    6     1.344e-02  
    7     2.347e-03  
    8     1.152e-03  
    9     3.439e-04  
   10     4.390e-05  
   11     1.316e-05  
   12     4.598e-06  
   13     2.855e-06  
   14     1.082e-06  
   15     7.214e-07  Converged.
   ... Converged in 15 steps (norm: 7.21359e-07)
------------------------------------
  Starting TPA DIIS iterations ... 
------------------------------------ 
   It     Res. Norm  Remark
------------------------------------
                       Guess.
    1     8.650e+00  
    2     1.430e+01  
    3     2.248e+00  
    4     7.822e-01  
    5     2.192e-01  
    6     9.658e-02  
    7     2.850e-02  
    8     4.849e-03  
    9     1.813e-03  
   10     6.306e-04  
   11     2.150e-04  
   12     1.237e-04  
   13     2.882e-05  
   14     2.510e-05  
   15     3.856e-06  
   16     3.026e-06  
   17     4.399e-07  Converged.
   ... Converged in 17 steps (norm: 4.39931e-07)
------------------------------------
  Starting TPA DIIS iterations ... 
------------------------------------ 
   It     Res. Norm  Remark
------------------------------------
                       Guess.
    1     8.211e+00  
    2     1.357e+01  
    3     2.146e+00  
    4     7.759e-01  
    5     2.182e-01  
    6     9.875e-02  
    7     2.836e-02  
    8     5.988e-03  
    9     2.355e-03  
   10     7.354e-04  
   11     3.776e-04  
   12     1.507e-04  
   13     5.950e-05  
   14     2.368e-05  
   15     5.019e-06  
   16     2.132e-06  
   17     4.265e-07  Converged.
   ... Converged in 17 steps (norm: 4.26493e-07)
------------------------------------
  Starting TPA DIIS iterations ... 
------------------------------------ 
   It     Res. Norm  Remark
------------------------------------
                       Guess.
    1     8.091e-01  
    2     6.835e-01  
    3     2.978e-01  
    4     1.066e-01  
    5     4.050e-02  
    6     1.965e-02  
    7     4.072e-03  
    8     1.684e-03  
    9     5.433e-04  
   10     5.816e-05  
   11     2.355e-05  
   12     9.097e-06  
   13     6.405e-06  
   14     2.720e-06  
   15     1.363e-06  
   16     6.930e-07  Converged.
   ... Converged in 16 steps (norm: 6.93047e-07)
------------------------------------
  Starting TPA DIIS iterations ... 
------------------------------------ 
   It     Res. Norm  Remark
------------------------------------
                       Guess.
    1     1.048e+01  
    2     1.841e+01  
    3     2.733e+00  
    4     1.058e+00  
    5     3.005e-01  
    6     1.350e-01  
    7     3.922e-02  
    8     6.648e-03  
    9     2.525e-03  
   10     9.917e-04  
   11     3.713e-04  
   12     2.166e-04  
   13     4.869e-05  
   14     4.349e-05  
   15     6.467e-06  
   16     4.661e-06  
   17     9.066e-07  Converged.
   ... Converged in 17 steps (norm: 9.0658e-07)
------------------------------------
  Starting TPA DIIS iterations ... 
------------------------------------ 
   It     Res. Norm  Remark
------------------------------------
                       Guess.
    1     9.945e+00  
    2     1.747e+01  
    3     2.608e+00  
    4     1.047e+00  
    5     2.992e-01  
    6     1.386e-01  
    7     3.913e-02  
    8     8.601e-03  
    9     3.496e-03  
   10     1.153e-03  
   11     6.456e-04  
   12     2.545e-04  
   13     1.037e-04  
   14     3.860e-05  
   15     8.523e-06  
   16     3.531e-06  
   17     8.125e-07  Converged.
   ... Converged in 17 steps (norm: 8.12519e-07)
------------------------------------
  Starting TPA DIIS iterations ... 
------------------------------------ 
   It     Res. Norm  Remark
------------------------------------
                       Guess.
    1     8.416e-01  
    2     7.494e-01  
    3     3.448e-01  
    4     1.431e-01  
    5     5.075e-02  
    6     2.532e-02  
    7     5.828e-03  
    8     1.911e-03  
    9     6.992e-04  
   10     8.075e-05  
   11     3.508e-05  
   12     1.460e-05  
   13     1.112e-05  
   14     5.012e-06  
   15     2.308e-06  
   16     1.243e-06  
   17     4.101e-07  Converged.
   ... Converged in 17 steps (norm: 4.10067e-07)
------------------------------------
  Starting TPA DIIS iterations ... 
------------------------------------ 
   It     Res. Norm  Remark
------------------------------------
                       Guess.
    1     1.142e+01  
    2     2.061e+01  
    3     2.977e+00  
    4     1.207e+00  
    5     3.449e-01  
    6     1.564e-01  
    7     4.508e-02  
    8     7.630e-03  
    9     2.922e-03  
   10     1.211e-03  
   11     4.759e-04  
   12     2.757e-04  
   13     6.207e-05  
   14     5.469e-05  
   15     8.170e-06  
   16     5.463e-06  
   17     1.308e-06  
   18     9.262e-07  Converged.
   ... Converged in 18 steps (norm: 9.2617e-07)
------------------------------------
  Starting TPA DIIS iterations ... 
------------------------------------ 
   It     Res. Norm  Remark
------------------------------------
                       Guess.
    1     1.083e+01  
    2     1.956e+01  
    3     2.840e+00  
    4     1.193e+00  
    5     3.436e-01  
    6     1.607e-01  
    7     4.504e-02  
    8     1.010e-02  
    9     4.163e-03  
   10     1.403e-03  
   11     8.118e-04  
   12     3.183e-04  
   13     1.306e-04  
   14     4.764e-05  
   15     1.064e-05  
   16     4.415e-06  
   17     1.084e-06  
   18     6.805e-07  Converged.
   ... Converged in 18 steps (norm: 6.80525e-07)
------------------------------------
  Starting TPA DIIS iterations ... 
------------------------------------ 
   It     Res. Norm  Remark
------------------------------------
                       Guess.
    1     8.558e-01  
    2     7.802e-01  
    3     3.676e-01  
    4     1.634e-01  
    5     5.619e-02  
    6     2.818e-02  
    7     6.783e-03  
    8     1.975e-03  
    9     7.753e-04  
   10     9.422e-05  
   11     4.185e-05  
   12     1.800e-05  
   13     1.415e-05  
   14     6.500e-06  
   15     3.058e-06  
   16     1.592e-06  
   17     5.856e-07  Converged.
   ... Converged in 17 steps (norm: 5.85595e-07)
------------------------------------
  Starting TPA DIIS iterations ... 
------------------------------------ 
   It     Res. Norm  Remark
------------------------------------
                       Guess.
    1     1.237e+01  
    2     2.290e+01  
    3     3.222e+00  
    4     1.362e+00  
    5     3.917e-01  
    6     1.790e-01  
    7     5.124e-02  
    8     8.665e-03  
    9     3.349e-03  
   10     1.456e-03  
   11     6.008e-04  
   12     3.436e-04  
   13     7.840e-05  
   14     6.724e-05  
   15     1.022e-05  
   16     6.218e-06  
   17     1.870e-06  
   18     1.271e-06  
   19     3.989e-07  Converged.
   ... Converged in 19 steps (norm: 3.98879e-07)
------------------------------------
  Starting TPA DIIS iterations ... 
------------------------------------ 
   It     Res. Norm  Remark
------------------------------------
                       Guess.
    1     1.174e+01  
    2     2.174e+01  
    3     3.074e+00  
    4     1.346e+00  
    5     3.902e-01  
    6     1.842e-01  
    7     5.126e-02  
    8     1.172e-02  
    9     4.897e-03  
   10     1.680e-03  
   11     1.000e-03  
   12     3.903e-04  
   13     1.605e-04  
   14     5.779e-05  
   15     1.300e-05  
   16     5.448e-06  
   17     1.419e-06  
   18     9.157e-07  Converged.
   ... Converged in 18 steps (norm: 9.15651e-07)
------------------------------------
  Starting TPA DIIS iterations ... 
------------------------------------ 
   It     Res. Norm  Remark
------------------------------------
                       Guess.
    1     8.689e-01  
    2     8.097e-01  
    3     3.898e-01  
    4     1.849e-01  
    5     6.188e-02  
    6     3.100e-02  
    7     7.777e-03  
    8     2.022e-03  
    9     8.509e-04  
   10     1.087e-04  
   11     4.933e-05  
   12     2.176e-05  
   13     1.752e-05  
   14     8.218e-06  
   15     3.967e-06  
   16     1.989e-06  
   17     8.532e-07  Converged.
   ... Converged in 17 steps (norm: 8.53169e-07)
------------------------------------
  Two-photon absorbption ...  CPU 118.36 s  wall 24.94 s
  Transition density matrix of state singlet_A_1 printed to ASCII file 'State_singlet_A_1_Transition.txt'
  Transition density matrix of state singlet_A_2 printed to ASCII file 'State_singlet_A_2_Transition.txt'
  Transition density matrix of state singlet_A_3 printed to ASCII file 'State_singlet_A_3_Transition.txt'
  Transition density matrix of state singlet_A_4 printed to ASCII file 'State_singlet_A_4_Transition.txt'
  Transition density matrix of state singlet_A_5 printed to ASCII file 'State_singlet_A_5_Transition.txt'
  Transition density matrix of state singlet_A_6 printed to ASCII file 'State_singlet_A_6_Transition.txt'
  Transition density matrix of state singlet_A_7 printed to ASCII file 'State_singlet_A_7_Transition.txt'
  Transition density matrix of state singlet_A_8 printed to ASCII file 'State_singlet_A_8_Transition.txt'
  Transition density matrix of state singlet_A_9 printed to ASCII file 'State_singlet_A_9_Transition.txt'
  Transition density matrix of state singlet_A_10 printed to ASCII file 'State_singlet_A_10_Transition.txt'
  Transition properties ...  CPU 0.21 s  wall 0.96 s
  Difference density matrix of state singlet_A_1 printed to ASCII file 'State_singlet_A_1_Difference.txt'
  Total density matrix of state singlet_A_1 printed to ASCII file 'State_singlet_A_1_Total.txt'
  Difference density matrix of state singlet_A_2 printed to ASCII file 'State_singlet_A_2_Difference.txt'
  Total density matrix of state singlet_A_2 printed to ASCII file 'State_singlet_A_2_Total.txt'
  Difference density matrix of state singlet_A_3 printed to ASCII file 'State_singlet_A_3_Difference.txt'
  Total density matrix of state singlet_A_3 printed to ASCII file 'State_singlet_A_3_Total.txt'
  Difference density matrix of state singlet_A_4 printed to ASCII file 'State_singlet_A_4_Difference.txt'
  Total density matrix of state singlet_A_4 printed to ASCII file 'State_singlet_A_4_Total.txt'
  Difference density matrix of state singlet_A_5 printed to ASCII file 'State_singlet_A_5_Difference.txt'
  Total density matrix of state singlet_A_5 printed to ASCII file 'State_singlet_A_5_Total.txt'
  Difference density matrix of state singlet_A_6 printed to ASCII file 'State_singlet_A_6_Difference.txt'
  Total density matrix of state singlet_A_6 printed to ASCII file 'State_singlet_A_6_Total.txt'
  Difference density matrix of state singlet_A_7 printed to ASCII file 'State_singlet_A_7_Difference.txt'
  Total density matrix of state singlet_A_7 printed to ASCII file 'State_singlet_A_7_Total.txt'
  Difference density matrix of state singlet_A_8 printed to ASCII file 'State_singlet_A_8_Difference.txt'
  Total density matrix of state singlet_A_8 printed to ASCII file 'State_singlet_A_8_Total.txt'
  Difference density matrix of state singlet_A_9 printed to ASCII file 'State_singlet_A_9_Difference.txt'
  Total density matrix of state singlet_A_9 printed to ASCII file 'State_singlet_A_9_Total.txt'
  Difference density matrix of state singlet_A_10 printed to ASCII file 'State_singlet_A_10_Difference.txt'
  Total density matrix of state singlet_A_10 printed to ASCII file 'State_singlet_A_10_Total.txt'
  Properties ...  CPU 0.41 s  wall 1.75 s
  ISR TDMS ...  CPU 17.55 s  wall 4.58 s
  ISR transition properties ...  CPU 0.23 s  wall 0.10 s
  Sum-over-states TPA ...  CPU 0.00 s  wall 0.00 s

--------------------------------------------------------------------------------
                   State-averaged natural transition orbitals
--------------------------------------------------------------------------------
--------------------------------------------------------------------------------
  SA-NTO decomposition ...  CPU 0.01 s  wall 0.08 s

--------------------------------------------------------------------------------
                             Excited State Summary
--------------------------------------------------------------------------------
--------------------------------------------------------------------------------

  Excited state 1 (singlet, A)                                     [converged]
  ----------------------------------------------------------------------------
  Term symbol:  2 (1) A                                     R^2 =  1.83215e-13

  Total energy:                                            -77.9989196838 a.u.
  Excitation energy:                                               8.726459 eV

  Osc. strength:                                                      0.433212
  Trans. dip. moment [a.u.]:           [   1.031721,   -0.980716,   -0.006920]
  <i|r^2|0> [a.u.]:                    [   6.095204,   -0.227000,   -0.025784]
  Two-photon absorption cross-section (SoS) [a.u.]:                   0.002074
  Two-photon absorption matrix (SoS) [a.u.]:
                                       |    0.013832    0.003723   -0.007036 |
                                       |    0.003723   -0.003818    0.006533 |
                                       |   -0.007036    0.006533    0.003348 |
  Two-photon absorption cross-section [a.u.]:                         0.105316
  Two-photon absorption matrix [a.u.]:
                                       |    0.007846   -0.007598    0.056671 |
                                       |   -0.007598   -0.026736    0.096453 |
                                       |    0.056671    0.096453    0.020170 |

  Dip. moment [a.u.]:                  [  -0.001228,   -0.002426,    0.013955]
  Total dipole [Debye]:                                               0.036138
  <r^2> [a.u.]:                        [ 176.079685,   35.601892,   11.928326]
  Total <r^2> [a.u.]:                                               223.609903

  V1^2 = 0.9711, V2^2 = 0.0289

  Important amplitudes:
      occ i     occ j     vir a      vir b          v   
    -----------------------------------------------------
     8 (A) A              9 (A) A                -0.6747
     7 (A) A              9 (A) A                 0.0933
     6 (A) A             14 (A) A                 0.0615
     4 (A) A             10 (A) A                 0.0599
     7 (A) A             16 (A) A                 0.0561
     5 (A) A             13 (A) A                -0.0507
     6 (A) A             23 (A) A                 0.0481
     8 (A) A             20 (A) A                -0.0347
     6 (A) A             19 (A) A                -0.0304
     3 (A) A             12 (A) A                -0.0278
     5 (A) A             22 (A) A                -0.0212
     7 (A) A             11 (A) A                -0.0211
     4 (A) A             24 (A) A                 0.0185
     3 (A) A             26 (A) A                -0.0183
     8 (A) A   8 (A) B   17 (A) A   20 (A) B      0.0182
     6 (A) A             26 (A) A                 0.0161
     8 (A) A   8 (A) B    9 (A) A   28 (A) B     -0.0153
     7 (A) A             21 (A) A                 0.0148
     3 (A) A             14 (A) A                -0.0138
     6 (A) A             12 (A) A                -0.0131
     3 (A) A   4 (A) B    9 (A) A    9 (A) B     -0.0127
     3 (A) A             19 (A) A                 0.0118
     8 (A) A   8 (A) B   18 (A) A   19 (A) B     -0.0111
     7 (A) A             20 (A) A                 0.0107
     7 (A) A             32 (A) A                 0.0095
     7 (A) A             36 (A) A                 0.0084
     3 (A) A             23 (A) A                -0.0080
     8 (A) A   8 (A) B   25 (A) A   29 (A) B      0.0073
     6 (A) A             35 (A) A                 0.0071
     6 (A) A             40 (A) A                -0.0067
     8 (A) A   8 (A) B    9 (A) A   27 (A) B     -0.0063
     6 (A) A              9 (A) A                 0.0063
     3 (A) A   6 (A) B    9 (A) A   28 (A) B      0.0060
     5 (A) A   8 (A) B   11 (A) A   20 (A) B     -0.0059
     7 (A) A   8 (A) B   13 (A) A   20 (A) B     -0.0059
     5 (A) A   8 (A) B   16 (A) A    9 (A) B      0.0058
     5 (A) A   7 (A) B    9 (A) A    9 (A) B     -0.0058
     5 (A) A             27 (A) A                -0.0058
     5 (A) A   8 (A) B   11 (A) A    9 (A) B      0.0058
     3 (A) A   5 (A) B    9 (A) A   25 (A) B      0.0057
    -----------------------------------------------------

  Density matrix analysis:
  ------------------------
  NOs
    Occupation of frontier NOs:
       0.9508   1.0210
    Number of electrons: 16.000000
    Number of unpaired electrons: n_u =  2.31448, n_u,nl =  2.03276
    NO participation ratio (PR_NO):  2.860830
  
  
  Mulliken Population Analysis
  Atom      Charge (e)              h+              e-           Del q
  --------------------------------------------------------------------
   1 H        0.060756        0.022189       -0.012432        0.009758
   2 C       -0.120388        0.484890       -0.504964       -0.020074
   3 H        0.061084        0.023012       -0.012506        0.010507
   4 C       -0.123332        0.484833       -0.505117       -0.020285
   5 H        0.061046        0.022552       -0.012573        0.009979
   6 H        0.060835        0.022793       -0.012678        0.010115
  --------------------------------------------------------------------
  Sum:        0.000000        1.060269       -1.060269        0.000000
  
  Multipole moment analysis of the density matrix
    Molecular charge:                      -0.000000
    Number of electrons:                   16.000000
      Center of electronic charge [Ang]: [ -1.560536,  -0.065522,   0.004017]
    Total nuclear charge:                  16.000000
      Center of nuclear charge [Ang]:    [ -1.560576,  -0.065602,   0.004478]
    Dipole moment [D]:                     0.036138
      Cartesian components [D]:          [ -0.003122,  -0.006167,   0.035471]
    RMS size of the density [Ang]:         1.214080
      Cartesian components [Ang]:        [  0.804013,   0.786641,   0.456893]
  
  Exciton analysis of the difference density matrix
    <r_h> [Ang]:                  [ -1.560637,  -0.065749,  -0.001550]
    <r_e> [Ang]:                  [ -1.560496,  -0.065085,  -0.002940]
    |<r_e - r_h>| [Ang]:            0.001547
    Hole size [Ang]:                1.290831
      Cartesian components [Ang]: [  0.734997,   0.722780,   0.776926]
    Electron size [Ang]:            1.463014
      Cartesian components [Ang]: [  0.853956,   0.830791,   0.849091]

  Transition density matrix analysis:
  -----------------------------------
  
  CT numbers (Mulliken)
    omega =     0.9528
    <Phe> =    -0.1577
  
  Exciton analysis of the transition density matrix
    Trans. dipole moment [D]:             1.809065
      Cartesian components [D]:         [  1.311187,  -1.246366,  -0.008794]
    <r_h> [Ang]:                        [ -1.560419,  -0.065876,  -0.000347]
    <r_e> [Ang]:                        [ -1.560326,  -0.064825,  -0.003775]
    |<r_e - r_h>| [Ang]:                  0.003587
    Hole size [Ang]:                      1.222387
      Cartesian components [Ang]:       [  0.659678,   0.651179,   0.796882]
    Electron size [Ang]:                  1.484870
      Cartesian components [Ang]:       [  0.863786,   0.839370,   0.868430]
    RMS electron-hole separation [Ang]:   1.940246
      Cartesian components [Ang]:       [  1.111109,   1.083289,   1.164679]
    Covariance(r_h, r_e) [Ang^2]:        -0.032738
    Correlation coefficient:             -0.018036
    Center-of-mass size [Ang]:            0.953099
      Cartesian components [Ang]:       [  0.531046,   0.520489,   0.596221]

  Decomposition into state-averaged NTOs
    H- 0 -> L+ 0: -0.6640 ( 88.2%)
    H- 1 -> L+ 0:  0.0895 (  1.6%)
    H- 2 -> L+ 5: -0.0826 (  1.4%)
                   omega =  95.3%
  ----------------------------------------------------------------------------


  Excited state 2 (singlet, A)                                     [converged]
  ----------------------------------------------------------------------------
  Term symbol:  3 (1) A                                     R^2 =  1.78006e-13

  Total energy:                                            -77.9868287843 a.u.
  Excitation energy:                                               9.055469 eV

  Osc. strength:                                                      0.010826
  Trans. dip. moment [a.u.]:           [   0.154642,   -0.157598,   -0.006952]
  <i|r^2|0> [a.u.]:                    [   0.823735,   -0.120808,    0.170396]
  Two-photon absorption cross-section (SoS) [a.u.]:                   5.078563
  Two-photon absorption matrix (SoS) [a.u.]:
                                       |   -0.082210   -0.069327    0.538397 |
                                       |   -0.069327   -0.049127    0.570902 |
                                       |    0.538397    0.570902    0.138665 |
  Two-photon absorption cross-section [a.u.]:                         0.126031
  Two-photon absorption matrix [a.u.]:
                                       |   -0.089531    0.001283   -0.050146 |
                                       |    0.001283    0.107912   -0.057578 |
                                       |   -0.050146   -0.057578   -0.013027 |

  Dip. moment [a.u.]:                  [  -0.017630,   -0.002151,    0.024433]
  Total dipole [Debye]:                                               0.076777
  <r^2> [a.u.]:                        [ 174.497946,   34.045473,   13.152623]
  Total <r^2> [a.u.]:                                               221.696042

  V1^2 = 0.9546, V2^2 = 0.0454

  Important amplitudes:
      occ i     occ j     vir a      vir b          v   
    -----------------------------------------------------
     7 (A) A              9 (A) A                -0.6622
     8 (A) A             11 (A) A                -0.1506
     8 (A) A              9 (A) A                -0.0911
     7 (A) A             20 (A) A                -0.0750
     5 (A) A   8 (A) B    9 (A) A    9 (A) B     -0.0312
     8 (A) A             16 (A) A                -0.0279
     8 (A) A             21 (A) A                 0.0179
     5 (A) A             28 (A) A                 0.0139
     4 (A) A   7 (A) B    9 (A) A   19 (A) B      0.0134
     5 (A) A   7 (A) B    9 (A) A   16 (A) B     -0.0132
     7 (A) A   8 (A) B   20 (A) A   17 (A) B      0.0104
     8 (A) A             10 (A) A                 0.0101
     6 (A) A             14 (A) A                 0.0096
     5 (A) A   8 (A) B    9 (A) A   20 (A) B     -0.0094
     4 (A) A             10 (A) A                 0.0092
     4 (A) A   6 (A) B    9 (A) A   16 (A) B     -0.0090
     5 (A) A   6 (A) A    9 (A) A   23 (A) A     -0.0090
     7 (A) A   8 (A) A    9 (A) A   28 (A) A      0.0088
     5 (A) A   6 (A) A    9 (A) A   14 (A) A     -0.0088
     5 (A) A   6 (A) B    9 (A) A   19 (A) B      0.0085
     7 (A) A             16 (A) A                 0.0084
     4 (A) A   5 (A) A    9 (A) A   10 (A) A      0.0084
     6 (A) A   7 (A) B    9 (A) A   18 (A) B     -0.0082
     5 (A) A             13 (A) A                -0.0080
     5 (A) A   6 (A) B    9 (A) A   23 (A) B     -0.0079
     3 (A) A   7 (A) B    9 (A) A   18 (A) B     -0.0078
     5 (A) A   7 (A) A    9 (A) A   16 (A) A     -0.0078
     8 (A) A   7 (A) B    9 (A) A   28 (A) B     -0.0077
     4 (A) A   8 (A) B    9 (A) A   25 (A) B      0.0075
     7 (A) A   8 (A) B   17 (A) A   20 (A) B      0.0073
     4 (A) A   7 (A) B   19 (A) A    9 (A) B      0.0073
     6 (A) A             23 (A) A                 0.0072
     7 (A) A   8 (A) B   19 (A) A   18 (A) B     -0.0071
     5 (A) A   5 (A) B    9 (A) A   13 (A) B      0.0071
     5 (A) A   8 (A) A    9 (A) A   20 (A) A     -0.0068
     4 (A) A   5 (A) B    9 (A) A   18 (A) B     -0.0067
     7 (A) A   7 (A) B   20 (A) A   22 (A) B     -0.0065
     7 (A) A   8 (A) B   17 (A) A    9 (A) B      0.0064
     5 (A) A   6 (A) B    9 (A) A   14 (A) B     -0.0062
     4 (A) A   7 (A) A    9 (A) A   19 (A) A      0.0061
    -----------------------------------------------------

  Density matrix analysis:
  ------------------------
  NOs
    Occupation of frontier NOs:
       0.9557   1.0546
    Number of electrons: 16.000000
    Number of unpaired electrons: n_u =  2.35452, n_u,nl =  2.06304
    NO participation ratio (PR_NO):  3.035141
  
  
  Mulliken Population Analysis
  Atom      Charge (e)              h+              e-           Del q
  --------------------------------------------------------------------
   1 H        0.143628        0.118902       -0.026272        0.092630
   2 C       -0.295553        0.273999       -0.469238       -0.195239
   3 H        0.150817        0.123526       -0.023286        0.100240
   4 C       -0.297591        0.277208       -0.471752       -0.194544
   5 H        0.150659        0.126898       -0.027307        0.099591
   6 H        0.148040        0.119572       -0.022251        0.097321
  --------------------------------------------------------------------
  Sum:        0.000000        1.040106       -1.040106        0.000000
  
  Multipole moment analysis of the density matrix
    Molecular charge:                      0.000000
    Number of electrons:                   16.000000
      Center of electronic charge [Ang]: [ -1.559993,  -0.065531,   0.003670]
    Total nuclear charge:                  16.000000
      Center of nuclear charge [Ang]:    [ -1.560576,  -0.065602,   0.004478]
    Dipole moment [D]:                     0.076777
      Cartesian components [D]:          [ -0.044810,  -0.005468,   0.062104]
    RMS size of the density [Ang]:         1.200912
      Cartesian components [Ang]:        [  0.787684,   0.769131,   0.479772]
  
  Exciton analysis of the difference density matrix
    <r_h> [Ang]:                  [ -1.564234,  -0.059026,   0.006168]
    <r_e> [Ang]:                  [ -1.555746,  -0.058490,  -0.000580]
    |<r_e - r_h>| [Ang]:            0.010857
    Hole size [Ang]:                1.482492
      Cartesian components [Ang]: [  0.992218,   0.997058,   0.468147]
    Electron size [Ang]:            1.480514
      Cartesian components [Ang]: [  0.881682,   0.863782,   0.817581]

  Transition density matrix analysis:
  -----------------------------------
  
  CT numbers (Mulliken)
    omega =     0.9224
    <Phe> =    -0.0150
  
  Exciton analysis of the transition density matrix
    Trans. dipole moment [D]:             0.280745
      Cartesian components [D]:         [  0.196531,  -0.200287,  -0.008836]
    <r_h> [Ang]:                        [ -1.565363,  -0.058584,   0.007610]
    <r_e> [Ang]:                        [ -1.554620,  -0.058605,  -0.002219]
    |<r_e - r_h>| [Ang]:                  0.014562
    Hole size [Ang]:                      1.508188
      Cartesian components [Ang]:       [  1.012454,   1.019093,   0.459363]
    Electron size [Ang]:                  1.478098
      Cartesian components [Ang]:       [  0.873163,   0.854243,   0.832243]
    RMS electron-hole separation [Ang]:   2.092688
      Cartesian components [Ang]:       [  1.321953,   1.315424,   0.949443]
    Covariance(r_h, r_e) [Ang^2]:         0.040136
    Correlation coefficient:              0.018004
    Center-of-mass size [Ang]:            1.065326
      Cartesian components [Ang]:       [  0.675927,   0.671980,   0.475904]

  Decomposition into state-averaged NTOs
    H- 1 -> L+ 0: -0.6550 ( 85.8%)
    H- 0 -> L+ 2:  0.1512 (  4.6%)
    H- 0 -> L+ 0: -0.0858 (  1.5%)
                   omega =  92.2%
  ----------------------------------------------------------------------------


  Excited state 3 (singlet, A)                                     [converged]
  ----------------------------------------------------------------------------
  Term symbol:  4 (1) A                                     R^2 =  1.69292e-13

  Total energy:                                            -77.9827736523 a.u.
  Excitation energy:                                               9.165815 eV

  Osc. strength:                                                      0.025189
  Trans. dip. moment [a.u.]:           [   0.002192,   -0.042088,    0.332255]
  <i|r^2|0> [a.u.]:                    [  -0.064925,    0.082535,   -0.007422]
  Two-photon absorption cross-section (SoS) [a.u.]:                   2.652812
  Two-photon absorption matrix (SoS) [a.u.]:
                                       |   -0.576908   -0.027210   -0.011883 |
                                       |   -0.027210    0.552710    0.051729 |
                                       |   -0.011883    0.051729   -0.100199 |
  Two-photon absorption cross-section [a.u.]:                         1.446547
  Two-photon absorption matrix [a.u.]:
                                       |   -0.459363   -0.004389   -0.012503 |
                                       |   -0.004389    0.363620    0.027477 |
                                       |   -0.012503    0.027477   -0.062904 |

  Dip. moment [a.u.]:                  [   0.007090,   -0.000468,   -0.015012]
  Total dipole [Debye]:                                               0.042215
  <r^2> [a.u.]:                        [ 180.889814,   40.599192,   11.069907]
  Total <r^2> [a.u.]:                                               232.558912

  V1^2 = 0.9587, V2^2 = 0.0413

  Important amplitudes:
      occ i     occ j     vir a      vir b          v   
    -----------------------------------------------------
     8 (A) A             10 (A) A                -0.6890
     8 (A) A             24 (A) A                -0.0507
     8 (A) A             18 (A) A                 0.0314
     4 (A) A              9 (A) A                 0.0238
     8 (A) A   8 (A) B    9 (A) A   12 (A) B     -0.0219
     8 (A) A   8 (A) B   10 (A) A   17 (A) B     -0.0173
     8 (A) A             15 (A) A                -0.0169
     5 (A) A   8 (A) B   11 (A) A   10 (A) B      0.0165
     7 (A) A   8 (A) B   13 (A) A   10 (A) B      0.0141
     4 (A) A   8 (A) B   12 (A) A   10 (A) B      0.0111
     6 (A) A   8 (A) A   10 (A) A   15 (A) A     -0.0110
     7 (A) A   8 (A) B   22 (A) A   10 (A) B      0.0108
     6 (A) A   8 (A) B   15 (A) A   10 (A) B      0.0107
     4 (A) A   8 (A) A   10 (A) A   12 (A) A     -0.0106
     7 (A) A   8 (A) A   10 (A) A   22 (A) A     -0.0099
     7 (A) A   8 (A) A   10 (A) A   13 (A) A     -0.0097
     5 (A) A   8 (A) B   21 (A) A   10 (A) B     -0.0094
     5 (A) A   8 (A) A   10 (A) A   11 (A) A     -0.0094
     7 (A) A              9 (A) A                -0.0093
     6 (A) A   8 (A) A   10 (A) A   18 (A) A     -0.0088
     6 (A) A   8 (A) B   10 (A) A   10 (A) B     -0.0087
     7 (A) A   8 (A) A   12 (A) A   16 (A) A      0.0082
     5 (A) A   8 (A) A   10 (A) A   21 (A) A      0.0079
     3 (A) A   4 (A) B   10 (A) A    9 (A) B     -0.0079
     4 (A) A   8 (A) B   19 (A) A   10 (A) B     -0.0075
     8 (A) A   8 (A) B    9 (A) A   23 (A) B      0.0075
     3 (A) A   8 (A) B   10 (A) A   10 (A) B     -0.0072
     5 (A) A   8 (A) B   10 (A) A   11 (A) B      0.0071
     3 (A) A   8 (A) A   10 (A) A   24 (A) A      0.0071
     7 (A) A   8 (A) B   16 (A) A   12 (A) B     -0.0070
     3 (A) A   8 (A) B   10 (A) A   18 (A) B      0.0069
     8 (A) A   8 (A) B    9 (A) A   19 (A) B      0.0068
     8 (A) A   8 (A) B   10 (A) A   28 (A) B     -0.0067
     6 (A) A   8 (A) B   18 (A) A   10 (A) B      0.0067
     8 (A) A              9 (A) A                -0.0061
     7 (A) A   8 (A) B   12 (A) A   11 (A) B     -0.0058
     3 (A) A   6 (A) B   10 (A) A   28 (A) B      0.0058
     5 (A) A   8 (A) A   10 (A) A   16 (A) A     -0.0056
     3 (A) A   5 (A) B   10 (A) A   25 (A) B      0.0056
     3 (A) A   8 (A) A   10 (A) A   18 (A) A      0.0055
    -----------------------------------------------------

  Density matrix analysis:
  ------------------------
  NOs
    Occupation of frontier NOs:
       0.9816   0.9849
    Number of electrons: 16.000000
    Number of unpaired electrons: n_u =  2.28587, n_u,nl =  2.02453
    NO participation ratio (PR_NO):  2.693373
  
  
  Mulliken Population Analysis
  Atom      Charge (e)              h+              e-           Del q
  --------------------------------------------------------------------
   1 H       -0.161095        0.053737       -0.265831       -0.212094
   2 C        0.326441        0.537717       -0.110961        0.426756
   3 H       -0.163728        0.054040       -0.268345       -0.214304
   4 C        0.324491        0.538036       -0.110498        0.427538
   5 H       -0.162772        0.053898       -0.267737       -0.213839
   6 H       -0.163337        0.054059       -0.268116       -0.214056
  --------------------------------------------------------------------
  Sum:        0.000000        1.291486       -1.291486        0.000000
  
  Multipole moment analysis of the density matrix
    Molecular charge:                      0.000000
    Number of electrons:                   16.000000
      Center of electronic charge [Ang]: [ -1.560811,  -0.065587,   0.004975]
    Total nuclear charge:                  16.000000
      Center of nuclear charge [Ang]:    [ -1.560576,  -0.065602,   0.004478]
    Dipole moment [D]:                     0.042215
      Cartesian components [D]:          [  0.018021,  -0.001190,  -0.038157]
    RMS size of the density [Ang]:         1.276612
      Cartesian components [Ang]:        [  0.854262,   0.840391,   0.440134]
  
  Exciton analysis of the difference density matrix
    <r_h> [Ang]:                  [ -1.560806,  -0.065425,   0.000974]
    <r_e> [Ang]:                  [ -1.564099,  -0.065683,   0.011702]
    |<r_e - r_h>| [Ang]:            0.011225
    Hole size [Ang]:                1.410439
      Cartesian components [Ang]: [  0.833943,   0.820572,   0.787743]
    Electron size [Ang]:            2.075598
      Cartesian components [Ang]: [  1.372208,   1.376423,   0.728433]

  Transition density matrix analysis:
  -----------------------------------
  
  CT numbers (Mulliken)
    omega =     0.9259
    <Phe> =    -0.0109
  
  Exciton analysis of the transition density matrix
    Trans. dipole moment [D]:             0.425638
      Cartesian components [D]:         [  0.002785,  -0.053489,   0.422255]
    <r_h> [Ang]:                        [ -1.560321,  -0.065869,  -0.002116]
    <r_e> [Ang]:                        [ -1.565374,  -0.066006,   0.014509]
    |<r_e - r_h>| [Ang]:                  0.017376
    Hole size [Ang]:                      1.213233
      Cartesian components [Ang]:       [  0.636649,   0.625053,   0.822145]
    Electron size [Ang]:                  2.295657
      Cartesian components [Ang]:       [  1.516426,   1.523797,   0.805317]
    RMS electron-hole separation [Ang]:   2.586630
      Cartesian components [Ang]:       [  1.637140,   1.639959,   1.149332]
    Covariance(r_h, r_e) [Ang^2]:         0.025809
    Correlation coefficient:              0.009267
    Center-of-mass size [Ang]:            1.303226
      Cartesian components [Ang]:       [  0.826065,   0.827017,   0.576244]

  Decomposition into state-averaged NTOs
    H- 0 -> L+ 1: -0.6796 ( 92.4%)
                   omega =  92.6%
  ----------------------------------------------------------------------------


  Excited state 4 (singlet, A)                                     [converged]
  ----------------------------------------------------------------------------
  Term symbol:  5 (1) A                                     R^2 =  8.08671e-14

  Total energy:                                            -77.9584271168 a.u.
  Excitation energy:                                               9.828318 eV

  Osc. strength:                                                      0.001813
  Trans. dip. moment [a.u.]:           [  -0.062001,    0.060650,    0.002575]
  <i|r^2|0> [a.u.]:                    [  -0.387593,   -0.004251,    0.040596]
  Two-photon absorption cross-section (SoS) [a.u.]:                 148.321232
  Two-photon absorption matrix (SoS) [a.u.]:
                                       |   -0.438016   -0.375093    2.964648 |
                                       |   -0.375093   -0.303181    3.032596 |
                                       |    2.964648    3.032596    0.737285 |
  Two-photon absorption cross-section [a.u.]:                        91.251734
  Two-photon absorption matrix [a.u.]:
                                       |   -0.417511   -0.297560    2.309161 |
                                       |   -0.297560   -0.165476    2.391123 |
                                       |    2.309161    2.391123    0.578586 |

  Dip. moment [a.u.]:                  [   0.010948,    0.008634,   -0.015154]
  Total dipole [Debye]:                                               0.052341
  <r^2> [a.u.]:                        [ 181.242291,   40.617909,   10.810300]
  Total <r^2> [a.u.]:                                               232.670501

  V1^2 = 0.9635, V2^2 = 0.0365

  Important amplitudes:
      occ i     occ j     vir a      vir b          v   
    -----------------------------------------------------
     8 (A) A             11 (A) A                -0.6692
     7 (A) A              9 (A) A                 0.1519
     8 (A) A             21 (A) A                 0.0780
     8 (A) A             16 (A) A                -0.0644
     8 (A) A   8 (A) B    9 (A) A   13 (A) B      0.0166
     5 (A) A   8 (A) B   11 (A) A   11 (A) B      0.0155
     8 (A) A              9 (A) A                 0.0153
     8 (A) A   8 (A) B   11 (A) A   17 (A) B     -0.0140
     7 (A) A             20 (A) A                 0.0139
     7 (A) A   8 (A) B   13 (A) A   11 (A) B      0.0127
     5 (A) A   8 (A) A   11 (A) A   21 (A) A      0.0110
     4 (A) A   8 (A) B   12 (A) A   11 (A) B      0.0110
     8 (A) A   8 (A) B    9 (A) A   22 (A) B      0.0107
     7 (A) A   8 (A) A   11 (A) A   22 (A) A     -0.0096
     6 (A) A   8 (A) B   15 (A) A   11 (A) B      0.0090
     6 (A) A   8 (A) B   10 (A) A   11 (A) B     -0.0090
     7 (A) A   8 (A) B   22 (A) A   11 (A) B      0.0089
     3 (A) A   4 (A) B   11 (A) A    9 (A) B     -0.0083
     3 (A) A   8 (A) B   11 (A) A   18 (A) B      0.0081
     6 (A) A   8 (A) A   11 (A) A   15 (A) A     -0.0080
     7 (A) A   8 (A) A   13 (A) A   16 (A) A     -0.0078
     7 (A) A   8 (A) A   11 (A) A   13 (A) A     -0.0077
     8 (A) A             12 (A) A                -0.0073
     5 (A) A   8 (A) B   21 (A) A   11 (A) B     -0.0071
     4 (A) A   8 (A) B   19 (A) A   11 (A) B     -0.0070
     5 (A) A   8 (A) B    9 (A) A    9 (A) B      0.0068
     4 (A) A   8 (A) A   11 (A) A   12 (A) A     -0.0062
     6 (A) A   8 (A) A   11 (A) A   18 (A) A     -0.0062
     6 (A) A   8 (A) B   18 (A) A   11 (A) B      0.0060
     6 (A) A              9 (A) A                 0.0057
     7 (A) A   8 (A) B   16 (A) A   13 (A) B      0.0057
     3 (A) A   6 (A) B   11 (A) A   28 (A) B      0.0056
     3 (A) A   8 (A) A   11 (A) A   18 (A) A      0.0056
     5 (A) A   8 (A) B   10 (A) A   10 (A) B      0.0056
     3 (A) A   8 (A) B   11 (A) A   30 (A) B      0.0055
     3 (A) A   5 (A) B   11 (A) A   25 (A) B      0.0054
     6 (A) A   8 (A) B   11 (A) A   10 (A) B     -0.0054
     7 (A) A   8 (A) B   12 (A) A   10 (A) B     -0.0054
     8 (A) A   8 (A) B   20 (A) A   22 (A) B      0.0053
     3 (A) A   8 (A) A   11 (A) A   24 (A) A      0.0053
    -----------------------------------------------------

  Density matrix analysis:
  ------------------------
  NOs
    Occupation of frontier NOs:
       0.9396   1.0289
    Number of electrons: 16.000000
    Number of unpaired electrons: n_u =  2.31945, n_u,nl =  2.04985
    NO participation ratio (PR_NO):  2.921244
  
  
  Mulliken Population Analysis
  Atom      Charge (e)              h+              e-           Del q
  --------------------------------------------------------------------
   1 H       -0.137817        0.045923       -0.234738       -0.188815
   2 C        0.273675        0.496105       -0.122116        0.373989
   3 H       -0.134600        0.046981       -0.232158       -0.185177
   4 C        0.270117        0.496504       -0.123340        0.373164
   5 H       -0.130254        0.047077       -0.228398       -0.181321
   6 H       -0.141122        0.046039       -0.237881       -0.191841
  --------------------------------------------------------------------
  Sum:        0.000000        1.178629       -1.178629        0.000000
  
  Multipole moment analysis of the density matrix
    Molecular charge:                      -0.000000
    Number of electrons:                   16.000000
      Center of electronic charge [Ang]: [ -1.560938,  -0.065888,   0.004979]
    Total nuclear charge:                  16.000000
      Center of nuclear charge [Ang]:    [ -1.560576,  -0.065602,   0.004478]
    Dipole moment [D]:                     0.052341
      Cartesian components [D]:          [  0.027827,   0.021945,  -0.038518]
    RMS size of the density [Ang]:         1.277206
      Cartesian components [Ang]:        [  0.857633,   0.840562,   0.434942]
  
  Exciton analysis of the difference density matrix
    <r_h> [Ang]:                  [ -1.560800,  -0.065355,   0.000479]
    <r_e> [Ang]:                  [ -1.566140,  -0.069723,   0.012298]
    |<r_e - r_h>| [Ang]:            0.013685
    Hole size [Ang]:                1.395223
      Cartesian components [Ang]: [  0.818346,   0.807899,   0.790098]
    Electron size [Ang]:            2.123200
      Cartesian components [Ang]: [  1.431506,   1.412350,   0.681202]

  Transition density matrix analysis:
  -----------------------------------
  
  CT numbers (Mulliken)
    omega =     0.9298
    <Phe> =    -0.0138
  
  Exciton analysis of the transition density matrix
    Trans. dipole moment [D]:             0.110275
      Cartesian components [D]:         [ -0.078795,   0.077079,   0.003272]
    <r_h> [Ang]:                        [ -1.560302,  -0.065083,  -0.001584]
    <r_e> [Ang]:                        [ -1.567391,  -0.070305,   0.013905]
    |<r_e - r_h>| [Ang]:                  0.017816
    Hole size [Ang]:                      1.228475
      Cartesian components [Ang]:       [  0.658801,   0.651508,   0.806640]
    Electron size [Ang]:                  2.260353
      Cartesian components [Ang]:       [  1.524101,   1.504282,   0.723497]
    RMS electron-hole separation [Ang]:   2.561853
      Cartesian components [Ang]:       [  1.651849,   1.631308,   1.083199]
    Covariance(r_h, r_e) [Ang^2]:         0.027787
    Correlation coefficient:              0.010007
    Center-of-mass size [Ang]:            1.291696
      Cartesian components [Ang]:       [  0.834454,   0.823637,   0.542022]

  Decomposition into state-averaged NTOs
    H- 0 -> L+ 2:  0.6643 ( 88.3%)
    H- 1 -> L+ 0:  0.1499 (  4.5%)
                   omega =  93.0%
  ----------------------------------------------------------------------------


  Excited state 5 (singlet, A)                                     [converged]
  ----------------------------------------------------------------------------
  Term symbol:  6 (1) A                                     R^2 =  3.85058e-13

  Total energy:                                            -77.9445174624 a.u.
  Excitation energy:                                              10.206819 eV

  Osc. strength:                                                      0.000038
  Trans. dip. moment [a.u.]:           [  -0.007188,   -0.009672,   -0.002356]
  <i|r^2|0> [a.u.]:                    [  -0.140162,    0.118175,   -0.030111]
  Two-photon absorption cross-section (SoS) [a.u.]:                 176.871668
  Two-photon absorption matrix (SoS) [a.u.]:
                                       |   -0.449597   -0.017519    3.370506 |
                                       |   -0.017519    0.360476   -3.250384 |
                                       |    3.370506   -3.250384   -0.116261 |
  Two-photon absorption cross-section [a.u.]:                        79.076388
  Two-photon absorption matrix [a.u.]:
[...]
    16   -1.076376929896e-03
    17   -1.862060450256e-03
    18   -7.753849422874e-05
    19   -3.280512737393e-03
    20    1.045140588153e-02
    21    9.292654634699e-01
    22   -3.075573937309e-04
    23    1.391454549342e-02
    24    8.783312115284e-04
    25    7.049145820883e-02
    26   -5.254731832541e-02
    27   -1.399487568912e+00
    28    9.767891813335e-02
    29   -9.336108320715e-02
    30   -7.459443353818e-03
    31    3.842472523277e-01
    32   -3.625346108599e-01
    33   -2.919639402616e-02
    34    1.540981753471e-02
    35   -1.374285326914e-03
    36   -3.015417343630e-03
    37   -2.420798131479e-04
    38   -3.125580960372e-03
    39    1.037810763081e-02
    40    9.345744156480e-01
    41    2.755955073267e-04
    42   -1.386037703857e-02
    43   -1.462069027704e-03
    44    1.024260836817e-02
    45    9.381822632988e-01
    46    1.411805278772e-02
    47    3.128227759200e-04
    48    5.862112377617e-04
Sym=X
Ene= 0.232825
Spin=Alpha
Occup=0
     1   -2.604553355820e-02
     2   -1.213570613438e+00
     3    1.401130234304e-02
     4    3.703631167983e-03
     5    5.995618423841e-04
     6   -1.518439207408e-03
     7    2.101066114626e-03
     8    1.923235061591e-02
     9    1.536562384020e-01
    10    1.597661547504e-01
    11    1.372712662482e-02
    12    5.518255943503e-01
    13    5.626737306037e-01
    14    4.566502181588e-02
    15   -1.674816135870e-04
    16   -4.325420817717e-04
    17    4.247451128774e-05
    18    1.594113945451e-04
    19    1.612710162475e-04
    20    2.551999677801e-02
    21    1.178424477154e+00
    22    2.617466819397e-03
    23    1.385137771339e-02
    24    8.800779900829e-04
    25    1.684480921747e-03
    26   -2.144709518425e-03
    27   -2.525942492033e-02
    28    1.532862628230e-01
    29    1.594827000870e-01
    30    2.451003646206e-02
    31    5.456688309133e-01
    32    5.550579544114e-01
    33    8.939776238194e-02
    34    4.139055355563e-04
    35    1.771119958040e-04
    36    7.292684508385e-04
    37   -3.250792914313e-04
    38   -3.052993478653e-04
    39   -2.564216487022e-02
    40   -1.168298063791e+00
    41    2.520621363592e-03
    42    1.366973268334e-02
    43    1.509387800599e-03
    44    2.582765836436e-02
    45    1.210389129373e+00
    46    1.405406132729e-02
    47    3.669849654880e-03
    48    1.168076331889e-03
Sym=X
Ene= 0.239313
Spin=Alpha
Occup=0
     1    1.619711319038e-02
     2    1.071979920218e+00
     3   -1.675486643573e-02
     4   -9.137903390219e-03
     5   -1.573023285494e-03
     6    8.671788641966e-02
     7   -7.993798094153e-02
     8   -1.597149329640e+00
     9   -5.567192088273e-02
    10    5.848741897275e-02
    11   -1.636304858579e-03
    12   -2.197082755342e-01
    13    2.287500907341e-01
    14   -9.092528665133e-03
    15    2.254397716528e-02
    16   -3.110696789760e-03
    17   -2.858760672999e-03
    18    4.832109745803e-04
    19   -1.288413232696e-02
    20    1.689276169422e-02
    21    1.109021050202e+00
    22    8.507283620951e-03
    23    1.757743552791e-02
    24    1.408868218919e-03
    25   -8.636040907182e-02
    26    7.933543386248e-02
    27    1.589848419087e+00
    28   -5.564011457636e-02
    29    5.850650468922e-02
    30    7.900992218572e-03
    31   -2.194794967189e-01
    32    2.289156099044e-01
    33    3.084082106901e-02
    34   -2.229017581744e-02
    35    2.621075259541e-03
    36    4.142692954433e-03
    37   -5.111708195054e-04
    38    1.272230836391e-02
    39   -1.681144704532e-02
    40   -1.106873402989e+00
    41    8.518767105957e-03
    42    1.741568821443e-02
    43    2.237909324590e-03
    44   -1.625883014818e-02
    45   -1.065019447009e+00
    46   -1.662022662999e-02
    47   -9.251857427192e-03
    48   -1.140188985891e-03
Sym=X
Ene= 0.303230
Spin=Alpha
Occup=0
     1   -2.095630771779e-02
     2    1.692457301881e+00
     3   -2.291603414965e-02
     4    2.881286675573e-04
     5   -1.196134515464e-03
     6   -1.893599937346e-04
     7    1.517863677357e-04
     8    1.433227951024e-03
     9   -1.341973772401e-01
    10   -1.398317756516e-01
    11   -1.365586620358e-02
    12   -1.144081718966e+00
    13   -1.193395488779e+00
    14   -1.324964254959e-01
    15   -1.915594923764e-04
    16   -2.112802617650e-03
    17    1.577376606900e-03
    18   -3.269979523827e-02
    19   -1.550222884776e-03
    20    2.016697247354e-02
    21   -1.690800050984e+00
    22    1.416368422763e-03
    23   -2.294369954963e-02
    24   -1.053462690990e-03
    25    1.143854507573e-04
    26    2.573535320144e-04
    27   -1.475980967989e-02
    28    1.343713444131e-01
    29    1.399009659289e-01
    30    1.993488024663e-02
    31    1.137909606303e+00
    32    1.192873999582e+00
    33    1.532003746997e-01
    34    4.824442245018e-04
    35   -9.036001831699e-04
    36    3.418513117361e-03
    37   -3.231899836503e-02
    38   -1.922164520471e-03
    39    1.909697592819e-02
    40   -1.683351401813e+00
    41   -1.613188674128e-03
    42    2.275202674440e-02
    43    1.959091393122e-03
    44   -2.036160524027e-02
    45    1.696653064051e+00
    46    2.304040091709e-02
    47   -2.822531376071e-04
    48    1.188703257907e-03
Sym=X
Ene= 0.461887
Spin=Alpha
Occup=0
     1   -1.152040134507e-01
     2   -7.129318408578e-01
     3   -1.567774839267e-02
     4   -1.033861693971e-02
     5   -1.130968673291e-03
     6    6.076697225734e-02
     7    1.741712512547e-02
     8   -3.590120262026e+00
     9    1.030819172878e-01
    10   -9.890122791859e-02
    11   -2.366833907486e-03
    12    2.423302356483e+00
    13   -2.303004486221e+00
    14   -1.230804577332e-02
    15    5.369047163440e-02
    16   -2.217849429427e-03
    17   -4.965675019233e-03
    18   -8.528895629971e-04
    19    1.800335785532e-02
    20   -1.210866312601e-01
    21   -7.024288234070e-01
    22    8.695852253697e-03
    23    1.637741818919e-02
    24    1.303116592382e-03
    25   -6.098301837846e-02
    26   -1.648722567655e-02
    27    3.593958273868e+00
    28    1.054730077812e-01
    29   -9.988265591867e-02
    30   -7.923641408266e-03
    31    2.423564424291e+00
    32   -2.292998797675e+00
    33   -3.693975738490e-02
    34   -5.252096381046e-02
    35    4.487210474226e-03
    36    6.326184294630e-03
    37    5.882188414242e-04
    38   -1.925593236194e-02
    39    1.168152910394e-01
    40    7.001534229085e-01
    41    8.547734324918e-03
    42    1.621197991116e-02
    43    1.762792312918e-03
    44    1.108580584251e-01
    45    7.198600787913e-01
    46   -1.539415237563e-02
    47   -9.955743924158e-03
    48   -2.009566353436e-03
Sym=X
Ene= 0.577456
Spin=Alpha
Occup=0
     1    2.463994600371e-01
     2    4.256606679190e-02
     3   -1.854065492542e-02
     4    2.572981364313e-02
     5    7.089630693922e-04
     6   -4.493915340811e-03
     7   -1.571759829197e-01
     8   -4.628592867508e-01
     9    2.985752214217e-01
    10   -2.878429237268e-01
    11   -3.754533079268e-03
    12   -7.221621224900e-01
    13    6.977779118420e-01
    14    1.385855766944e-02
    15   -5.834297066045e-03
    16    4.581798391511e-03
    17    3.991443493127e-03
    18   -4.708213877890e-03
    19    6.018961037769e-02
    20    2.562096428573e-01
    21    2.921905985763e-02
    22   -2.640700317643e-02
    23    1.633412432896e-02
    24   -2.456149642658e-04
    25   -5.611872728911e-03
    26   -1.579645825407e-01
    27   -4.095171554931e-01
    28   -2.973450094962e-01
    29    2.853281449647e-01
    30    2.806830509388e-03
    31    7.619300621507e-01
    32   -7.272262035923e-01
    33   -1.947828489875e-02
    34   -5.894791106460e-03
    35    4.705070881499e-03
    36    4.183039398614e-03
    37   -3.842940201850e-03
    38    6.017055406187e-02
    39    2.505724305886e-01
    40    4.448811650417e-02
    41    2.749742569646e-02
    42   -1.722596220649e-02
    43   -1.693462527780e-04
    44    2.496576854039e-01
    45    5.595386178180e-02
    46    1.837361921917e-02
    47   -2.575067254567e-02
    48   -1.366788662768e-03
Sym=X
Ene= 0.615198
Spin=Alpha
Occup=0
     1   -5.228838980597e-01
     2    1.982474948809e-01
     3   -6.134186045258e-02
     4    3.757937139986e-02
     5   -1.264656430704e-03
     6   -5.887444071209e-04
     7    3.351286234586e-04
     8   -1.984388958078e-02
     9   -4.065911502642e-02
    10   -3.807056151108e-02
    11   -6.445924971325e-03
    12    3.100774644233e-01
    13    2.775360853162e-01
    14    2.245145795318e-02
    15    1.911376766216e-03
    16   -9.043187793827e-03
    17    8.449928821260e-03
    18   -1.479310506351e-01
    19   -6.440518543359e-03
    20    5.073727616666e-01
    21   -2.053696295024e-01
    22    4.180946789819e-02
    23   -5.839670910506e-02
    24   -1.930312048246e-03
    25    4.501730935544e-04
    26    3.513770528198e-04
    27    2.298382469187e-02
    28   -3.929229286238e-02
    29   -3.947472439729e-02
    30   -3.352704577313e-03
    31    3.023960699459e-01
    32    2.808180740093e-01
    33    4.870487637607e-02
    34   -1.997110795646e-03
    35    5.456816730227e-03
    36   -1.351382710335e-02
    37    1.492388863859e-01
    38    6.333870994983e-03
    39   -5.166823423651e-01
    40    2.165366101100e-01
    41    4.105904256500e-02
    42   -5.862315658635e-02
    43   -2.698793077135e-03
    44    5.210401470058e-01
    45   -2.044116552448e-01
    46   -6.159545195649e-02
    47    3.760023685013e-02
    48    8.619048679149e-04
Sym=X
Ene= 0.689138
Spin=Alpha
Occup=0
     1    9.973081665918e-03
     2    7.616303634048e-03
     3    2.312099792084e-03
     4    1.779249962076e-03
     5   -2.091569777997e-02
     6    7.445848030887e-04
     7    6.894295255089e-03
     8    1.906554155755e-03
     9    2.617169176449e-02
    10    4.411674571959e-02
    11   -6.702359965582e-01
    12   -3.657076858242e-02
    13   -2.361957424232e-02
    14    6.140505810356e-01
    15   -4.455277464841e-03
    16    8.289890876515e-02
    17   -7.770811625761e-02
    18   -1.183077926759e-02
    19    8.481274293833e-04
    20    1.232812805770e-02
    21   -3.046103402546e-03
    22   -1.025286636186e-03
    23   -9.472470273831e-04
    24   -2.113352827076e-02
    25    2.133565628309e-04
    26    1.200118167618e-02
    27   -1.359216175541e-02
    28    4.110411883518e-02
    29    5.187215973643e-02
    30   -6.686832112664e-01
    31   -5.498896202410e-02
    32   -3.574581906189e-02
    33    6.117114725451e-01
    34   -1.798655136023e-03
    35   -8.250189477146e-02
    36    7.883298623350e-02
    37    7.864455908874e-03
    38    1.267881201919e-03
    39    3.578711875406e-03
    40   -1.868947038223e-02
    41    1.888385464098e-03
    42    5.010810341916e-03
    43   -2.005851964303e-02
    44    1.150709509180e-03
    45   -8.068098033962e-03
    46   -1.367695959812e-03
    47    2.363899669433e-03
    48   -2.111242088852e-02
Sym=X
Ene= 0.708573
Spin=Alpha
Occup=0
     1   -4.722330068369e-01
     2    1.551086317050e-01
     3   -8.018071052538e-02
     4   -4.419157792911e-02
     5   -7.481829770097e-03
     6   -4.740862102972e-02
     7   -3.201194367894e-01
     8    5.010803192065e-01
     9    2.046723074981e-01
    10   -1.918071329038e-01
    11   -1.415586356880e-02
    12   -9.414681804388e-02
    13    7.714284748860e-02
    14    2.852226631849e-03
    15    1.929992728506e-01
    16   -2.083778309211e-02
    17   -2.543670904057e-02
    18    3.079421705030e-03
    19   -7.702576565320e-02
    20   -4.771127972529e-01
    21    1.474911387437e-01
    22    4.068380215271e-02
    23    8.139527455936e-02
    24    6.002022290745e-03
    25   -4.698292387528e-02
    26   -3.183628075421e-01
    27    4.637266506246e-01
    28   -2.023822426831e-01
    29    1.943593748615e-01
    30   -8.058713088142e-03
    31    6.558501831330e-02
    32   -6.398380009824e-02
    33    2.314395651332e-02
    34    1.928899220693e-01
    35   -2.472939903693e-02
    36   -2.999552913814e-02
    37    2.293733335005e-03
    38   -7.529471164832e-02
    39   -4.756857165959e-01
    40    1.470240441375e-01
    41   -4.067429870364e-02
    42   -8.119480807161e-02
    43   -8.500415542355e-03
    44   -4.763816525996e-01
    45    1.468634041772e-01
    46    8.060362337251e-02
    47    4.380807048639e-02
    48    8.149227419663e-03
Sym=X
Ene= 0.784135
Spin=Alpha
Occup=0
     1   -5.292944690604e-01
     2    4.692389476366e-01
     3   -1.103467644064e-01
     4   -2.598648168125e-02
     5   -6.796904699040e-03
     6   -9.111339228121e-02
     7    2.130353187103e-01
     8    6.509482848341e-01
     9   -1.088735056205e-01
    10    1.053251365177e-01
    11   -1.928932965470e-02
    12   -3.217822796628e-01
    13    2.953079306621e-01
    14    3.990471258868e-02
    15    2.071531255635e-01
    16   -1.679493507492e-02
    17   -2.056751019668e-02
    18    1.593415969883e-03
    19   -1.004230872502e-02
    20   -5.369589388841e-01
    21    4.710856439059e-01
    22    2.082384789251e-02
    23    1.126462232474e-01
    24    7.205950856544e-03
    25    9.097636604168e-02
    26   -2.172795893440e-01
    27   -6.511767969296e-01
    28   -1.151653145918e-01
    29    1.007820387745e-01
    30    1.682893605406e-02
    31   -3.060165811327e-01
    32    3.038224160920e-01
    33   -3.136353070387e-02
    34   -2.045908859058e-01
    35    1.894733320245e-02
    36    3.368843093908e-02
    37   -1.920005472511e-03
    38    8.362451785773e-03
    39    5.414874230770e-01
    40   -4.800518977270e-01
    41    2.062009517703e-02
    42    1.127198569529e-01
    43    1.076156281843e-02
    44    5.286231410573e-01
    45   -4.603085149969e-01
    46   -1.088044475438e-01
    47   -2.626989242064e-02
    48   -8.266618919878e-03
Sym=X
Ene= 0.807929
Spin=Alpha
Occup=0
     1   -1.191705263076e-02
     2    2.757806352477e-02
     3   -6.272812446930e-03
     4   -3.177241675548e-03
     5    3.354426745055e-02
     6   -2.416378750217e-03
     7    8.980716078301e-03
     8    1.538623929218e-03
     9   -3.747202837272e-02
    10   -3.615285119206e-02
    11    7.631531459539e-01
    12    4.039351592469e-02
    13    6.374030812617e-02
    14   -1.126869566342e+00
    15    5.395107050900e-03
    16    6.464776663827e-02
    17   -6.210150178293e-02
    18   -1.166374639007e-02
    19    5.999757721512e-04
    20   -1.151778955300e-02
    21   -1.805609316155e-03
    22   -3.155804005419e-03
    23   -7.457152591911e-04
    24    3.448408747116e-02
    25    2.009693087637e-03
    26   -3.893354935662e-04
    27   -6.087795160426e-03
    28    4.206426260147e-02
    29    7.005392662053e-02
    30   -7.609493050082e-01
    31   -7.868686747026e-02
    32   -9.119268223345e-02
    33    1.123024856286e+00
    34   -8.014269724344e-03
    35    6.595618953181e-02
    36   -6.109397611881e-02
    37   -3.867993354658e-03
    38   -1.973451269823e-03
    39    1.146040352898e-02
    40   -9.483835449804e-04
    41   -3.639094757186e-04
    42    6.179015705771e-03
    43   -3.352601679081e-02
    44    1.170791342891e-02
    45   -2.964611290375e-02
    46   -4.871926127149e-03
    47    2.226874129045e-03
    48   -3.411468006147e-02
Sym=X
Ene= 0.862024
Spin=Alpha
Occup=0
     1    1.326962992859e-02
     2   -1.092010719358e+00
     3    1.479953875191e-01
     4    5.646699637355e-02
     5    1.001358255216e-02
     6    5.072272065427e-04
     7   -2.907753946902e-03
     8    4.592974900858e-03
     9   -4.041244416130e-01
    10   -4.287679839050e-01
    11   -3.481750577252e-02
    12    9.431182645372e-01
    13    9.963180783705e-01
    14    8.246716580324e-02
    15   -1.728287694925e-03
    16    1.197192824821e-02
    17   -1.673904088728e-02
    18    2.344339949592e-01
    19    8.954602630443e-03
    20   -1.106793339749e-02
    21    1.097190239018e+00
    22    5.052655648750e-02
    23    1.501082622662e-01
    24    1.239312369237e-02
    25   -6.789436182538e-04
    26   -3.575075172276e-04
    27   -1.425340071364e-03
    28   -4.062428380514e-01
    29   -4.320895901429e-01
    30   -6.769893868559e-02
    31    9.467199326921e-01
    32    1.004402711208e+00
    33    1.560486298281e-01
    34    2.791139395093e-03
    35   -1.152870100714e-02
    36    1.752167531674e-02
    37   -2.356668955446e-01
    38   -9.855847109079e-03
    39    1.101599388215e-02
    40   -1.103505921543e+00
    41    4.908586199469e-02
    42    1.512040948447e-01
    43    1.632534163430e-02
    44   -1.440080807379e-02
    45    1.097475835260e+00
    46    1.495772629987e-01
    47    5.569389714033e-02
    48    1.091106855579e-02
Sym=X
Ene= 0.935427
Spin=Alpha
Occup=0
     1    1.140970635589e-01
     2   -1.286135411663e+00
     3    1.817101426711e-01
     4   -4.774767815073e-03
     5    9.350258910745e-03
     6   -3.284954570857e-04
     7    7.128001679441e-03
     8   -1.356904135573e-02
     9   -4.781094947318e-01
    10   -4.973001397782e-01
    11   -5.426051844553e-02
    12    1.476907590173e+00
    13    1.532840536167e+00
    14    1.688435494008e-01
    15    2.136645266264e-03
    16    7.085811025760e-03
    17   -2.982442346597e-03
    18    1.217009032789e-01
    19    4.168651595762e-03
    20   -1.184979235713e-01
    21    1.287915465686e+00
    22   -1.189237827093e-02
    23    1.837762457020e-01
    24    8.743186792246e-03
    25    6.102391641309e-04
    26    9.065797757941e-03
    27   -6.342486960233e-03
    28    4.675468456853e-01
    29    4.998472171996e-01
    30    6.462466156657e-02
    31   -1.448497549523e+00
    32   -1.534546505973e+00
    33   -1.978706498251e-01
    34   -1.950038633392e-03
    35    6.866947369586e-03
    36   -1.245233109384e-02
    37    1.185500056403e-01
    38    2.052874575113e-03
    39   -1.165598098763e-01
    40    1.281575155849e+00
    41    1.246967655471e-02
    42   -1.817224636554e-01
    43   -1.448427873347e-02
    44    1.162888655326e-01
    45   -1.268871078354e+00
    46   -1.801550780450e-01
    47    6.674884735369e-03
    48   -9.814069292387e-03
Sym=X
Ene= 0.972238
Spin=Alpha
Occup=0
     1   -6.370683177804e-02
     2    9.118557879031e-01
     3   -8.883171326046e-02
     4   -9.812377102383e-02
     5   -1.108097198783e-02
     6    2.540400029844e-02
     7    2.464001912218e-01
     8    5.292882295997e-01
     9    4.772653953631e-01
    10   -4.573205573151e-01
    11   -1.882799049099e-03
    12   -1.479392405037e+00
    13    1.416785816445e+00
    14    5.637549579839e-03
    15   -5.440352535303e-02
    16   -1.387428654497e-02
    17   -1.187518728288e-02
    18    1.365163934252e-02
    19   -3.008179885525e-01
    20   -6.204173765149e-02
    21    9.128894174345e-01
    22    9.481103141743e-02
    23    9.312443897048e-02
    24    1.098428651122e-02
    25   -2.542393034600e-02
    26   -2.438464373174e-01
    27   -5.337372456688e-01
    28    4.841101480964e-01
    29   -4.508519993259e-01
    30   -1.492666891472e-02
    31   -1.501903521611e+00
    32    1.397646811607e+00
    33    4.137524392461e-02
    34    5.422493819119e-02
    35    1.279928207391e-02
    36    1.222236468054e-02
    37   -1.172793291667e-02
    38    2.996611057321e-01
    39    6.120464947831e-02
    40   -8.948840685205e-01
    41    9.408772846263e-02
    42    9.060090404046e-02
    43    1.437676530379e-02
    44    6.602744163190e-02
    45   -9.283906246166e-01
    46   -9.130376373731e-02
    47   -9.815048262055e-02
    48   -9.284794946452e-03
[5D]

======= END OF MOLDEN-FORMATTED INPUT FILE =======


        *************************************************************
        *                                                           *
        *  Thank you very much for using Q-Chem.  Have a nice day.  *
        *                                                           *
        *************************************************************


