                  Welcome to Q-Chem
     A Quantum Leap Into The Future Of Chemistry


 Q-Chem 5.4 (devel), Q-Chem, Inc., Pleasanton, CA (2021)

 E. Epifanovsky,  A. T. B. Gilbert,  Xintian Feng,  Joonho Lee,  Yuezhi Mao,  
 N. Mardirossian,  P. Pokhilko,  A. White,  M. Wormit,  M. P. Coons,  
 A. L. Dempwolff,  Zhengting Gan,  D. Hait,  P. R. Horn,  L. D. Jacobson,  
 I. Kaliman,  J. Kussmann,  A. W. Lange,  Ka Un Lao,  D. S. Levine,  Jie Liu,  
 S. C. McKenzie,  A. F. Morrison,  K. Nanda,  F. Plasser,  D. R. Rehn,  
 M. L. Vidal,  Zhi-Qiang You,  Ying Zhu,  B. Alam,  B. Albrecht,  
 A. Aldossary,  E. Alguire,  J. H. Andersen,  D. Barton,  K. Begam,  A. Behn,  
 Y. A. Bernard,  E. J. Berquist,  H. Burton,  A. Carreras,  K. Carter-Fenk,  
 R. Chakraborty,  A. D. Chien,  K. D. Closser,  V. Cofer-Shabica,  
 S. Dasgupta,  Jia Deng,  M. de Wergifosse,  M. Diedenhofen,  Hainam Do,  
 S. Ehlert,  Po-Tung Fang,  S. Fatehi,  Qingguo Feng,  T. Friedhoff,  
 J. Gayvert,  Qinghui Ge,  G. Gidofalvi,  M. Goldey,  J. Gomes,  
 C. Gonzalez-Espinoza,  S. Gulania,  A. Gunina,  M. W. D. Hanson-Heine,  
 P. H. P. Harbach,  A. W. Hauser,  M. F. Herbst,  M. Hernandez Vera,  
 M. Hodecker,  Z. C. Holden,  S. Houck,  Xunkun Huang,  Kerwin Hui,  
 B. C. Huynh,  M. Ivanov,  Hyunjun Ji,  Hanjie Jiang,  B. Kaduk,  S. Kaehler,  
 K. Khistyaev,  Jaehoon Kim,  P. Klunzinger,  Z. Koczor-Benda,  
 Joong Hoon Koh,  D. Kosenkov,  L. Koulias,  T. Kowalczyk,  C. M. Krauter,  
 K. Kue,  A. Kunitsa,  T. Kus,  A. Landau,  K. V. Lawler,  D. Lefrancois,  
 S. Lehtola,  Rain Li,  Yi-Pei Li,  Jiashu Liang,  M. Liebenthal,  
 Hung-Hsuan Lin,  You-Sheng Lin,  Fenglai Liu,  Kuan-Yu Liu,  
 M. Loipersberger,  A. Luenser,  A. Manjanath,  P. Manohar,  E. Mansoor,  
 S. F. Manzer,  Shan-Ping Mao,  A. V. Marenich,  T. Markovich,  S. Mason,  
 S. A. Maurer,  P. F. McLaughlin,  M. F. S. J. Menger,  J.-M. Mewes,  
 S. A. Mewes,  P. Morgante,  J. W. Mullinax,  K. J. Oosterbaan,  G. Paran,  
 Alexander C. Paul,  Suranjan K. Paul,  F. Pavosevic,  Zheng Pei,  S. Prager,  
 E. I. Proynov,  E. Ramos,  B. Rana,  A. E. Rask,  A. Rettig,  R. M. Richard,  
 F. Rob,  E. Rossomme,  T. Scheele,  M. Scheurer,  M. Schneider,  
 N. Sergueev,  S. M. Sharada,  W. Skomorowski,  D. W. Small,  C. J. Stein,  
 Yu-Chuan Su,  E. J. Sundstrom,  Zhen Tao,  J. Thirman,  T. Tsuchimochi,  
 N. M. Tubman,  S. P. Veccham,  O. Vydrov,  J. Wenzel,  J. Witte,  A. Yamada,  
 Kun Yao,  S. Yeganeh,  S. R. Yost,  A. Zech,  Igor Ying Zhang,  Xing Zhang,  
 Yu Zhang,  D. Zuev,  A. Aspuru-Guzik,  A. T. Bell,  N. A. Besley,  
 K. B. Bravaya,  B. R. Brooks,  D. Casanova,  Jeng-Da Chai,  S. Coriani,  
 C. J. Cramer,  A. E. DePrince, III,  R. A. DiStasio Jr.,  A. Dreuw,  
 B. D. Dunietz,  T. R. Furlani,  W. A. Goddard III,  S. Grimme,  
 S. Hammes-Schiffer,  T. Head-Gordon,  W. J. Hehre,  Chao-Ping Hsu,  
 T.-C. Jagau,  Yousung Jung,  A. Klamt,  Jing Kong,  D. S. Lambrecht,  
 WanZhen Liang,  N. J. Mayhall,  C. W. McCurdy,  J. B. Neaton,  
 C. Ochsenfeld,  J. A. Parkhill,  R. Peverati,  V. A. Rassolov,  Yihan Shao,  
 L. V. Slipchenko,  T. Stauch,  R. P. Steele,  J. E. Subotnik,  
 A. J. W. Thom,  A. Tkatchenko,  D. G. Truhlar,  T. Van Voorhis,  
 T. A. Wesolowski,  K. B. Whaley,  H. L. Woodcock III,  P. M. Zimmerman,  
 S. Faraji,  P. M. W. Gill,  M. Head-Gordon,  J. M. Herbert,  A. I. Krylov

 Additional authors for Version 5.4.1: 
 S. Kotaru,  Shaozhi Li,  Xiangyuan Li,  F. Matz,  A. Molle,  Haisheng Ren,  
 Yingli Su,  Hung-Yi Tsai,  C. Utku,  Fang Wang

 Contributors to earlier versions of Q-Chem not listed above: 
 R. D. Adamson,  B. Austin,  R. Baer,  J. Baker,  G. J. O. Beran,  
 K. Brandhorst,  S. T. Brown,  E. F. C. Byrd,  A. K. Chakraborty,  
 G. K. L. Chan,  Chun-Min Chang,  Yunqing Chen,  C.-L. Cheng,  
 Siu Hung Chien,  D. M. Chipman,  D. L. Crittenden,  H. Dachsel,  
 R. J. Doerksen,  A. D. Dutoi,  R. G. Edgar,  J. Fosso-Tande,  
 L. Fusti-Molnar,  D. Ghosh,  A. Ghysels,  A. Golubeva-Zadorozhnaya,  
 J. Gonthier,  M. S. Gordon,  S. R. Gwaltney,  G. Hawkins,  J. E. Herr,  
 A. Heyden,  S. Hirata,  E. G. Hohenstein,  G. Kedziora,  F. J. Keil,  
 C. Kelley,  Jihan Kim,  R. A. King,  R. Z. Khaliullin,  P. P. Korambath,  
 W. Kurlancheek,  A. Laurent,  A. M. Lee,  M. S. Lee,  S. V. Levchenko,  
 Ching Yeh Lin,  D. Liotard,  E. Livshits,  R. C. Lochan,  I. Lotan,  
 L. A. Martinez-Martinez,  P. E. Maslen,  N. Nair,  D. P. O'Neill,  
 D. Neuhauser,  E. Neuscamman,  C. M. Oana,  R. Olivares-Amaya,  R. Olson,  
 T. M. Perrine,  B. Peters,  P. A. Pieniazek,  A. Prociuk,  Y. M. Rhee,  
 J. Ritchie,  M. A. Rohrdanz,  E. Rosta,  N. J. Russ,  H. F. Schaefer III,  
 M. W. Schmidt,  N. E. Schultz,  S. Sharma,  N. Shenvi,  C. D. Sherrill,  
 A. C. Simmonett,  A. Sodt,  T. Stein,  D. Stuck,  K. S. Thanthiriwatte,  
 V. Vanovschi,  L. Vogt,  Tao Wang,  A. Warshel,  M. A. Watson,  
 C. F. Williams,  Q. Wu,  X. Xu,  Jun Yang,  W. Zhang,  Yan Zhao

 Please cite Q-Chem as follows:
 Y. Shao et al., Mol. Phys. 113, 184-215 (2015)
 DOI: 10.1080/00268976.2014.952696

 Q-Chem 5.4.1 for Intel X86 EM64T Linux

 Parts of Q-Chem use Armadillo 9.800.1 (Horizon Scraper).
 http://arma.sourceforge.net/

 Q-Chem begins on Mon Mar 20 18:30:53 2023  

 Host: cpu186.baobab
0

     Scratch files written to /scratch/fum/qchem78175//
 Processing $rem in /home/share/wesolowski/qc5.aug2021.FDE/config/preferences:
 Processing $rem in /home/fum/.qchemrc:

 Checking the input file for inconsistencies... 	...done.

--------------------------------------------------------------
User input:
--------------------------------------------------------------
$comment
generated from CCJob.Templates
$end

$rem
sym_ignore = true
method = adc(2)
ee_states = 10
basis = cc-pVDZ
mem_static = 1024
mem_total = 40000
adc_davidson_maxiter = 900
adc_davidson_conv = 6
adc_print = 3
adc_prop_es = true
adc_prop_es2es = true
adc_prop_tpa = true
molden_format = True
state_analysis = true
print_orbitals = 15
gen_scfman = false
fde_export_density = true
fde_details = 3
$end

$molecule
0 1
H -0.019594936290049204 -0.24530858648968099 0.028336998305560926
C -1.078829866475281 -0.5255909748856311 0.018997132048995207
H -1.2999815811315352 -1.5906628330410115 -0.11467408542789458
C -2.0456808404743763 0.3926668788157264 0.028047232321732604
H -1.820285528332129 1.4648610404575177 0.0448734970972187
H -3.0991815557903886 0.11808415480884842 -0.09766181496952377                     
$end
--------------------------------------------------------------
 ----------------------------------------------------------------
             Standard Nuclear Orientation (Angstroms)
    I     Atom           X                Y                Z
 ----------------------------------------------------------------
    1      H      -0.0195949363    -0.2453085865     0.0283369983
    2      C      -1.0788298665    -0.5255909749     0.0189971320
    3      H      -1.2999815811    -1.5906628330    -0.1146740854
    4      C      -2.0456808405     0.3926668788     0.0280472323
    5      H      -1.8202855283     1.4648610405     0.0448734971
    6      H      -3.0991815558     0.1180841548    -0.0976618150
 ----------------------------------------------------------------
 Nuclear Repulsion Energy =          33.19116314 hartrees
 There are        8 alpha and        8 beta electrons
 Requested basis set is cc-pVDZ
 There are 24 shells and 48 basis functions
 Total memory of 40000 MB is distributed as follows: 
   MEM_STATIC is set to 1024 MB
   QALLOC/CCMAN JOB total memory use is  38976 MB
 Warning: actual memory use might exceed 40000 MB

 Total QAlloc Memory Limit  40000 MB
 Mega-Array Size      1001 MB
 MEM_STATIC part      1024 MB

                       Distance Matrix (Angstroms)
             H (  1)   C (  2)   H (  3)   C (  4)   H (  5)
   C (  2)  1.095730
   H (  3)  1.862745  1.095972
   C (  4)  2.124156  1.333447  2.123684
   H (  5)  2.483433  2.124223  3.103610  1.095758
   H (  6)  3.103512  2.123617  2.481376  1.095930  1.862713

 A cutoff of  1.0D-11 yielded    300 shell pairs
 There are      1220 function pairs (      1329 Cartesian)
 Smallest overlap matrix eigenvalue = 4.82E-03

 Scale SEOQF with 1.000000e-01/1.000000e-01/1.000000e+00

 Standard Electronic Orientation quadrupole field applied
 Nucleus-field energy     =     0.0000000022 hartrees
 Guess from superposition of atomic densities
 Warning:  Energy on first SCF cycle will be non-variational
 SAD guess density has 16.000000 electrons
 A restricted Hartree-Fock SCF calculation will be
 performed using Pulay DIIS extrapolation
 SCF converges when DIIS error is below 1.0E-08
 using 10 threads for integral computing
 -------------------------------------------------------
 OpenMP Integral computing Module                
 Release: version 1.0, May 2013, Q-Chem Inc. Pittsburgh 
 -------------------------------------------------------
 ---------------------------------------
  Cycle       Energy         DIIS Error
 ---------------------------------------
    1     -78.3938351014      9.91E-02
    2     -78.0166509141      7.12E-03
    3     -78.0370731160      1.82E-03
    4     -78.0385483029      5.63E-04
    5     -78.0386656229      5.84E-05
    6     -78.0386675142      9.39E-06
    7     -78.0386675774      1.97E-06
    8     -78.0386675802      1.75E-07
    9     -78.0386675802      2.71E-08
   10     -78.0386675802      9.81E-09 Convergence criterion met
 ---------------------------------------
 SCF time:  CPU 2.10 s  wall 2.39 s
 SCF   energy in the final basis set = -78.03866758
 Total energy in the final basis set = -78.03866758
Exporting Density Matrix to file 'Densmat_SCF.txt'.
Export successful
================================================================================
|                                                                              |
|                                 A D C  M A N                                 |
|                                                                              |
 ------------------------------------------------------------------------------ 
|                                                                              |
| Components:                                                                  |
|                                                                              |
| - libvmm - 1.3-trunk                                                         |
|   Authors:                                                                   |
|   Evgeny Epifanovsky, Ilya Kaliman                                           |
|                                                                              |
| - libtensor - 2.5-trunk                                                      |
|   Authors:                                                                   |
|   Evgeny Epifanovsky, Michael Wormit, Dmitry Zuev, Sam Manzer,               |
|   Ilya Kaliman                                                               |
|                                                                              |
| - libwfa - 1.1-trunk                                                         |
|   Authors:                                                                   |
|   Felix Plasser, Stefanie Mewes (Baeppler), Benjamin Thomitzni,              |
|   Michael Wormit, Feng Chen, Anna I. Krylov, Pavel Pokhilko                  |
|                                                                              |
| - libadc - 1.1-trunk                                                         |
|   Authors:                                                                   |
|   Michael Wormit, Adrian L. Dempwolff, Philipp H. P. Harbach,                |
|   Caroline Krauter, Dirk Rehn, Matthias Schneider, Jan Wenzel                |
|                                                                              |
| - adcman - 2.6-trunk                                                         |
|   Authors:                                                                   |
|   Michael Wormit, Adrian L. Dempwolff, Philipp H. P. Harbach,                |
|   Caroline Krauter, Daniel Lefrancois, Jan-Michael Mewes, Dirk Rehn,         |
|   Matthias Schneider, Jan Wenzel, Andreas Dreuw                              |
|                                                                              |
| Authors of earlier versions of ADCMAN:                                       |
| Andreas Dreuw, Jan Hendrik Starcke, Dirk Rehn, Michael Wormit                |
|                                                                              |
================================================================================

 Created directory /scratch/fum/qchem78175/plots
  Import QC data ...  CPU 0.00 s  wall 0.01 s

 Alpha MOs, Restricted
 -- Occupied --                  
-11.239 -11.238  -1.030  -0.785  -0.634  -0.582  -0.499  -0.375
  1 A     2 A     3 A     4 A     5 A     6 A     7 A     8 A                  
 -- Virtual --                   
  0.167   0.202   0.231   0.236   0.303   0.463   0.580   0.608
  9 A    10 A    11 A    12 A    13 A    14 A    15 A    16 A                  
  0.688   0.706   0.776   0.807   0.857   0.927   0.970   1.005
 17 A    18 A    19 A    20 A    21 A    22 A    23 A    24 A                  
  1.130   1.204   1.237   1.260   1.320   1.593   1.730   1.745
 25 A    26 A    27 A    28 A    29 A    30 A    31 A    32 A                  
  1.801   1.848   1.863   1.893   1.968   1.976   2.208   2.262
 33 A    34 A    35 A    36 A    37 A    38 A    39 A    40 A                  
  2.345   2.429   2.489   2.624   2.675   2.791   3.087   3.360
 41 A    42 A    43 A    44 A    45 A    46 A    47 A    48 A                  

 Beta MOs, Restricted
 -- Occupied --                  
-11.239 -11.238  -1.030  -0.785  -0.634  -0.582  -0.499  -0.375
  1 A     2 A     3 A     4 A     5 A     6 A     7 A     8 A                  
 -- Virtual --                   
  0.167   0.202   0.231   0.236   0.303   0.463   0.580   0.608
  9 A    10 A    11 A    12 A    13 A    14 A    15 A    16 A                  
  0.688   0.706   0.776   0.807   0.857   0.927   0.970   1.005
 17 A    18 A    19 A    20 A    21 A    22 A    23 A    24 A                  
  1.130   1.204   1.237   1.260   1.320   1.593   1.730   1.745
 25 A    26 A    27 A    28 A    29 A    30 A    31 A    32 A                  
  1.801   1.848   1.863   1.893   1.968   1.976   2.208   2.262
 33 A    34 A    35 A    36 A    37 A    38 A    39 A    40 A                  
  2.345   2.429   2.489   2.624   2.675   2.791   3.087   3.360
 41 A    42 A    43 A    44 A    45 A    46 A    47 A    48 A                  
  Import AO data ...  CPU 0.00 s  wall 0.02 s
  Using point group: C1
  Irreducible representations in point group: A
  Molecular orbitals: 
  Occupied MOs:
  Block   0:   1 (  A) A   2 (  A) A   3 (  A) A   4 (  A) A   5 (  A) A
                  -11.24      -11.24       -1.03     -0.7853     -0.6342
               6 (  A) A   7 (  A) A   8 (  A) A
                 -0.5824     -0.4986     -0.3745
  Block   1:   1 (  A) B   2 (  A) B   3 (  A) B   4 (  A) B   5 (  A) B
                  -11.24      -11.24       -1.03     -0.7853     -0.6342
               6 (  A) B   7 (  A) B   8 (  A) B
                 -0.5824     -0.4986     -0.3745
  Virtual MOs:
  Block   0:   9 (  A) A  10 (  A) A  11 (  A) A  12 (  A) A  13 (  A) A
                  0.1667      0.2024      0.2307      0.2365      0.3033
              14 (  A) A  15 (  A) A  16 (  A) A  17 (  A) A  18 (  A) A
                   0.463      0.5799      0.6081      0.6883      0.7055
              19 (  A) A  20 (  A) A  21 (  A) A  22 (  A) A
                  0.7764      0.8074      0.8571       0.927
  Block   1:  23 (  A) A  24 (  A) A  25 (  A) A  26 (  A) A  27 (  A) A
                  0.9704       1.005        1.13       1.204       1.237
              28 (  A) A  29 (  A) A  30 (  A) A  31 (  A) A  32 (  A) A
                    1.26        1.32       1.593        1.73       1.745
              33 (  A) A  34 (  A) A  35 (  A) A  36 (  A) A
                   1.801       1.848       1.863       1.893
  Block   2:  37 (  A) A  38 (  A) A  39 (  A) A  40 (  A) A  41 (  A) A
                   1.968       1.976       2.208       2.262       2.345
              42 (  A) A  43 (  A) A  44 (  A) A  45 (  A) A  46 (  A) A
                   2.429       2.489       2.624       2.675       2.791
              47 (  A) A  48 (  A) A
                   3.087        3.36
  Block   3:   9 (  A) B  10 (  A) B  11 (  A) B  12 (  A) B  13 (  A) B
                  0.1667      0.2024      0.2307      0.2365      0.3033
              14 (  A) B  15 (  A) B  16 (  A) B  17 (  A) B  18 (  A) B
                   0.463      0.5799      0.6081      0.6883      0.7055
              19 (  A) B  20 (  A) B  21 (  A) B  22 (  A) B
                  0.7764      0.8074      0.8571       0.927
  Block   4:  23 (  A) B  24 (  A) B  25 (  A) B  26 (  A) B  27 (  A) B
                  0.9704       1.005        1.13       1.204       1.237
              28 (  A) B  29 (  A) B  30 (  A) B  31 (  A) B  32 (  A) B
                    1.26        1.32       1.593        1.73       1.745
              33 (  A) B  34 (  A) B  35 (  A) B  36 (  A) B
                   1.801       1.848       1.863       1.893
  Block   5:  37 (  A) B  38 (  A) B  39 (  A) B  40 (  A) B  41 (  A) B
                   1.968       1.976       2.208       2.262       2.345
              42 (  A) B  43 (  A) B  44 (  A) B  45 (  A) B  46 (  A) B
                   2.429       2.489       2.624       2.675       2.791
              47 (  A) B  48 (  A) B
                   3.087        3.36
  Import MO data ...  CPU 0.01 s  wall 0.02 s
  Import HF data ...  CPU 1.26 s  wall 0.37 s
  Import 2e integrals ...  CPU 1.43 s  wall 0.25 s

--------------------------------------------------------------------------------
                                   HF Summary                                   
--------------------------------------------------------------------------------
  Energy:                                                  -78.0386675802 a.u.
  Dip. moment [a.u.]:                  [   0.003083,    0.003870,   -0.063723]
  Total dipole [Debye]:                                               0.162454
  <r^2> [a.u.]:                        [ 175.907280,   35.314433,   11.718335]
  Total <r^2> [a.u.]:                                               222.940048
--------------------------------------------------------------------------------
  HF properties ...  CPU 0.03 s  wall 0.02 s
  MP(1) calculation ...  CPU 0.01 s  wall 0.01 s
  N^6 prerequesite intermediates ...  CPU 0.66 s  wall 0.12 s
  Difference density matrix of state mp2_gs printed to ASCII file 'State_mp2_gs_Difference.txt'
Exporting MP density matrix to file 'Densmat_MP.txt'.
Export successful
  Total density matrix of state mp2_gs printed to ASCII file 'State_mp2_gs_Total.txt'
Exporting MP density matrix to file 'Densmat_MP.txt'.
Export successful

--------------------------------------------------------------------------------
                                 MP(2) Summary                                  
--------------------------------------------------------------------------------
  MP energy contribution:                                   -0.2806990029 a.u.
  Total energy:                                            -78.3193665831 a.u.
  Dip. moment [a.u.]:                  [   0.003013,    0.003789,   -0.062896]
  Total dipole [Debye]:                                               0.160337
  <r^2> [a.u.]:                        [ 175.946375,   35.349472,   11.545665]
  Total <r^2> [a.u.]:                                               222.841511

  Density matrix analysis:
  ------------------------
  NOs
    Occupation of frontier NOs:
       0.0457   1.9378
    Number of electrons: 16.000000
    Number of unpaired electrons: n_u =  0.40813, n_u,nl =  0.04603
    NO participation ratio (PR_NO): 13.885082
  
  
  Mulliken Population Analysis
  Atom      Charge (e)              h+              e-           Del q
  --------------------------------------------------------------------
   1 H        0.055545        0.013903       -0.011344        0.002558
   2 C       -0.111103        0.094862       -0.099981       -0.005119
   3 H        0.055560        0.013904       -0.011343        0.002560
   4 C       -0.111100        0.094861       -0.099980       -0.005119
   5 H        0.055555        0.013902       -0.011345        0.002558
   6 H        0.055544        0.013905       -0.011343        0.002562
  --------------------------------------------------------------------
  Sum:        0.000000        0.245336       -0.245336       -0.000000
  
  Multipole moment analysis of the density matrix
    Molecular charge:                      0.000000
    Number of electrons:                   16.000000
      Center of electronic charge [Ang]: [ -1.561731,  -0.065786,   0.011026]
    Total nuclear charge:                  16.000000
      Center of nuclear charge [Ang]:    [ -1.561632,  -0.065661,   0.008946]
    Dipole moment [D]:                     0.160337
      Cartesian components [D]:          [  0.007657,   0.009631,  -0.159865]
    RMS size of the density [Ang]:         1.206926
      Cartesian components [Ang]:        [  0.800231,   0.783805,   0.449386]
  
  Exciton analysis of the difference density matrix
    <r_h> [Ang]:                  [ -1.562263,  -0.066446,   0.021138]
    <r_e> [Ang]:                  [ -1.562111,  -0.066271,   0.019355]
    |<r_e - r_h>| [Ang]:            0.001799
    Hole size [Ang]:                1.402450
      Cartesian components [Ang]: [  0.853509,   0.840757,   0.729053]
    Electron size [Ang]:            1.361972
      Cartesian components [Ang]: [  0.879531,   0.864227,   0.578364]
--------------------------------------------------------------------------------
  MP(2) calculation ...  CPU 0.41 s  wall 0.24 s
  Start ADC(2)-s ...  CPU 0.02 s  wall 0.01 s
  ADC(2) intermediates ...  CPU 0.04 s  wall 0.01 s
  Starting Davidson for singlet states of irrep A ... 
--------------------------------------------------------------------------------
   It NVec Conv  Avg. Norm  Max. Norm  Conv. states           Remark
--------------------------------------------------------------------------------
        10    0  1.329e-01  4.684e-01  0.4117 n n n n n n n n Guess.
    1   20    0  2.333e-02  1.115e-01  0.3250 n n n n n n n n 
    2   30    0  5.990e-03  2.464e-02  0.3203 n n n n n n n n 
    3   40    0  1.912e-03  1.056e-02  0.3199 n n n n n n n n 
    4   50    0  5.297e-04  3.432e-03  0.3198 n n n n n n n n 
    5   20    0  2.510e-04  1.569e-03  0.3198 n n n n n n n n Subspace collapsed.
    6   30    0  1.095e-04  7.479e-04  0.3198 n n n n n n n n 
    7   40    0  8.829e-05  6.782e-04  0.3198 n n n n n n n n 
    8   50    0  3.203e-05  2.420e-04  0.3198 n n n n n n n n 
    9   20    0  1.661e-05  1.362e-04  0.3198 n n n n n n n n Subspace collapsed.
   10   30    0  1.230e-05  1.094e-04  0.3198 n n n n n n n n 
   11   40    4  5.753e-06  4.921e-05  0.3198 y n n y y y n n 
   12   50    5  1.802e-06  1.404e-05  0.3198 y n y y y y n n 
   13   20    6  9.939e-07  7.156e-06  0.3198 y n y y y y n y Subspace collapsed.
   14   30    7  6.904e-07  4.943e-06  0.3198 y y y y y y n y 
   15   40    7  4.659e-07  3.287e-06  0.3198 y y y y y y n y 
   16   50    7  4.120e-07  3.552e-06  0.3198 y y y y y y n y 
   17   20    9  1.908e-07  1.703e-06  0.3198 y y y y y y y y Subspace collapsed.
   18   30    9  1.700e-07  1.452e-06  0.3198 y y y y y y y y 
   19   40    9  1.157e-07  1.002e-06  0.3198 y y y y y y y y 
   20   50    9  1.343e-07  1.218e-06  0.3198 y y y y y y y y 
   21   20   10  8.071e-08  7.379e-07  0.3198 y y y y y y y y Converged.
--------------------------------------------------------------------------------
  Davidson Summary: 
 ------------------------------------------------------------
  State  0: excitation energy =   0.3198 a.u.   (converged)
  State  1: excitation energy =   0.3275 a.u.   (converged)
  State  2: excitation energy =   0.3358 a.u.   (converged)
  State  3: excitation energy =   0.3572 a.u.   (converged)
  State  4: excitation energy =   0.3731 a.u.   (converged)
  State  5: excitation energy =   0.3865 a.u.   (converged)
  State  6: excitation energy =   0.4192 a.u.   (converged)
  State  7: excitation energy =   0.4424 a.u.   (converged)
  State  8: excitation energy =   0.4535 a.u.   (converged)
  State  9: excitation energy =   0.4572 a.u.   (converged)
 ------------------------------------------------------------

  Singlet states of irrep A ...  CPU 150.89 s  wall 48.57 s
  TDMs ...  CPU 2.56 s  wall 0.94 s
  SDMs ...  CPU 5.28 s  wall 1.62 s
  Starting TPA DIIS iterations ... 
------------------------------------ 
   It     Res. Norm  Remark
------------------------------------
                       Guess.
    1     4.395e+00  
    2     5.835e+00  
    3     1.089e+00  
    4     2.683e-01  
    5     6.662e-02  
    6     2.881e-02  
    7     8.531e-03  
    8     1.835e-03  
    9     6.772e-04  
   10     1.102e-04  
   11     4.907e-05  
   12     1.128e-05  
   13     5.592e-06  
   14     1.790e-06  
   15     8.121e-07  Converged.
   ... Converged in 15 steps (norm: 8.12072e-07)
------------------------------------
  Starting TPA DIIS iterations ... 
------------------------------------ 
   It     Res. Norm  Remark
------------------------------------
                       Guess.
    1     4.185e+00  
    2     5.546e+00  
    3     1.039e+00  
    4     2.663e-01  
    5     6.636e-02  
    6     2.887e-02  
    7     8.398e-03  
    8     1.871e-03  
    9     6.856e-04  
   10     1.073e-04  
   11     4.905e-05  
   12     1.097e-05  
   13     5.623e-06  
   14     1.800e-06  
   15     7.887e-07  Converged.
   ... Converged in 15 steps (norm: 7.88659e-07)
------------------------------------
  Starting TPA DIIS iterations ... 
------------------------------------ 
   It     Res. Norm  Remark
------------------------------------
                       Guess.
    1     6.850e-01  
    2     4.796e-01  
    3     1.686e-01  
    4     6.442e-02  
    5     1.873e-02  
    6     6.711e-03  
    7     1.111e-03  
    8     4.582e-04  
    9     1.371e-04  
   10     2.469e-05  
   11     7.753e-06  
   12     2.402e-06  
   13     1.440e-06  
   14     6.135e-07  Converged.
   ... Converged in 14 steps (norm: 6.13539e-07)
------------------------------------
  Starting TPA DIIS iterations ... 
------------------------------------ 
   It     Res. Norm  Remark
------------------------------------
                       Guess.
    1     4.578e+00  
    2     6.165e+00  
    3     1.141e+00  
    4     2.875e-01  
    5     7.201e-02  
    6     3.136e-02  
    7     9.269e-03  
    8     2.013e-03  
    9     7.445e-04  
   10     1.203e-04  
   11     5.476e-05  
   12     1.281e-05  
   13     6.460e-06  
   14     2.093e-06  
   15     9.595e-07  Converged.
   ... Converged in 15 steps (norm: 9.5947e-07)
------------------------------------
  Starting TPA DIIS iterations ... 
------------------------------------ 
   It     Res. Norm  Remark
------------------------------------
                       Guess.
    1     4.359e+00  
    2     5.859e+00  
    3     1.089e+00  
    4     2.852e-01  
    5     7.173e-02  
    6     3.145e-02  
    7     9.126e-03  
    8     2.054e-03  
    9     7.535e-04  
   10     1.172e-04  
   11     5.472e-05  
   12     1.246e-05  
   13     6.498e-06  
   14     2.105e-06  
   15     9.311e-07  Converged.
   ... Converged in 15 steps (norm: 9.31129e-07)
------------------------------------
  Starting TPA DIIS iterations ... 
------------------------------------ 
   It     Res. Norm  Remark
------------------------------------
                       Guess.
    1     6.928e-01  
    2     4.907e-01  
    3     1.748e-01  
    4     6.983e-02  
    5     1.965e-02  
    6     7.103e-03  
    7     1.201e-03  
    8     5.072e-04  
    9     1.526e-04  
   10     2.626e-05  
   11     8.553e-06  
   12     2.677e-06  
   13     1.658e-06  
   14     7.281e-07  Converged.
   ... Converged in 14 steps (norm: 7.2812e-07)
------------------------------------
  Starting TPA DIIS iterations ... 
------------------------------------ 
   It     Res. Norm  Remark
------------------------------------
                       Guess.
    1     4.795e+00  
    2     6.558e+00  
    3     1.203e+00  
    4     3.108e-01  
    5     7.856e-02  
    6     3.449e-02  
    7     1.017e-02  
    8     2.234e-03  
    9     8.275e-04  
   10     1.328e-04  
   11     6.189e-05  
   12     1.477e-05  
   13     7.587e-06  
   14     2.492e-06  
   15     1.155e-06  
   16     3.850e-07  Converged.
   ... Converged in 16 steps (norm: 3.85011e-07)
------------------------------------
  Starting TPA DIIS iterations ... 
------------------------------------ 
   It     Res. Norm  Remark
------------------------------------
                       Guess.
    1     4.565e+00  
    2     6.233e+00  
    3     1.148e+00  
    4     3.081e-01  
    5     7.827e-02  
    6     3.460e-02  
    7     1.001e-02  
    8     2.281e-03  
    9     8.372e-04  
   10     1.292e-04  
   11     6.184e-05  
   12     1.437e-05  
   13     7.632e-06  
   14     2.507e-06  
   15     1.120e-06  
   16     3.673e-07  Converged.
   ... Converged in 16 steps (norm: 3.67333e-07)
------------------------------------
  Starting TPA DIIS iterations ... 
------------------------------------ 
   It     Res. Norm  Remark
------------------------------------
                       Guess.
    1     7.016e-01  
    2     5.034e-01  
    3     1.821e-01  
    4     7.649e-02  
    5     2.073e-02  
    6     7.576e-03  
    7     1.311e-03  
    8     5.684e-04  
    9     1.718e-04  
   10     2.797e-05  
   11     9.557e-06  
   12     3.025e-06  
   13     1.941e-06  
   14     8.812e-07  Converged.
   ... Converged in 14 steps (norm: 8.81213e-07)
------------------------------------
  Starting TPA DIIS iterations ... 
------------------------------------ 
   It     Res. Norm  Remark
------------------------------------
                       Guess.
    1     5.434e+00  
    2     7.750e+00  
    3     1.384e+00  
    4     3.838e-01  
    5     9.906e-02  
    6     4.441e-02  
    7     1.299e-02  
    8     2.952e-03  
    9     1.094e-03  
   10     1.723e-04  
   11     8.570e-05  
   12     2.154e-05  
   13     1.160e-05  
   14     3.953e-06  
   15     1.886e-06  
   16     5.894e-07  Converged.
   ... Converged in 16 steps (norm: 5.89382e-07)
------------------------------------
  Starting TPA DIIS iterations ... 
------------------------------------ 
   It     Res. Norm  Remark
------------------------------------
                       Guess.
    1     5.171e+00  
    2     7.365e+00  
    3     1.320e+00  
    4     3.798e-01  
    5     9.871e-02  
    6     4.463e-02  
    7     1.279e-02  
    8     3.021e-03  
    9     1.106e-03  
   10     1.678e-04  
   11     8.557e-05  
   12     2.097e-05  
   13     1.167e-05  
   14     3.978e-06  
   15     1.825e-06  
   16     5.610e-07  Converged.
   ... Converged in 16 steps (norm: 5.61014e-07)
------------------------------------
  Starting TPA DIIS iterations ... 
------------------------------------ 
   It     Res. Norm  Remark
------------------------------------
                       Guess.
    1     7.251e-01  
    2     5.389e-01  
    3     2.029e-01  
    4     9.787e-02  
    5     2.390e-02  
    6     9.055e-03  
    7     1.671e-03  
    8     7.655e-04  
    9     2.327e-04  
   10     3.273e-05  
   11     1.292e-05  
   12     4.203e-06  
   13     2.954e-06  
   14     1.447e-06  
   15     6.503e-07  Converged.
   ... Converged in 15 steps (norm: 6.50328e-07)
------------------------------------
  Starting TPA DIIS iterations ... 
------------------------------------ 
   It     Res. Norm  Remark
------------------------------------
                       Guess.
    1     6.001e+00  
    2     8.843e+00  
    3     1.544e+00  
    4     4.536e-01  
    5     1.186e-01  
    6     5.405e-02  
    7     1.568e-02  
    8     3.675e-03  
    9     1.357e-03  
   10     2.110e-04  
   11     1.102e-04  
   12     2.880e-05  
   13     1.605e-05  
   14     5.634e-06  
   15     2.745e-06  
   16     8.284e-07  Converged.
   ... Converged in 16 steps (norm: 8.28425e-07)
------------------------------------
  Starting TPA DIIS iterations ... 
------------------------------------ 
   It     Res. Norm  Remark
------------------------------------
                       Guess.
    1     5.709e+00  
    2     8.403e+00  
    3     1.472e+00  
    4     4.482e-01  
    5     1.182e-01  
    6     5.438e-02  
    7     1.546e-02  
    8     3.766e-03  
    9     1.369e-03  
   10     2.055e-04  
   11     1.100e-04  
   12     2.806e-05  
   13     1.614e-05  
   14     5.665e-06  
   15     2.651e-06  
   16     7.929e-07  Converged.
   ... Converged in 16 steps (norm: 7.92884e-07)
------------------------------------
  Starting TPA DIIS iterations ... 
------------------------------------ 
   It     Res. Norm  Remark
------------------------------------
                       Guess.
    1     7.435e-01  
    2     5.683e-01  
    3     2.207e-01  
    4     1.188e-01  
    5     2.675e-02  
    6     1.046e-02  
    7     2.030e-03  
    8     9.500e-04  
    9     2.896e-04  
   10     3.779e-05  
   11     1.642e-05  
   12     5.454e-06  
   13     4.087e-06  
   14     2.093e-06  
   15     9.616e-07  Converged.
   ... Converged in 15 steps (norm: 9.61597e-07)
------------------------------------
  Starting TPA DIIS iterations ... 
------------------------------------ 
   It     Res. Norm  Remark
------------------------------------
                       Guess.
    1     6.560e+00  
    2     9.952e+00  
    3     1.701e+00  
    4     5.265e-01  
    5     1.390e-01  
    6     6.426e-02  
    7     1.851e-02  
    8     4.466e-03  
    9     1.637e-03  
   10     2.524e-04  
   11     1.375e-04  
   12     3.713e-05  
   13     2.130e-05  
   14     7.674e-06  
   15     3.803e-06  
   16     1.143e-06  
   17     5.679e-07  Converged.
   ... Converged in 17 steps (norm: 5.67861e-07)
------------------------------------
  Starting TPA DIIS iterations ... 
------------------------------------ 
   It     Res. Norm  Remark
------------------------------------
                       Guess.
    1     6.240e+00  
    2     9.455e+00  
    3     1.621e+00  
    4     5.195e-01  
    5     1.386e-01  
    6     6.472e-02  
    7     1.824e-02  
    8     4.581e-03  
    9     1.650e-03  
   10     2.460e-04  
   11     1.371e-04  
   12     3.621e-05  
   13     2.139e-05  
   14     7.706e-06  
   15     3.671e-06  
   16     1.105e-06  
   17     5.602e-07  Converged.
   ... Converged in 17 steps (norm: 5.60221e-07)
------------------------------------
  Starting TPA DIIS iterations ... 
------------------------------------ 
   It     Res. Norm  Remark
------------------------------------
                       Guess.
    1     7.598e-01  
    2     5.957e-01  
    3     2.377e-01  
    4     1.409e-01  
    5     2.964e-02  
    6     1.194e-02  
    7     2.421e-03  
    8     1.129e-03  
    9     3.459e-04  
   10     4.462e-05  
   11     2.035e-05  
   12     6.897e-06  
   13     5.425e-06  
   14     2.860e-06  
   15     1.348e-06  
   16     5.275e-07  Converged.
   ... Converged in 16 steps (norm: 5.27455e-07)
------------------------------------
  Starting TPA DIIS iterations ... 
------------------------------------ 
   It     Res. Norm  Remark
------------------------------------
                       Guess.
    1     8.344e+00  
    2     1.367e+01  
    3     2.192e+00  
    4     7.824e-01  
    5     2.107e-01  
    6     1.012e-01  
    7     2.847e-02  
    8     7.511e-03  
    9     2.652e-03  
   10     4.052e-04  
   11     2.435e-04  
   12     7.153e-05  
   13     4.382e-05  
   14     1.700e-05  
   15     8.796e-06  
   16     2.939e-06  
   17     1.196e-06  
   18     4.293e-07  Converged.
   ... Converged in 18 steps (norm: 4.29331e-07)
------------------------------------
  Starting TPA DIIS iterations ... 
------------------------------------ 
   It     Res. Norm  Remark
------------------------------------
                       Guess.
    1     7.933e+00  
    2     1.299e+01  
    3     2.088e+00  
    4     7.691e-01  
    5     2.101e-01  
    6     1.022e-01  
    7     2.809e-02  
    8     7.712e-03  
    9     2.664e-03  
   10     3.957e-04  
   11     2.420e-04  
   12     6.996e-05  
   13     4.377e-05  
   14     1.698e-05  
   15     8.498e-06  
   16     2.899e-06  
   17     1.173e-06  
   18     4.211e-07  Converged.
   ... Converged in 18 steps (norm: 4.21069e-07)
------------------------------------
  Starting TPA DIIS iterations ... 
------------------------------------ 
   It     Res. Norm  Remark
------------------------------------
                       Guess.
    1     8.032e-01  
    2     6.749e-01  
    3     2.891e-01  
    4     2.179e-01  
    5     3.945e-02  
    6     1.706e-02  
    7     3.883e-03  
    8     1.593e-03  
    9     5.189e-04  
   10     7.897e-05  
   11     3.594e-05  
   12     1.315e-05  
   13     1.106e-05  
   14     6.169e-06  
   15     3.128e-06  
   16     1.248e-06  
   17     2.657e-07  Converged.
   ... Converged in 17 steps (norm: 2.65674e-07)
------------------------------------
  Starting TPA DIIS iterations ... 
------------------------------------ 
   It     Res. Norm  Remark
------------------------------------
                       Guess.
    1     1.014e+01  
    2     1.768e+01  
    3     2.676e+00  
    4     1.069e+00  
    5     2.915e-01  
    6     1.443e-01  
    7     3.978e-02  
    8     1.136e-02  
    9     3.828e-03  
   10     5.897e-04  
   11     3.770e-04  
   12     1.183e-04  
   13     7.520e-05  
   14     3.119e-05  
   15     1.667e-05  
   16     6.268e-06  
   17     2.169e-06  
   18     1.111e-06  
   19     3.729e-07  Converged.
   ... Converged in 19 steps (norm: 3.72906e-07)
------------------------------------
  Starting TPA DIIS iterations ... 
------------------------------------ 
   It     Res. Norm  Remark
------------------------------------
                       Guess.
    1     9.640e+00  
    2     1.680e+01  
    3     2.547e+00  
    4     1.047e+00  
    5     2.907e-01  
    6     1.460e-01  
    7     3.927e-02  
    8     1.166e-02  
    9     3.837e-03  
   10     5.767e-04  
   11     3.738e-04  
   12     1.160e-04  
   13     7.468e-05  
   14     3.097e-05  
   15     1.614e-05  
   16     6.167e-06  
   17     2.126e-06  
   18     1.098e-06  
   19     3.721e-07  Converged.
   ... Converged in 19 steps (norm: 3.72052e-07)
------------------------------------
  Starting TPA DIIS iterations ... 
------------------------------------ 
   It     Res. Norm  Remark
------------------------------------
                       Guess.
    1     8.377e-01  
    2     7.457e-01  
    3     3.373e-01  
    4     2.977e-01  
    5     5.006e-02  
    6     2.257e-02  
    7     5.607e-03  
    8     1.862e-03  
    9     6.814e-04  
   10     1.252e-04  
   11     5.585e-05  
   12     2.233e-05  
   13     1.843e-05  
   14     1.077e-05  
   15     5.757e-06  
   16     2.389e-06  
   17     4.769e-07  Converged.
   ... Converged in 17 steps (norm: 4.76941e-07)
------------------------------------
  Starting TPA DIIS iterations ... 
------------------------------------ 
   It     Res. Norm  Remark
------------------------------------
                       Guess.
    1     1.122e+01  
    2     2.019e+01  
    3     2.959e+00  
    4     1.250e+00  
    5     3.431e-01  
    6     1.725e-01  
    7     4.705e-02  
    8     1.401e-02  
    9     4.589e-03  
   10     7.131e-04  
   11     4.682e-04  
   12     1.520e-04  
   13     9.793e-05  
   14     4.211e-05  
   15     2.282e-05  
   16     9.074e-06  
   17     3.019e-06  
   18     1.803e-06  
   19     6.082e-07  Converged.
   ... Converged in 19 steps (norm: 6.08156e-07)
------------------------------------
  Starting TPA DIIS iterations ... 
------------------------------------ 
   It     Res. Norm  Remark
------------------------------------
                       Guess.
    1     1.066e+01  
    2     1.917e+01  
    3     2.816e+00  
    4     1.223e+00  
    5     3.423e-01  
    6     1.747e-01  
    7     4.647e-02  
    8     1.437e-02  
    9     4.595e-03  
   10     6.977e-04  
   11     4.637e-04  
   12     1.492e-04  
   13     9.695e-05  
   14     4.165e-05  
   15     2.211e-05  
   16     8.898e-06  
   17     2.960e-06  
   18     1.782e-06  
   19     6.030e-07  Converged.
   ... Converged in 19 steps (norm: 6.03e-07)
------------------------------------
  Starting TPA DIIS iterations ... 
------------------------------------ 
   It     Res. Norm  Remark
------------------------------------
                       Guess.
    1     8.553e-01  
    2     7.848e-01  
    3     3.647e-01  
    4     3.429e-01  
    5     5.664e-02  
    6     2.585e-02  
    7     6.714e-03  
    8     1.957e-03  
    9     7.744e-04  
   10     1.555e-04  
   11     6.949e-05  
   12     2.925e-05  
   13     2.358e-05  
   14     1.410e-05  
   15     7.719e-06  
   16     3.253e-06  
   17     6.211e-07  Converged.
   ... Converged in 17 steps (norm: 6.21075e-07)
------------------------------------
  Starting TPA DIIS iterations ... 
------------------------------------ 
   It     Res. Norm  Remark
------------------------------------
                       Guess.
    1     1.162e+01  
    2     2.115e+01  
    3     3.065e+00  
    4     1.320e+00  
    5     3.633e-01  
    6     1.836e-01  
    7     4.989e-02  
    8     1.508e-02  
    9     4.887e-03  
   10     7.620e-04  
   11     5.048e-04  
   12     1.658e-04  
   13     1.073e-04  
   14     4.672e-05  
   15     2.542e-05  
   16     1.030e-05  
   17     3.408e-06  
   18     2.136e-06  
   19     7.644e-07  Converged.
   ... Converged in 19 steps (norm: 7.64372e-07)
------------------------------------
  Starting TPA DIIS iterations ... 
------------------------------------ 
   It     Res. Norm  Remark
------------------------------------
                       Guess.
    1     1.104e+01  
    2     2.009e+01  
    3     2.917e+00  
    4     1.290e+00  
    5     3.623e-01  
    6     1.860e-01  
    7     4.928e-02  
    8     1.546e-02  
    9     4.891e-03  
   10     7.457e-04  
   11     4.998e-04  
   12     1.628e-04  
   13     1.061e-04  
   14     4.613e-05  
   15     2.463e-05  
   16     1.009e-05  
   17     3.340e-06  
   18     2.109e-06  
   19     7.496e-07  Converged.
   ... Converged in 19 steps (norm: 7.49643e-07)
------------------------------------
  Starting TPA DIIS iterations ... 
------------------------------------ 
   It     Res. Norm  Remark
------------------------------------
                       Guess.
    1     8.615e-01  
    2     7.991e-01  
    3     3.747e-01  
    4     3.592e-01  
    5     5.916e-02  
    6     2.707e-02  
    7     7.143e-03  
    8     1.985e-03  
    9     8.090e-04  
   10     1.673e-04  
   11     7.494e-05  
   12     3.214e-05  
   13     2.571e-05  
   14     1.546e-05  
   15     8.535e-06  
   16     3.611e-06  
   17     6.764e-07  Converged.
   ... Converged in 17 steps (norm: 6.76363e-07)
------------------------------------
  Two-photon absorbption ...  CPU 170.18 s  wall 47.25 s
  Transition density matrix of state singlet_A_1 printed to ASCII file 'State_singlet_A_1_Transition.txt'
  Transition density matrix of state singlet_A_2 printed to ASCII file 'State_singlet_A_2_Transition.txt'
  Transition density matrix of state singlet_A_3 printed to ASCII file 'State_singlet_A_3_Transition.txt'
  Transition density matrix of state singlet_A_4 printed to ASCII file 'State_singlet_A_4_Transition.txt'
  Transition density matrix of state singlet_A_5 printed to ASCII file 'State_singlet_A_5_Transition.txt'
  Transition density matrix of state singlet_A_6 printed to ASCII file 'State_singlet_A_6_Transition.txt'
  Transition density matrix of state singlet_A_7 printed to ASCII file 'State_singlet_A_7_Transition.txt'
  Transition density matrix of state singlet_A_8 printed to ASCII file 'State_singlet_A_8_Transition.txt'
  Transition density matrix of state singlet_A_9 printed to ASCII file 'State_singlet_A_9_Transition.txt'
  Transition density matrix of state singlet_A_10 printed to ASCII file 'State_singlet_A_10_Transition.txt'
  Transition properties ...  CPU 0.40 s  wall 0.54 s
  Difference density matrix of state singlet_A_1 printed to ASCII file 'State_singlet_A_1_Difference.txt'
  Total density matrix of state singlet_A_1 printed to ASCII file 'State_singlet_A_1_Total.txt'
  Difference density matrix of state singlet_A_2 printed to ASCII file 'State_singlet_A_2_Difference.txt'
  Total density matrix of state singlet_A_2 printed to ASCII file 'State_singlet_A_2_Total.txt'
  Difference density matrix of state singlet_A_3 printed to ASCII file 'State_singlet_A_3_Difference.txt'
  Total density matrix of state singlet_A_3 printed to ASCII file 'State_singlet_A_3_Total.txt'
  Difference density matrix of state singlet_A_4 printed to ASCII file 'State_singlet_A_4_Difference.txt'
  Total density matrix of state singlet_A_4 printed to ASCII file 'State_singlet_A_4_Total.txt'
  Difference density matrix of state singlet_A_5 printed to ASCII file 'State_singlet_A_5_Difference.txt'
  Total density matrix of state singlet_A_5 printed to ASCII file 'State_singlet_A_5_Total.txt'
  Difference density matrix of state singlet_A_6 printed to ASCII file 'State_singlet_A_6_Difference.txt'
  Total density matrix of state singlet_A_6 printed to ASCII file 'State_singlet_A_6_Total.txt'
  Difference density matrix of state singlet_A_7 printed to ASCII file 'State_singlet_A_7_Difference.txt'
  Total density matrix of state singlet_A_7 printed to ASCII file 'State_singlet_A_7_Total.txt'
  Difference density matrix of state singlet_A_8 printed to ASCII file 'State_singlet_A_8_Difference.txt'
  Total density matrix of state singlet_A_8 printed to ASCII file 'State_singlet_A_8_Total.txt'
  Difference density matrix of state singlet_A_9 printed to ASCII file 'State_singlet_A_9_Difference.txt'
  Total density matrix of state singlet_A_9 printed to ASCII file 'State_singlet_A_9_Total.txt'
  Difference density matrix of state singlet_A_10 printed to ASCII file 'State_singlet_A_10_Difference.txt'
  Total density matrix of state singlet_A_10 printed to ASCII file 'State_singlet_A_10_Total.txt'
  Properties ...  CPU 0.66 s  wall 0.86 s
  ISR TDMS ...  CPU 29.59 s  wall 9.52 s
  ISR transition properties ...  CPU 0.62 s  wall 0.28 s
  Sum-over-states TPA ...  CPU 0.00 s  wall 0.00 s

--------------------------------------------------------------------------------
                   State-averaged natural transition orbitals
--------------------------------------------------------------------------------
--------------------------------------------------------------------------------
  SA-NTO decomposition ...  CPU 0.01 s  wall 0.03 s

--------------------------------------------------------------------------------
                             Excited State Summary
--------------------------------------------------------------------------------
--------------------------------------------------------------------------------

  Excited state 1 (singlet, A)                                     [converged]
  ----------------------------------------------------------------------------
  Term symbol:  2 (1) A                                     R^2 =  4.01845e-11

  Total energy:                                            -77.9995189256 a.u.
  Excitation energy:                                               8.703497 eV

  Osc. strength:                                                      0.439226
  Trans. dip. moment [a.u.]:           [  -1.040730,    0.988250,    0.009738]
  <i|r^2|0> [a.u.]:                    [  -6.156232,    0.262027,   -0.003380]
  Two-photon absorption cross-section (SoS) [a.u.]:                   0.054774
  Two-photon absorption matrix (SoS) [a.u.]:
                                       |    0.004538    0.000873   -0.060052 |
                                       |    0.000873   -0.005660    0.056682 |
                                       |   -0.060052    0.056682    0.000990 |
  Two-photon absorption cross-section [a.u.]:                         0.201697
  Two-photon absorption matrix [a.u.]:
                                       |    0.008960    0.001489   -0.113796 |
                                       |    0.001489   -0.011463    0.110236 |
                                       |   -0.113796    0.110236    0.002334 |

  Dip. moment [a.u.]:                  [   0.003624,    0.004536,   -0.076287]
  Total dipole [Debye]:                                               0.194462
  <r^2> [a.u.]:                        [ 176.701923,   36.040941,   11.966357]
  Total <r^2> [a.u.]:                                               224.709221

  V1^2 = 0.9711, V2^2 = 0.0289

  Important amplitudes:
      occ i     occ j     vir a      vir b          v   
    -----------------------------------------------------
     8 (A) A              9 (A) A                -0.6801
     6 (A) A             14 (A) A                -0.0618
     4 (A) A             10 (A) A                 0.0609
     7 (A) A             16 (A) A                 0.0569
     5 (A) A             13 (A) A                 0.0525
     6 (A) A             23 (A) A                -0.0483
     8 (A) A             20 (A) A                -0.0340
     6 (A) A              9 (A) A                -0.0320
     6 (A) A             19 (A) A                -0.0300
     3 (A) A             12 (A) A                 0.0278
     5 (A) A             22 (A) A                -0.0217
     4 (A) A             24 (A) A                 0.0187
     3 (A) A             27 (A) A                -0.0186
     7 (A) A             11 (A) A                 0.0184
     8 (A) A   8 (A) B   17 (A) A   20 (A) B      0.0181
     8 (A) A   8 (A) B    9 (A) A   28 (A) B     -0.0166
     6 (A) A             27 (A) A                 0.0162
     7 (A) A             21 (A) A                 0.0150
     6 (A) A             12 (A) A                 0.0145
     3 (A) A             14 (A) A                 0.0143
     3 (A) A   4 (A) B    9 (A) A    9 (A) B     -0.0129
     3 (A) A             19 (A) A                 0.0121
     8 (A) A   8 (A) B   18 (A) A   19 (A) B     -0.0110
     3 (A) A              9 (A) A                 0.0108
     7 (A) A             32 (A) A                 0.0096
     7 (A) A             36 (A) A                 0.0083
     3 (A) A             23 (A) A                 0.0083
     8 (A) A             14 (A) A                -0.0070
     8 (A) A             19 (A) A                -0.0068
     3 (A) A   6 (A) B    9 (A) A   28 (A) B      0.0064
     6 (A) A             35 (A) A                 0.0063
     5 (A) A   8 (A) B   11 (A) A    9 (A) B     -0.0062
     8 (A) A   8 (A) B   25 (A) A   29 (A) B      0.0061
     7 (A) A   8 (A) B   13 (A) A   20 (A) B      0.0059
     5 (A) A   7 (A) B    9 (A) A    9 (A) B     -0.0059
     5 (A) A   8 (A) B   11 (A) A   20 (A) B      0.0059
     6 (A) A   8 (A) A   19 (A) A   28 (A) A      0.0059
     5 (A) A   8 (A) B   16 (A) A    9 (A) B      0.0059
     3 (A) A   5 (A) B    9 (A) A   25 (A) B      0.0058
     7 (A) A   8 (A) B   22 (A) A   20 (A) B     -0.0056
    -----------------------------------------------------

  Density matrix analysis:
  ------------------------
  NOs
    Occupation of frontier NOs:
       0.9498   1.0214
    Number of electrons: 16.000000
    Number of unpaired electrons: n_u =  2.31731, n_u,nl =  2.03331
    NO participation ratio (PR_NO):  2.871833
  
  
  Mulliken Population Analysis
  Atom      Charge (e)              h+              e-           Del q
  --------------------------------------------------------------------
   1 H        0.062783        0.020609       -0.013371        0.007238
   2 C       -0.125616        0.491285       -0.505797       -0.014512
   3 H        0.062838        0.020634       -0.013356        0.007278
   4 C       -0.125611        0.491285       -0.505796       -0.014511
   5 H        0.062826        0.020631       -0.013360        0.007272
   6 H        0.062780        0.020612       -0.013376        0.007236
  --------------------------------------------------------------------
  Sum:        0.000000        1.065057       -1.065057       -0.000000
  
  Multipole moment analysis of the density matrix
    Molecular charge:                      0.000000
    Number of electrons:                   16.000000
      Center of electronic charge [Ang]: [ -1.561752,  -0.065811,   0.011469]
    Total nuclear charge:                  16.000000
      Center of nuclear charge [Ang]:    [ -1.561632,  -0.065661,   0.008946]
    Dipole moment [D]:                     0.194462
      Cartesian components [D]:          [  0.009212,   0.011529,  -0.193901]
    RMS size of the density [Ang]:         1.220361
      Cartesian components [Ang]:        [  0.808412,   0.791486,   0.457494]
  
  Exciton analysis of the difference density matrix
    <r_h> [Ang]:                  [ -1.563178,  -0.067612,   0.041945]
    <r_e> [Ang]:                  [ -1.563482,  -0.067983,   0.048599]
    |<r_e - r_h>| [Ang]:            0.006671
    Hole size [Ang]:                1.288436
      Cartesian components [Ang]: [  0.732787,   0.717426,   0.779994]
    Electron size [Ang]:            1.466127
      Cartesian components [Ang]: [  0.857133,   0.834537,   0.847584]

  Transition density matrix analysis:
  -----------------------------------
  
  CT numbers (Mulliken)
    omega =     0.9528
    <Phe> =    -0.1603
  
  Exciton analysis of the transition density matrix
    Trans. dipole moment [D]:             1.823980
      Cartesian components [D]:         [ -1.322635,   1.255940,   0.012376]
    <r_h> [Ang]:                        [ -1.562893,  -0.067258,   0.036213]
    <r_e> [Ang]:                        [ -1.563743,  -0.068309,   0.053936]
    |<r_e - r_h>| [Ang]:                  0.017774
    Hole size [Ang]:                      1.214955
      Cartesian components [Ang]:       [  0.652180,   0.639426,   0.801194]
    Electron size [Ang]:                  1.489783
      Cartesian components [Ang]:       [  0.868048,   0.843896,   0.868208]
    RMS electron-hole separation [Ang]:   1.940389
      Cartesian components [Ang]:       [  1.111041,   1.080708,   1.167377]
    Covariance(r_h, r_e) [Ang^2]:        -0.034613
    Correlation coefficient:             -0.019123
    Center-of-mass size [Ang]:            0.952148
      Cartesian components [Ang]:       [  0.529925,   0.518200,   0.597691]

  Decomposition into state-averaged NTOs
    H- 0 -> L+ 0: -0.6688 ( 89.5%)
    H- 2 -> L+ 5:  0.0825 (  1.4%)
                   omega =  95.3%
  ----------------------------------------------------------------------------


  Excited state 2 (singlet, A)                                     [converged]
  ----------------------------------------------------------------------------
  Term symbol:  3 (1) A                                     R^2 =  8.88057e-10

  Total energy:                                            -77.9918989898 a.u.
  Excitation energy:                                               8.910846 eV

  Osc. strength:                                                      0.000482
  Trans. dip. moment [a.u.]:           [  -0.029402,   -0.036375,   -0.004450]
  <i|r^2|0> [a.u.]:                    [  -0.107608,    0.078216,   -0.152750]
  Two-photon absorption cross-section (SoS) [a.u.]:                   3.851021
  Two-photon absorption matrix (SoS) [a.u.]:
                                       |    0.045652    0.052965   -0.472155 |
                                       |    0.052965    0.060631   -0.497014 |
                                       |   -0.472155   -0.497014   -0.107132 |
  Two-photon absorption cross-section [a.u.]:                         0.205275
  Two-photon absorption matrix [a.u.]:
                                       |   -0.011279   -0.011998    0.109529 |
                                       |   -0.011998   -0.013856    0.114336 |
                                       |    0.109529    0.114336    0.023926 |

  Dip. moment [a.u.]:                  [   0.007407,    0.009241,   -0.143168]
  Total dipole [Debye]:                                               0.365139
  <r^2> [a.u.]:                        [ 175.032788,   34.363224,   13.263321]
  Total <r^2> [a.u.]:                                               222.659334

  V1^2 = 0.9539, V2^2 = 0.0461

  Important amplitudes:
      occ i     occ j     vir a      vir b          v   
    -----------------------------------------------------
     7 (A) A              9 (A) A                 0.6692
     8 (A) A             11 (A) A                -0.1462
     7 (A) A             20 (A) A                 0.0751
     5 (A) A   8 (A) B    9 (A) A    9 (A) B      0.0315
     8 (A) A             16 (A) A                 0.0274
     7 (A) A             12 (A) A                -0.0232
     8 (A) A             21 (A) A                -0.0172
     5 (A) A             28 (A) A                -0.0150
     4 (A) A   7 (A) B    9 (A) A   19 (A) B     -0.0135
     5 (A) A   7 (A) B    9 (A) A   16 (A) B      0.0134
     7 (A) A   8 (A) B   20 (A) A   17 (A) B     -0.0105
     7 (A) A   8 (A) A    9 (A) A   28 (A) A     -0.0098
     5 (A) A   8 (A) B    9 (A) A   20 (A) B      0.0095
     4 (A) A   6 (A) B    9 (A) A   16 (A) B      0.0091
     5 (A) A   6 (A) A    9 (A) A   23 (A) A     -0.0090
     5 (A) A   6 (A) A    9 (A) A   14 (A) A     -0.0089
     4 (A) A   5 (A) A    9 (A) A   10 (A) A     -0.0085
     8 (A) A   7 (A) B    9 (A) A   28 (A) B      0.0085
     5 (A) A   6 (A) B    9 (A) A   19 (A) B     -0.0085
     6 (A) A   7 (A) B    9 (A) A   18 (A) B      0.0084
     5 (A) A   6 (A) B    9 (A) A   23 (A) B     -0.0080
     3 (A) A   7 (A) B    9 (A) A   18 (A) B      0.0080
     5 (A) A   7 (A) A    9 (A) A   16 (A) A      0.0078
     4 (A) A   8 (A) B    9 (A) A   25 (A) B     -0.0076
     7 (A) A             14 (A) A                 0.0075
     4 (A) A   7 (A) B   19 (A) A    9 (A) B     -0.0075
     7 (A) A   8 (A) B   17 (A) A   20 (A) B     -0.0074
     5 (A) A   5 (A) B    9 (A) A   13 (A) B      0.0073
     7 (A) A   8 (A) B   19 (A) A   18 (A) B      0.0070
     5 (A) A   8 (A) A    9 (A) A   20 (A) A      0.0069
     4 (A) A   5 (A) B    9 (A) A   18 (A) B      0.0069
     7 (A) A             19 (A) A                 0.0066
     7 (A) A   7 (A) B   20 (A) A   22 (A) B      0.0065
     5 (A) A   6 (A) B    9 (A) A   14 (A) B     -0.0063
     7 (A) A   8 (A) B   17 (A) A    9 (A) B     -0.0063
     5 (A) A   7 (A) B   11 (A) A   20 (A) B     -0.0061
     4 (A) A   5 (A) B   10 (A) A    9 (A) B      0.0061
     4 (A) A   7 (A) A    9 (A) A   19 (A) A     -0.0061
     5 (A) A             38 (A) A                 0.0059
     4 (A) A   6 (A) B   16 (A) A    9 (A) B      0.0058
    -----------------------------------------------------

  Density matrix analysis:
  ------------------------
  NOs
    Occupation of frontier NOs:
       0.9593   1.0521
    Number of electrons: 16.000000
    Number of unpaired electrons: n_u =  2.35896, n_u,nl =  2.06284
    NO participation ratio (PR_NO):  3.027822
  
  
  Mulliken Population Analysis
  Atom      Charge (e)              h+              e-           Del q
  --------------------------------------------------------------------
   1 H        0.156542        0.125224       -0.024227        0.100997
   2 C       -0.312706        0.272884       -0.474487       -0.201603
   3 H        0.156160        0.125431       -0.024831        0.100600
   4 C       -0.312699        0.272892       -0.474491       -0.201599
   5 H        0.156458        0.125182       -0.024278        0.100903
   6 H        0.156246        0.125481       -0.024779        0.100702
  --------------------------------------------------------------------
  Sum:        0.000000        1.047093       -1.047093       -0.000000
  
  Multipole moment analysis of the density matrix
    Molecular charge:                      0.000000
    Number of electrons:                   16.000000
      Center of electronic charge [Ang]: [ -1.561877,  -0.065966,   0.013681]
    Total nuclear charge:                  16.000000
      Center of nuclear charge [Ang]:    [ -1.561632,  -0.065661,   0.008946]
    Dipole moment [D]:                     0.365139
      Cartesian components [D]:          [  0.018826,   0.023488,  -0.363896]
    RMS size of the density [Ang]:         1.205379
      Cartesian components [Ang]:        [  0.789890,   0.772701,   0.481606]
  
  Exciton analysis of the difference density matrix
    <r_h> [Ang]:                  [ -1.561692,  -0.065629,   0.001300]
    <r_e> [Ang]:                  [ -1.563913,  -0.068384,   0.041868]
    |<r_e - r_h>| [Ang]:            0.040722
    Hole size [Ang]:                1.497039
      Cartesian components [Ang]: [  1.014747,   1.001933,   0.455573]
    Electron size [Ang]:            1.477615
      Cartesian components [Ang]: [  0.882296,   0.860084,   0.815571]

  Transition density matrix analysis:
  -----------------------------------
  
  CT numbers (Mulliken)
    omega =     0.9211
    <Phe> =    -0.0118
  
  Exciton analysis of the transition density matrix
    Trans. dipole moment [D]:             0.059710
      Cartesian components [D]:         [ -0.037366,  -0.046228,  -0.005656]
    <r_h> [Ang]:                        [ -1.561300,  -0.065122,  -0.007808]
    <r_e> [Ang]:                        [ -1.564385,  -0.068981,   0.051761]
    |<r_e - r_h>| [Ang]:                  0.059774
    Hole size [Ang]:                      1.528899
      Cartesian components [Ang]:       [  1.040360,   1.027487,   0.446603]
    Electron size [Ang]:                  1.472598
      Cartesian components [Ang]:       [  0.870878,   0.847881,   0.831393]
    RMS electron-hole separation [Ang]:   2.103760
      Cartesian components [Ang]:       [  1.340745,   1.317143,   0.945169]
    Covariance(r_h, r_e) [Ang^2]:         0.041922
    Correlation coefficient:              0.018620
    Center-of-mass size [Ang]:            1.071205
      Cartesian components [Ang]:       [  0.686289,   0.673501,   0.472107]

  Decomposition into state-averaged NTOs
    H- 1 -> L+ 0:  0.6618 ( 87.6%)
    H- 0 -> L+ 2:  0.1461 (  4.3%)
                   omega =  92.1%
  ----------------------------------------------------------------------------


  Excited state 3 (singlet, A)                                     [converged]
  ----------------------------------------------------------------------------
  Term symbol:  4 (1) A                                     R^2 =  8.68620e-11

  Total energy:                                            -77.9835421342 a.u.
  Excitation energy:                                               9.138248 eV

  Osc. strength:                                                      0.023433
  Trans. dip. moment [a.u.]:           [   0.015633,    0.019535,   -0.322553]
  <i|r^2|0> [a.u.]:                    [   0.136150,    0.052445,   -0.012923]
  Two-photon absorption cross-section (SoS) [a.u.]:                   2.626414
  Two-photon absorption matrix (SoS) [a.u.]:
                                       |   -0.118308    0.029228    0.015752 |
                                       |    0.029228   -0.102040    0.021516 |
                                       |    0.015752    0.021516   -0.565758 |
  Two-photon absorption cross-section [a.u.]:                         3.281245
  Two-photon absorption matrix [a.u.]:
                                       |   -0.327031    0.114471    0.001489 |
                                       |    0.114471   -0.305392    0.001280 |
                                       |    0.001489    0.001280   -0.343305 |

  Dip. moment [a.u.]:                  [   0.002854,    0.002342,    0.084577]
  Total dipole [Debye]:                                               0.215178
  <r^2> [a.u.]:                        [ 181.453439,   41.007743,   11.108242]
  Total <r^2> [a.u.]:                                               233.569424

  V1^2 = 0.9579, V2^2 = 0.0421

  Important amplitudes:
      occ i     occ j     vir a      vir b          v   
    -----------------------------------------------------
     8 (A) A             10 (A) A                 0.6887
     8 (A) A             24 (A) A                 0.0507
     8 (A) A             18 (A) A                -0.0330
     4 (A) A              9 (A) A                -0.0247
     8 (A) A   8 (A) B    9 (A) A   12 (A) B     -0.0220
     8 (A) A   8 (A) B   10 (A) A   17 (A) B      0.0170
     5 (A) A   8 (A) B   11 (A) A   10 (A) B      0.0170
     8 (A) A             15 (A) A                 0.0146
     7 (A) A   8 (A) B   13 (A) A   10 (A) B      0.0144
     4 (A) A   8 (A) B   12 (A) A   10 (A) B      0.0112
     6 (A) A   8 (A) A   10 (A) A   15 (A) A      0.0112
     7 (A) A   8 (A) B   22 (A) A   10 (A) B     -0.0109
     6 (A) A   8 (A) B   15 (A) A   10 (A) B     -0.0109
     4 (A) A   8 (A) A   10 (A) A   12 (A) A     -0.0108
     7 (A) A   8 (A) A   10 (A) A   22 (A) A      0.0099
     7 (A) A   8 (A) A   10 (A) A   13 (A) A     -0.0099
     5 (A) A   8 (A) A   10 (A) A   11 (A) A     -0.0098
     5 (A) A   8 (A) B   21 (A) A   10 (A) B      0.0094
     6 (A) A   8 (A) B   10 (A) A   10 (A) B      0.0090
     6 (A) A   8 (A) A   10 (A) A   18 (A) A      0.0084
     7 (A) A   8 (A) A   12 (A) A   16 (A) A      0.0083
     3 (A) A   4 (A) B   10 (A) A    9 (A) B      0.0079
     5 (A) A   8 (A) A   10 (A) A   21 (A) A     -0.0079
     8 (A) A   8 (A) B    9 (A) A   23 (A) B      0.0075
     4 (A) A   8 (A) B   19 (A) A   10 (A) B      0.0075
     8 (A) A   8 (A) B   10 (A) A   28 (A) B      0.0073
     5 (A) A   8 (A) B   10 (A) A   11 (A) B      0.0072
     3 (A) A   8 (A) A   10 (A) A   24 (A) A     -0.0072
     7 (A) A   8 (A) B   16 (A) A   12 (A) B     -0.0072
     3 (A) A   8 (A) B   10 (A) A   10 (A) B      0.0071
     8 (A) A   8 (A) B    9 (A) A   19 (A) B     -0.0070
     3 (A) A   8 (A) B   10 (A) A   18 (A) B     -0.0066
     6 (A) A   8 (A) B   18 (A) A   10 (A) B     -0.0064
     3 (A) A   6 (A) B   10 (A) A   28 (A) B     -0.0061
     7 (A) A   8 (A) B   12 (A) A   11 (A) B      0.0059
     6 (A) A             28 (A) A                 0.0057
     5 (A) A   8 (A) A   10 (A) A   16 (A) A      0.0057
     3 (A) A   5 (A) B   10 (A) A   25 (A) B     -0.0056
     6 (A) A   8 (A) A   11 (A) A   16 (A) A      0.0055
     4 (A) A   8 (A) A   10 (A) A   23 (A) A      0.0055
    -----------------------------------------------------

  Density matrix analysis:
  ------------------------
  NOs
    Occupation of frontier NOs:
       0.9803   0.9855
    Number of electrons: 16.000000
    Number of unpaired electrons: n_u =  2.28930, n_u,nl =  2.02516
    NO participation ratio (PR_NO):  2.702949
  
  
  Mulliken Population Analysis
  Atom      Charge (e)              h+              e-           Del q
  --------------------------------------------------------------------
   1 H       -0.152982        0.054463       -0.262990       -0.208527
   2 C        0.308254        0.538009       -0.118652        0.419357
   3 H       -0.155291        0.054415       -0.265267       -0.210851
   4 C        0.308247        0.537993       -0.118646        0.419348
   5 H       -0.152942        0.054466       -0.262963       -0.208496
   6 H       -0.155286        0.054414       -0.265244       -0.210829
  --------------------------------------------------------------------
  Sum:        0.000000        1.293761       -1.293761       -0.000000
  
  Multipole moment analysis of the density matrix
    Molecular charge:                      0.000000
    Number of electrons:                   16.000000
      Center of electronic charge [Ang]: [ -1.561726,  -0.065738,   0.006149]
    Total nuclear charge:                  16.000000
      Center of nuclear charge [Ang]:    [ -1.561632,  -0.065661,   0.008946]
    Dipole moment [D]:                     0.215178
      Cartesian components [D]:          [  0.007254,   0.005952,   0.214973]
    RMS size of the density [Ang]:         1.282394
      Cartesian components [Ang]:        [  0.858353,   0.844622,   0.440881]
  
  Exciton analysis of the difference density matrix
    <r_h> [Ang]:                  [ -1.562623,  -0.066900,   0.028025]
    <r_e> [Ang]:                  [ -1.562558,  -0.066308,  -0.032294]
    |<r_e - r_h>| [Ang]:            0.060323
    Hole size [Ang]:                1.413592
      Cartesian components [Ang]: [  0.837418,   0.823497,   0.786656]
    Electron size [Ang]:            2.078527
      Cartesian components [Ang]: [  1.376027,   1.379468,   0.723803]

  Transition density matrix analysis:
  -----------------------------------
  
  CT numbers (Mulliken)
    omega =     0.9248
    <Phe> =    -0.0110
  
  Exciton analysis of the transition density matrix
    Trans. dipole moment [D]:             0.411156
      Cartesian components [D]:         [  0.019868,   0.024827,  -0.409924]
    <r_h> [Ang]:                        [ -1.563219,  -0.067689,   0.045308]
    <r_e> [Ang]:                        [ -1.562784,  -0.066413,  -0.048647]
    |<r_e - r_h>| [Ang]:                  0.093965
    Hole size [Ang]:                      1.213229
      Cartesian components [Ang]:       [  0.637722,   0.625079,   0.821287]
    Electron size [Ang]:                  2.300868
      Cartesian components [Ang]:       [  1.522474,   1.528584,   0.799686]
    RMS electron-hole separation [Ang]:   2.592681
      Cartesian components [Ang]:       [  1.642948,   1.644256,   1.148538]
    Covariance(r_h, r_e) [Ang^2]:         0.026377
    Correlation coefficient:              0.009449
    Center-of-mass size [Ang]:            1.305630
      Cartesian components [Ang]:       [  0.829149,   0.829309,   0.573958]

  Decomposition into state-averaged NTOs
    H- 0 -> L+ 1: -0.6793 ( 92.3%)
                   omega =  92.5%
  ----------------------------------------------------------------------------


  Excited state 4 (singlet, A)                                     [converged]
  ----------------------------------------------------------------------------
  Term symbol:  5 (1) A                                     R^2 =  4.39382e-11

  Total energy:                                            -77.9621203483 a.u.
  Excitation energy:                                               9.721164 eV

  Osc. strength:                                                      0.000012
  Trans. dip. moment [a.u.]:           [  -0.003876,   -0.005737,   -0.001554]
  <i|r^2|0> [a.u.]:                    [  -0.036183,   -0.019174,    0.031307]
  Two-photon absorption cross-section (SoS) [a.u.]:                 133.740608
  Two-photon absorption matrix (SoS) [a.u.]:
                                       |   -0.269083   -0.310508    2.785021 |
                                       |   -0.310508   -0.356611    2.927598 |
                                       |    2.785021    2.927598    0.623211 |
  Two-photon absorption cross-section [a.u.]:                        78.811821
  Two-photon absorption matrix [a.u.]:
                                       |   -0.207187   -0.237847    2.137863 |
                                       |   -0.237847   -0.275061    2.247349 |
                                       |    2.137863    2.247349    0.478696 |

  Dip. moment [a.u.]:                  [  -0.012326,   -0.013784,    0.086383]
  Total dipole [Debye]:                                               0.224538
  <r^2> [a.u.]:                        [ 181.472949,   41.007478,   10.826921]
  Total <r^2> [a.u.]:                                               233.307348

  V1^2 = 0.9633, V2^2 = 0.0367

  Important amplitudes:
      occ i     occ j     vir a      vir b          v   
    -----------------------------------------------------
     8 (A) A             11 (A) A                 0.6698
     7 (A) A              9 (A) A                 0.1483
     8 (A) A             21 (A) A                 0.0780
     8 (A) A             16 (A) A                -0.0678
     8 (A) A   8 (A) B    9 (A) A   13 (A) B     -0.0167
     5 (A) A   8 (A) B   11 (A) A   11 (A) B      0.0157
     8 (A) A   8 (A) B   11 (A) A   17 (A) B      0.0136
     7 (A) A             20 (A) A                 0.0132
     7 (A) A   8 (A) B   13 (A) A   11 (A) B      0.0127
     8 (A) A   8 (A) B    9 (A) A   22 (A) B      0.0110
     4 (A) A   8 (A) B   12 (A) A   11 (A) B      0.0110
     5 (A) A   8 (A) A   11 (A) A   21 (A) A     -0.0110
     7 (A) A   8 (A) A   11 (A) A   22 (A) A      0.0095
     6 (A) A   8 (A) B   10 (A) A   11 (A) B      0.0091
     6 (A) A   8 (A) B   15 (A) A   11 (A) B     -0.0089
     7 (A) A   8 (A) B   22 (A) A   11 (A) B     -0.0089
     3 (A) A   4 (A) B   11 (A) A    9 (A) B      0.0083
     7 (A) A   8 (A) A   13 (A) A   16 (A) A      0.0079
     6 (A) A   8 (A) A   11 (A) A   15 (A) A      0.0079
     3 (A) A   8 (A) B   11 (A) A   18 (A) B     -0.0079
     7 (A) A   8 (A) A   11 (A) A   13 (A) A     -0.0075
     6 (A) A             11 (A) A                 0.0073
     4 (A) A   8 (A) B   19 (A) A   11 (A) B      0.0069
     5 (A) A   8 (A) B   21 (A) A   11 (A) B      0.0069
     5 (A) A   8 (A) B    9 (A) A    9 (A) B      0.0066
     4 (A) A   8 (A) A   11 (A) A   12 (A) A     -0.0062
     3 (A) A   6 (A) B   11 (A) A   28 (A) B     -0.0060
     6 (A) A   8 (A) A   11 (A) A   18 (A) A      0.0058
     6 (A) A   8 (A) B   18 (A) A   11 (A) B     -0.0057
     3 (A) A   8 (A) B   11 (A) A   30 (A) B     -0.0057
     7 (A) A   8 (A) B   16 (A) A   13 (A) B     -0.0057
     5 (A) A   8 (A) B   10 (A) A   10 (A) B      0.0055
     6 (A) A   8 (A) B   11 (A) A   10 (A) B      0.0055
     8 (A) A   8 (A) B   20 (A) A   22 (A) B      0.0055
     7 (A) A   8 (A) B   12 (A) A   10 (A) B      0.0055
     3 (A) A   5 (A) B   11 (A) A   25 (A) B     -0.0054
     3 (A) A   8 (A) A   11 (A) A   18 (A) A     -0.0053
     3 (A) A   8 (A) A   11 (A) A   24 (A) A     -0.0053
     5 (A) A   8 (A) A   11 (A) A   16 (A) A      0.0049
     6 (A) A   8 (A) A   10 (A) A   16 (A) A      0.0047
    -----------------------------------------------------

  Density matrix analysis:
  ------------------------
  NOs
    Occupation of frontier NOs:
       0.9418   1.0263
    Number of electrons: 16.000000
    Number of unpaired electrons: n_u =  2.32276, n_u,nl =  2.04903
    NO participation ratio (PR_NO):  2.915888
  
  
  Mulliken Population Analysis
  Atom      Charge (e)              h+              e-           Del q
  --------------------------------------------------------------------
   1 H       -0.126420        0.045653       -0.227618       -0.181965
   2 C        0.250045        0.496777       -0.135629        0.361148
   3 H       -0.123629        0.045609       -0.224798       -0.179188
   4 C        0.250043        0.496774       -0.135630        0.361143
   5 H       -0.126660        0.045640       -0.227854       -0.182214
   6 H       -0.123379        0.045623       -0.224547       -0.178923
  --------------------------------------------------------------------
  Sum:        0.000000        1.176076       -1.176076       -0.000000
  
  Multipole moment analysis of the density matrix
    Molecular charge:                      0.000000
    Number of electrons:                   16.000000
      Center of electronic charge [Ang]: [ -1.561224,  -0.065205,   0.006089]
    Total nuclear charge:                  16.000000
      Center of nuclear charge [Ang]:    [ -1.561632,  -0.065661,   0.008946]
    Dipole moment [D]:                     0.224538
      Cartesian components [D]:          [ -0.031330,  -0.035036,   0.219563]
    RMS size of the density [Ang]:         1.281244
      Cartesian components [Ang]:        [  0.859465,   0.844661,   0.435262]
  
  Exciton analysis of the difference density matrix
    <r_h> [Ang]:                  [ -1.562447,  -0.066740,   0.031356]
    <r_e> [Ang]:                  [ -1.555546,  -0.058833,  -0.035813]
    |<r_e - r_h>| [Ang]:            0.067983
    Hole size [Ang]:                1.394344
      Cartesian components [Ang]: [  0.819240,   0.805911,   0.789651]
    Electron size [Ang]:            2.111484
      Cartesian components [Ang]: [  1.417241,   1.413393,   0.672394]

  Transition density matrix analysis:
  -----------------------------------
  
  CT numbers (Mulliken)
    omega =     0.9291
    <Phe> =    -0.0145
  
  Exciton analysis of the transition density matrix
    Trans. dipole moment [D]:             0.009018
      Cartesian components [D]:         [ -0.004926,  -0.007291,  -0.001975]
    <r_h> [Ang]:                        [ -1.563240,  -0.067684,   0.042907]
    <r_e> [Ang]:                        [ -1.554365,  -0.057501,  -0.045118]
    |<r_e - r_h>| [Ang]:                  0.089056
    Hole size [Ang]:                      1.228562
      Cartesian components [Ang]:       [  0.661760,   0.649176,   0.806232]
    Electron size [Ang]:                  2.246074
      Cartesian components [Ang]:       [  1.507514,   1.504716,   0.712796]
    RMS electron-hole separation [Ang]:   2.550504
      Cartesian components [Ang]:       [  1.637434,   1.630509,   1.079500]
    Covariance(r_h, r_e) [Ang^2]:         0.028537
    Correlation coefficient:              0.010342
    Center-of-mass size [Ang]:            1.285621
      Cartesian components [Ang]:       [  0.827638,   0.823521,   0.538193]

  Decomposition into state-averaged NTOs
    H- 0 -> L+ 2: -0.6652 ( 88.5%)
    H- 1 -> L+ 0:  0.1463 (  4.3%)
                   omega =  92.9%
  ----------------------------------------------------------------------------


  Excited state 5 (singlet, A)                                     [converged]
  ----------------------------------------------------------------------------
  Term symbol:  6 (1) A                                     R^2 =  1.79343e-10

  Total energy:                                            -77.9462956820 a.u.
  Excitation energy:                                              10.151776 eV

  Osc. strength:                                                      0.000306
  Trans. dip. moment [a.u.]:           [  -0.025321,    0.024290,    0.000262]
  <i|r^2|0> [a.u.]:                    [  -0.231841,    0.104433,   -0.015990]
  Two-photon absorption cross-section (SoS) [a.u.]:                 215.843930
  Two-photon absorption matrix (SoS) [a.u.]:
                                       |   -0.360710   -0.056020    3.758251 |
                                       |   -0.056020    0.431037   -3.562656 |
                                       |    3.758251   -3.562656   -0.069741 |
  Two-photon absorption cross-section [a.u.]:                       110.000910
  Two-photon absorption matrix [a.u.]:
                                       |   -0.257513   -0.039779    2.682983 |
                                       |   -0.039779    0.308386   -2.543262 |
                                       |    2.682983   -2.543262   -0.049839 |

  Dip. moment [a.u.]:                  [  -0.000451,   -0.000568,   -0.006370]
  Total dipole [Debye]:                                               0.016296
  <r^2> [a.u.]:                        [ 180.256583,   39.593199,   11.689571]
[...]
    16   -2.574563304087e-04
    17   -2.820342760180e-03
    18   -1.166876804772e-05
    19   -2.898729810105e-03
    20    1.166913592530e-02
    21    9.279069372027e-01
    22   -5.301758190284e-04
    23    1.362951639348e-02
    24    1.462101327111e-03
    25    7.034754166643e-02
    26   -5.219389450523e-02
    27   -1.380704714793e+00
    28    9.970848608077e-02
    29   -9.515114016624e-02
    30    8.829877374848e-03
    31    3.833765647022e-01
    32   -3.661652410165e-01
    33    3.378717296056e-02
    34    1.489540395053e-02
    35   -2.574174714286e-03
    36   -6.059635441309e-04
    37    2.813423251389e-04
    38   -2.861695904105e-03
    39    1.143494112106e-02
    40    9.250517602862e-01
    41    5.015743635718e-04
    42   -1.368518690389e-02
    43   -1.365798068582e-04
    44    1.166899519964e-02
    45    9.278765603931e-01
    46    1.365200148232e-02
    47    1.612255037079e-04
    48    1.327103329367e-03
Sym=X
Ene= 0.230663
Spin=Alpha
Occup=0
     1    3.070941383119e-02
     2    1.165496340952e+00
     3   -1.289037643430e-02
     4   -3.500766703516e-03
     5   -7.359427934974e-04
     6    4.667490069803e-05
     7   -1.847157591856e-05
     8   -1.792369358756e-03
     9   -1.549503495780e-01
    10   -1.625753700853e-01
    11   -1.733873777521e-02
    12   -5.295807432312e-01
    13   -5.553065255284e-01
    14   -5.927656855375e-02
    15    1.385723659837e-04
    16    7.653815778814e-04
    17    6.240473340049e-04
    18    1.664138772592e-03
    19    6.577846739846e-06
    20   -3.075186530419e-02
    21   -1.163390541880e+00
    22   -2.831582727233e-03
    23   -1.299929640012e-02
    24   -1.023499285734e-03
    25    1.633245017687e-04
    26   -1.379738416702e-04
    27   -3.653521227826e-03
    28   -1.544747062201e-01
    29   -1.630403620906e-01
    30   -1.715936027223e-02
    31   -5.275007845280e-01
    32   -5.572974260243e-01
    33   -5.857712634286e-02
    34    1.634596963829e-04
    35    5.900633971909e-04
    36    8.205963889681e-04
    37   -1.640919471646e-03
    38   -1.754561375143e-04
    39    3.073915935432e-02
    40    1.166819549070e+00
    41   -2.849893367385e-03
    42   -1.306411700486e-02
    43   -8.203234234358e-04
    44   -3.072336539280e-02
    45   -1.162004354316e+00
    46   -1.282946706360e-02
    47   -3.478192075365e-03
    48   -9.188913298964e-04
Sym=X
Ene= 0.236473
Spin=Alpha
Occup=0
     1    1.847697963029e-02
     2    1.071034980124e+00
     3   -1.591237400781e-02
     4   -9.253223264797e-03
     5    4.686969953862e-04
     6    8.677793013413e-02
     7   -8.113533644794e-02
     8   -1.545135199273e+00
     9   -5.983513973042e-02
    10    5.357511496251e-02
    11    2.822336501613e-02
    12   -2.436982094582e-01
    13    2.172526788321e-01
    14    1.143366008588e-01
    15    2.104980480554e-02
    16    5.682082588691e-05
    17   -5.260020445512e-03
    18    2.806529616779e-04
    19   -1.237784800164e-02
    20    1.839327428458e-02
    21    1.066897832631e+00
    22    8.266482184667e-03
    23    1.607331547678e-02
    24    3.156362773470e-03
    25   -8.677948668015e-02
    26    8.113484070216e-02
    27    1.545194680529e+00
    28   -5.707212771635e-02
    29    5.703284299432e-02
    30   -2.717062916833e-02
    31   -2.313943013735e-01
    32    2.324528916263e-01
    33   -1.100344486068e-01
    34   -2.113377476973e-02
    35    5.018868758062e-03
    36    4.391871975492e-04
    37   -9.404883384857e-04
    38    1.229677590744e-02
    39   -1.844074831649e-02
    40   -1.069451848115e+00
    41    8.413237581569e-03
    42    1.635321698551e-02
    43   -4.031719638417e-04
    44   -1.842195980300e-02
    45   -1.068561269463e+00
    46   -1.567710449372e-02
    47   -9.060515938311e-03
    48   -3.087555537410e-03
Sym=X
Ene= 0.303347
Spin=Alpha
Occup=0
     1   -2.145745323303e-02
     2    1.651910087616e+00
     3   -2.352717950637e-02
     4    2.585068939225e-04
     5    2.187293630529e-04
     6   -8.425679472991e-05
     7   -3.260192877602e-05
     8    3.070030199887e-03
     9   -1.362202091024e-01
    10   -1.433445266358e-01
    11   -1.524859107516e-02
    12   -1.121544119328e+00
    13   -1.177200719219e+00
    14   -1.251262396127e-01
    15    8.068969607533e-04
    16    2.515620744004e-03
    17    6.440502740990e-03
    18   -3.392518264020e-02
    19   -2.179965687930e-03
    20    2.137946117861e-02
    21   -1.653275062762e+00
    22    1.573804345535e-03
    23   -2.337745374521e-02
    24   -2.679582288001e-03
    25    8.626463624573e-05
    26    2.795661056268e-05
    27   -3.151987345294e-03
    28    1.362787256217e-01
    29    1.433050415073e-01
    30    1.517434317461e-02
    31    1.119067107300e+00
    32    1.179594455220e+00
    33    1.249119723660e-01
    34   -7.402561284376e-04
    35   -5.992776868071e-03
    36   -2.507829536045e-03
    37   -3.405436068075e-02
    38   -1.295801592775e-03
    39    2.145461723578e-02
    40   -1.651910819096e+00
    41   -1.472015251118e-03
    42    2.348374680678e-02
    43    9.471169460637e-06
    44   -2.137709043000e-02
    45    1.653350545431e+00
    46    2.345360504996e-02
    47   -3.909699504575e-04
    48    2.440523157919e-03
Sym=X
Ene= 0.463025
Spin=Alpha
Occup=0
     1   -1.132197901322e-01
     2   -6.989193377697e-01
     3   -1.465418732446e-02
     4   -1.030399161099e-02
     5   -2.001336784771e-03
     6    6.281188740180e-02
     7    1.615542531782e-02
     8   -3.643225575794e+00
     9    1.051273456206e-01
    10   -9.836694139177e-02
    11   -1.659227644465e-02
    12    2.435032003549e+00
    13   -2.305706646951e+00
    14   -9.137319251332e-02
    15    5.256291676684e-02
    16   -4.692586128189e-03
    17   -3.100886131224e-03
    18   -9.774440447774e-04
    19    2.036937170291e-02
    20   -1.135667503133e-01
    21   -6.978455884174e-01
    22    9.553962102080e-03
    23    1.519622673930e-02
    24    7.092593732438e-04
    25   -6.281242526022e-02
    26   -1.615340129254e-02
    27    3.643217673689e+00
    28    1.038219110364e-01
    29   -1.000586784515e-01
    30    1.466723314164e-02
    31    2.428803627792e+00
    32   -2.313588916112e+00
    33    4.587329112133e-02
    34   -5.251478288876e-02
    35    1.740163426534e-03
    36    5.860048210593e-03
    37    1.202543104751e-03
    38   -2.033184135407e-02
    39    1.131627416580e-01
    40    6.989594992552e-01
    41    9.560012218857e-03
    42    1.514260760981e-02
    43    2.041480774649e-03
    44    1.135779369720e-01
    45    6.978536880434e-01
    46   -1.469446958978e-02
    47   -1.031116941436e-02
    48   -6.530789552151e-04
Sym=X
Ene= 0.579945
Spin=Alpha
Occup=0
     1    2.345102529477e-01
     2    4.865378571015e-02
     3   -2.247857468588e-02
     4    2.691495908838e-02
     5    2.073279328353e-03
     6   -6.423726712916e-03
     7   -1.706951855985e-01
     8   -4.129116760546e-01
     9    3.059759484934e-01
    10   -2.913207555100e-01
    11   -3.485025229498e-04
    12   -7.477744240296e-01
    13    7.100169830713e-01
    14    2.198583371555e-02
    15   -1.464919166094e-03
    16    3.517484757049e-03
    17    3.374631342263e-03
    18   -3.356048098955e-03
    19    5.970736034916e-02
    20    2.375325828419e-01
    21    4.623832263877e-02
    22   -2.793582399990e-02
    23    2.061535698028e-02
    24    1.415521555403e-03
    25   -6.428056253176e-03
    26   -1.706955391928e-01
    27   -4.127338262161e-01
    28   -3.066983278281e-01
    29    2.904944850939e-01
    30    5.380274802854e-03
    31    7.480261896596e-01
    32   -7.103140870166e-01
    33    8.067313690650e-03
    34   -1.467919017779e-03
    35    3.747126315792e-03
    36    3.148829358528e-03
    37   -2.730789388006e-03
    38    5.973764009845e-02
    39    2.344625632060e-01
    40    4.873390758502e-02
    41    2.805859251838e-02
    42   -2.108322247482e-02
    43    1.601890776691e-03
    44    2.375667836741e-01
    45    4.628347030471e-02
    46    2.203521252986e-02
    47   -2.684622495836e-02
    48    9.503126428451e-04
Sym=X
Ene= 0.608078
Spin=Alpha
Occup=0
     1   -5.206464789161e-01
     2    2.496142242016e-01
     3   -5.922027599485e-02
     4    3.635119314527e-02
     5    3.137787245323e-03
     6   -3.167051501026e-05
     7   -1.593460301829e-05
     8    2.902351733903e-03
     9   -3.667154876043e-02
    10   -3.717329189922e-02
    11   -4.019306917893e-03
    12    2.613169378622e-01
    13    2.698487242737e-01
    14    2.894970511341e-02
    15    2.386624487903e-03
    16    3.608111389972e-03
    17    2.025907040622e-02
    18   -1.475332076195e-01
    19   -8.906879100193e-03
    20    5.183626869670e-01
    21   -2.504066420529e-01
    22    4.004531468175e-02
    23   -5.692698195543e-02
    24   -5.305667085392e-03
    25   -3.654960824099e-05
    26    1.371726336555e-05
    27    2.483617480807e-03
    28   -3.526459870423e-02
    29   -3.852011216604e-02
    30   -4.080662572632e-03
    31    2.561456997249e-01
    32    2.748687116475e-01
    33    2.870023564646e-02
    34    2.145386906397e-03
    35    1.869044037339e-02
    36    3.184129473987e-03
    37    1.478958880052e-01
    38    6.202269167829e-03
    39   -5.207584026410e-01
    40    2.496725329602e-01
    41    3.937314288436e-02
    42   -5.729803139049e-02
    43    2.209084291288e-03
    44    5.182753233227e-01
    45   -2.503410788867e-01
    46   -5.895684988718e-02
    47    3.710805012654e-02
    48   -4.392530190176e-03
Sym=X
Ene= 0.688317
Spin=Alpha
Occup=0
     1   -4.923396414933e-02
     2    3.538213246495e-02
     3   -1.365127000266e-02
     4   -3.443345740004e-03
     5   -1.901118027244e-02
     6   -3.487346478688e-03
     7   -5.670780757478e-02
     8    4.079038379250e-02
     9    4.651884950778e-02
    10    2.649389298970e-02
    11   -6.660416865406e-01
    12   -3.863542824915e-02
    13   -2.788235453452e-02
    14    6.075912407154e-01
    15    1.969591208214e-02
    16    8.086470467311e-02
    17   -8.145695168834e-02
    18   -8.317990507227e-03
    19   -9.094994680425e-03
    20   -4.945757743584e-02
    21    3.567879575680e-02
    22    4.674648062235e-03
    23    1.584760705741e-02
    24   -1.691517969519e-02
    25   -3.484975171133e-03
    26   -5.672732495949e-02
    27    4.083666727258e-02
    28    1.740526884058e-02
    29    5.389645138909e-02
    30   -6.657791586772e-01
    31   -1.964530298011e-02
    32   -4.560524737342e-02
    33    6.074275368315e-01
    34    2.238830481281e-02
    35   -8.530824752878e-02
    36    7.621299460148e-02
    37    9.131138827481e-03
    38   -6.630558490010e-03
    39   -4.923569539563e-02
    40    3.557560076333e-02
    41   -2.937778263983e-03
    42   -1.365178903738e-02
    43   -1.910266485163e-02
    44   -4.938779024714e-02
    45    3.557487151568e-02
    46    1.540950563029e-02
    47    5.619500789691e-03
    48   -1.702926675349e-02
Sym=X
Ene= 0.705516
Spin=Alpha
Occup=0
     1   -4.868245312810e-01
     2    1.623999162246e-01
     3   -7.705673633630e-02
     4   -4.433444110859e-02
     5   -3.716359537810e-03
     6   -4.579210166751e-02
     7   -2.926932005004e-01
     8    4.572282187391e-01
     9    1.909248551789e-01
    10   -1.898370560711e-01
    11    7.421432028327e-02
    12   -5.135565213667e-02
    13    5.799932975950e-02
    14   -8.530403706719e-02
    15    1.894416650497e-01
    16   -2.122390558641e-02
    17   -2.312026869496e-02
    18    3.986932128053e-03
    19   -7.659353270598e-02
    20   -4.880584248914e-01
    21    1.636594145073e-01
    22    4.010450186320e-02
    23    7.901799196461e-02
    24    9.387758723644e-03
    25   -4.578030155064e-02
    26   -2.927137909259e-01
    27    4.569874152961e-01
    28   -1.986236649844e-01
    29    1.802587774836e-01
    30    7.785214211861e-02
    31    5.932955052687e-02
    32   -4.756311553216e-02
    33   -8.643000517896e-02
    34    1.894046439532e-01
    35   -1.946990487898e-02
    36   -2.467685020092e-02
    37    3.509688134147e-03
    38   -7.663384250414e-02
    39   -4.868010815403e-01
    40    1.624902062815e-01
    41   -4.033042467618e-02
    42   -7.921017664308e-02
    43   -4.044515807769e-03
    44   -4.879635753340e-01
    45    1.633354009876e-01
    46    7.691072029718e-02
    47    4.404822028504e-02
    48    9.020464748591e-03
Sym=X
Ene= 0.776429
Spin=Alpha
Occup=0
     1    5.380690809860e-01
     2   -4.785209318562e-01
     3    1.069091991910e-01
     4    2.764837454820e-02
     5    5.930462625433e-03
     6    8.812007595613e-02
     7   -2.296432210429e-01
     8   -5.533985875036e-01
     9    1.019963163070e-01
    10   -9.003562338365e-02
    11   -6.824738838565e-02
    12    2.846137272123e-01
    13   -2.857097454295e-01
    14    1.468256118931e-01
    15   -2.008729601669e-01
    16    5.353136773516e-03
    17    3.306218484865e-02
    18    1.217652831419e-03
    19    9.068857423638e-03
    20    5.378690808565e-01
    21   -4.780502499265e-01
    22   -2.226602759184e-02
    23   -1.077808829355e-01
    24   -8.479046052354e-03
    25   -8.812644278450e-02
    26    2.295995893627e-01
    27    5.535092618780e-01
    28    9.590112776429e-02
    29   -9.774978709763e-02
    30    6.639556909957e-02
    31    2.982724552419e-01
    32   -2.683358956564e-01
    33   -1.523066813691e-01
    34    2.013028778017e-01
    35   -2.935343087842e-02
    36   -1.013653654013e-02
    37    1.763848716708e-03
    38   -8.706115497518e-03
    39   -5.380590252772e-01
    40    4.786983440435e-01
    41   -2.218739993997e-02
    42   -1.081452560455e-01
    43   -6.697890087639e-03
    44   -5.380043119497e-01
    45    4.778621921302e-01
    46    1.065779157508e-01
    47    2.770883387276e-02
    48    7.666319585131e-03
Sym=X
Ene= 0.807400
Spin=Alpha
Occup=0
     1   -4.230993754072e-02
     2    5.974258106616e-02
     3   -1.640587430812e-02
     4    6.025124728095e-03
     5   -3.165424308852e-02
     6   -8.091520103377e-03
     7    1.753283794858e-02
     8   -9.273161953297e-03
     9    2.430073657829e-03
    10    7.853323085492e-02
    11   -7.595955589539e-01
    12   -5.901062116859e-02
    13   -6.238273821452e-02
    14    1.115429835732e+00
    15    2.840547533523e-02
    16   -6.611494520464e-02
    17    5.859573949508e-02
    18    6.221528117675e-03
    19    9.666497171896e-03
    20   -4.216254458128e-02
    21    5.939482382881e-02
    22   -3.561580166850e-03
    23    1.946876070518e-02
    24   -3.025772884980e-02
    25    8.090255082767e-03
    26   -1.750075056783e-02
    27    9.251272471739e-03
    28   -7.060665103345e-02
    29   -1.331906824651e-02
    30    7.602639842109e-01
    31    4.791829913148e-02
    32    7.215817109357e-02
    33   -1.115376390095e+00
    34   -2.632454277261e-02
    35   -6.253904664891e-02
    36    6.345126900024e-02
    37    7.261465795131e-03
    38   -7.763163748353e-03
    39    4.229226007085e-02
    40   -5.939401270038e-02
    41   -6.574927594860e-03
    42    1.574497076587e-02
    43    3.185434670390e-02
    44    4.218193067688e-02
    45   -5.975703922617e-02
    46   -1.937513252943e-02
    47    2.247853499792e-03
    48    3.048014383242e-02
Sym=X
Ene= 0.857099
Spin=Alpha
Occup=0
     1    1.542774663546e-02
     2   -1.070777371178e+00
     3    1.463518498051e-01
     4    5.534863519038e-02
     5    5.961737057946e-03
     6    3.871210749400e-05
     7    4.967888349203e-04
     8   -1.812910810255e-04
     9   -4.119222392199e-01
    10   -4.330223314919e-01
    11   -4.614242800825e-02
    12    9.344413899652e-01
    13    9.814490481769e-01
    14    1.046121446468e-01
    15   -7.780817709998e-04
    16    9.662487584520e-03
    17   -1.552988726727e-02
    18    2.301601738158e-01
    19    1.181016131035e-02
    20   -1.522683078222e-02
    21    1.070585523452e+00
    22    4.756201714885e-02
    23    1.483935808622e-01
    24    1.569149200409e-02
    25    2.586948694647e-05
    26    4.752348960539e-04
    27   -1.644166340473e-04
    28   -4.116479079219e-01
    29   -4.333139205256e-01
    30   -4.573469188745e-02
    31    9.330797664918e-01
    32    9.828739122349e-01
    33    1.037370804537e-01
    34   -3.232060330629e-04
    35   -1.388025427794e-02
    36    1.110945327486e-02
    37   -2.302050815984e-01
    38   -1.172102240239e-02
    39    1.535500085445e-02
    40   -1.070682888183e+00
    41    4.778604605822e-02
    42    1.489355064581e-01
    43    6.844598009378e-03
    44   -1.525413373437e-02
    45    1.070672909918e+00
    46    1.459080874429e-01
    47    5.500777232266e-02
    48    1.475396230658e-02
Sym=X
Ene= 0.926988
Spin=Alpha
Occup=0
     1   -1.424648998218e-01
     2    1.225402494370e+00
     3   -1.825229892974e-01
     4    5.685935493630e-03
     5   -2.638192447279e-04
     6   -3.793886935423e-05
     7   -7.106784614577e-04
     8   -6.648729164453e-04
     9    4.732532386451e-01
    10    4.993510295863e-01
    11    5.303258914860e-02
    12   -1.375536722515e+00
    13   -1.451986964111e+00
    14   -1.541400797944e-01
    15    2.936845085466e-03
    16    8.151882313526e-03
    17    2.253175687396e-02
    18   -1.245489529421e-01
    19   -7.182971648541e-03
    20    1.430964682234e-01
    21   -1.229670130065e+00
    22    1.530352566379e-02
    23   -1.815042095634e-01
    24   -1.846068392902e-02
    25    3.035152484783e-05
    26    5.024486351832e-04
    27    1.009778241493e-03
    28   -4.748084273048e-01
    29   -4.978923857739e-01
    30   -5.289381321395e-02
    31    1.380581452164e+00
    32    1.447240863729e+00
    33    1.537492865186e-01
    34   -2.656240733621e-03
    35   -2.090665842299e-02
    36   -8.101126246478e-03
    37   -1.249332401511e-01
    38   -5.600394092988e-03
    39    1.424271877297e-01
    40   -1.225516680378e+00
    41   -1.508736723865e-02
    42    1.819813524759e-01
    43    2.069030538302e-03
    44   -1.431426649442e-01
    45    1.229601518383e+00
    46    1.822293617107e-01
    47   -6.083909661159e-03
    48    1.657490842587e-02
Sym=X
Ene= 0.970356
Spin=Alpha
Occup=0
     1   -5.778454066681e-02
     2    8.975887209997e-01
     3   -8.770136824516e-02
     4   -9.662045613642e-02
     5   -2.057033563308e-03
     6    2.744343793976e-02
     7    2.515609431827e-01
     8    5.151142821252e-01
     9    4.859226757960e-01
    10   -4.555816754211e-01
    11   -4.266105767982e-02
    12   -1.482225508361e+00
    13    1.388141819577e+00
    14    1.193053167972e-01
    15   -5.988427121030e-02
    16   -9.869176829779e-03
    17   -1.113804513903e-02
    18    1.457146585862e-02
    19   -2.958692674484e-01
    20   -5.830987922203e-02
    21    8.909903312672e-01
    22    9.137612645146e-02
    23    9.071183091382e-02
    24    1.787894741766e-02
    25   -2.744243989468e-02
    26   -2.514487791446e-01
    27   -5.153014030608e-01
    28    4.804048599114e-01
    29   -4.621129327948e-01
    30    3.364934026722e-02
    31   -1.463774940295e+00
    32    1.409591973413e+00
    33   -9.181506330156e-02
    34    5.980608152838e-02
    35    1.456726950317e-02
    36    6.696794938941e-03
    37   -1.574245082337e-02
    38    2.957491127097e-01
    39    5.779841173932e-02
    40   -8.974444475939e-01
    41    9.197075799698e-02
    42    9.253013468358e-02
    43    1.996269063320e-03
    44    5.828762856022e-02
    45   -8.910085843206e-01
    46   -8.605285478728e-02
    47   -9.577473246543e-02
    48   -1.792672618302e-02
[5D]

======= END OF MOLDEN-FORMATTED INPUT FILE =======


        *************************************************************
        *                                                           *
        *  Thank you very much for using Q-Chem.  Have a nice day.  *
        *                                                           *
        *************************************************************


