                  Welcome to Q-Chem
     A Quantum Leap Into The Future Of Chemistry


 Q-Chem 5.4 (devel), Q-Chem, Inc., Pleasanton, CA (2021)

 E. Epifanovsky,  A. T. B. Gilbert,  Xintian Feng,  Joonho Lee,  Yuezhi Mao,  
 N. Mardirossian,  P. Pokhilko,  A. White,  M. Wormit,  M. P. Coons,  
 A. L. Dempwolff,  Zhengting Gan,  D. Hait,  P. R. Horn,  L. D. Jacobson,  
 I. Kaliman,  J. Kussmann,  A. W. Lange,  Ka Un Lao,  D. S. Levine,  Jie Liu,  
 S. C. McKenzie,  A. F. Morrison,  K. Nanda,  F. Plasser,  D. R. Rehn,  
 M. L. Vidal,  Zhi-Qiang You,  Ying Zhu,  B. Alam,  B. Albrecht,  
 A. Aldossary,  E. Alguire,  J. H. Andersen,  D. Barton,  K. Begam,  A. Behn,  
 Y. A. Bernard,  E. J. Berquist,  H. Burton,  A. Carreras,  K. Carter-Fenk,  
 R. Chakraborty,  A. D. Chien,  K. D. Closser,  V. Cofer-Shabica,  
 S. Dasgupta,  Jia Deng,  M. de Wergifosse,  M. Diedenhofen,  Hainam Do,  
 S. Ehlert,  Po-Tung Fang,  S. Fatehi,  Qingguo Feng,  T. Friedhoff,  
 J. Gayvert,  Qinghui Ge,  G. Gidofalvi,  M. Goldey,  J. Gomes,  
 C. Gonzalez-Espinoza,  S. Gulania,  A. Gunina,  M. W. D. Hanson-Heine,  
 P. H. P. Harbach,  A. W. Hauser,  M. F. Herbst,  M. Hernandez Vera,  
 M. Hodecker,  Z. C. Holden,  S. Houck,  Xunkun Huang,  Kerwin Hui,  
 B. C. Huynh,  M. Ivanov,  Hyunjun Ji,  Hanjie Jiang,  B. Kaduk,  S. Kaehler,  
 K. Khistyaev,  Jaehoon Kim,  P. Klunzinger,  Z. Koczor-Benda,  
 Joong Hoon Koh,  D. Kosenkov,  L. Koulias,  T. Kowalczyk,  C. M. Krauter,  
 K. Kue,  A. Kunitsa,  T. Kus,  A. Landau,  K. V. Lawler,  D. Lefrancois,  
 S. Lehtola,  Rain Li,  Yi-Pei Li,  Jiashu Liang,  M. Liebenthal,  
 Hung-Hsuan Lin,  You-Sheng Lin,  Fenglai Liu,  Kuan-Yu Liu,  
 M. Loipersberger,  A. Luenser,  A. Manjanath,  P. Manohar,  E. Mansoor,  
 S. F. Manzer,  Shan-Ping Mao,  A. V. Marenich,  T. Markovich,  S. Mason,  
 S. A. Maurer,  P. F. McLaughlin,  M. F. S. J. Menger,  J.-M. Mewes,  
 S. A. Mewes,  P. Morgante,  J. W. Mullinax,  K. J. Oosterbaan,  G. Paran,  
 Alexander C. Paul,  Suranjan K. Paul,  F. Pavosevic,  Zheng Pei,  S. Prager,  
 E. I. Proynov,  E. Ramos,  B. Rana,  A. E. Rask,  A. Rettig,  R. M. Richard,  
 F. Rob,  E. Rossomme,  T. Scheele,  M. Scheurer,  M. Schneider,  
 N. Sergueev,  S. M. Sharada,  W. Skomorowski,  D. W. Small,  C. J. Stein,  
 Yu-Chuan Su,  E. J. Sundstrom,  Zhen Tao,  J. Thirman,  T. Tsuchimochi,  
 N. M. Tubman,  S. P. Veccham,  O. Vydrov,  J. Wenzel,  J. Witte,  A. Yamada,  
 Kun Yao,  S. Yeganeh,  S. R. Yost,  A. Zech,  Igor Ying Zhang,  Xing Zhang,  
 Yu Zhang,  D. Zuev,  A. Aspuru-Guzik,  A. T. Bell,  N. A. Besley,  
 K. B. Bravaya,  B. R. Brooks,  D. Casanova,  Jeng-Da Chai,  S. Coriani,  
 C. J. Cramer,  A. E. DePrince, III,  R. A. DiStasio Jr.,  A. Dreuw,  
 B. D. Dunietz,  T. R. Furlani,  W. A. Goddard III,  S. Grimme,  
 S. Hammes-Schiffer,  T. Head-Gordon,  W. J. Hehre,  Chao-Ping Hsu,  
 T.-C. Jagau,  Yousung Jung,  A. Klamt,  Jing Kong,  D. S. Lambrecht,  
 WanZhen Liang,  N. J. Mayhall,  C. W. McCurdy,  J. B. Neaton,  
 C. Ochsenfeld,  J. A. Parkhill,  R. Peverati,  V. A. Rassolov,  Yihan Shao,  
 L. V. Slipchenko,  T. Stauch,  R. P. Steele,  J. E. Subotnik,  
 A. J. W. Thom,  A. Tkatchenko,  D. G. Truhlar,  T. Van Voorhis,  
 T. A. Wesolowski,  K. B. Whaley,  H. L. Woodcock III,  P. M. Zimmerman,  
 S. Faraji,  P. M. W. Gill,  M. Head-Gordon,  J. M. Herbert,  A. I. Krylov

 Additional authors for Version 5.4.1: 
 S. Kotaru,  Shaozhi Li,  Xiangyuan Li,  F. Matz,  A. Molle,  Haisheng Ren,  
 Yingli Su,  Hung-Yi Tsai,  C. Utku,  Fang Wang

 Contributors to earlier versions of Q-Chem not listed above: 
 R. D. Adamson,  B. Austin,  R. Baer,  J. Baker,  G. J. O. Beran,  
 K. Brandhorst,  S. T. Brown,  E. F. C. Byrd,  A. K. Chakraborty,  
 G. K. L. Chan,  Chun-Min Chang,  Yunqing Chen,  C.-L. Cheng,  
 Siu Hung Chien,  D. M. Chipman,  D. L. Crittenden,  H. Dachsel,  
 R. J. Doerksen,  A. D. Dutoi,  R. G. Edgar,  J. Fosso-Tande,  
 L. Fusti-Molnar,  D. Ghosh,  A. Ghysels,  A. Golubeva-Zadorozhnaya,  
 J. Gonthier,  M. S. Gordon,  S. R. Gwaltney,  G. Hawkins,  J. E. Herr,  
 A. Heyden,  S. Hirata,  E. G. Hohenstein,  G. Kedziora,  F. J. Keil,  
 C. Kelley,  Jihan Kim,  R. A. King,  R. Z. Khaliullin,  P. P. Korambath,  
 W. Kurlancheek,  A. Laurent,  A. M. Lee,  M. S. Lee,  S. V. Levchenko,  
 Ching Yeh Lin,  D. Liotard,  E. Livshits,  R. C. Lochan,  I. Lotan,  
 L. A. Martinez-Martinez,  P. E. Maslen,  N. Nair,  D. P. O'Neill,  
 D. Neuhauser,  E. Neuscamman,  C. M. Oana,  R. Olivares-Amaya,  R. Olson,  
 T. M. Perrine,  B. Peters,  P. A. Pieniazek,  A. Prociuk,  Y. M. Rhee,  
 J. Ritchie,  M. A. Rohrdanz,  E. Rosta,  N. J. Russ,  H. F. Schaefer III,  
 M. W. Schmidt,  N. E. Schultz,  S. Sharma,  N. Shenvi,  C. D. Sherrill,  
 A. C. Simmonett,  A. Sodt,  T. Stein,  D. Stuck,  K. S. Thanthiriwatte,  
 V. Vanovschi,  L. Vogt,  Tao Wang,  A. Warshel,  M. A. Watson,  
 C. F. Williams,  Q. Wu,  X. Xu,  Jun Yang,  W. Zhang,  Yan Zhao

 Please cite Q-Chem as follows:
 Y. Shao et al., Mol. Phys. 113, 184-215 (2015)
 DOI: 10.1080/00268976.2014.952696

 Q-Chem 5.4.1 for Intel X86 EM64T Linux

 Parts of Q-Chem use Armadillo 9.800.1 (Horizon Scraper).
 http://arma.sourceforge.net/

 Q-Chem begins on Wed Mar 15 16:18:19 2023  

 Host: cpu121.yggdrasil
0

     Scratch files written to /srv/beegfs/scratch/users/f/fum/qchem67083//
 Processing $rem in /home/share/wesolowski/qc5.aug2021.FDE/config/preferences:
 Processing $rem in /home/fum/.qchemrc:

 Checking the input file for inconsistencies... 	...done.

--------------------------------------------------------------
User input:
--------------------------------------------------------------
$comment
generated from CCJob.Templates
$end

$rem
sym_ignore = true
method = adc(2)
ee_states = 10
basis = cc-pVDZ
mem_static = 1024
mem_total = 40000
adc_davidson_maxiter = 900
adc_davidson_conv = 6
adc_print = 3
adc_prop_es = true
adc_prop_es2es = true
adc_prop_tpa = true
molden_format = True
state_analysis = true
print_orbitals = 15
gen_scfman = false
fde_export_density = true
fde_details = 3
$end

$molecule
0 1
H -0.0348278765 -0.2442097827 0.0636489606
C -1.0765972949 -0.5242748755 -0.0023551776
H -1.313264467 -1.5767591607 -0.0757276926
C -2.083634118 0.3926884087 0.0061254933
H -1.8137616575 1.4459188338 0.0804456828
H -3.085977293 0.114931858 -0.0593381042                     
$end
--------------------------------------------------------------
 ----------------------------------------------------------------
             Standard Nuclear Orientation (Angstroms)
    I     Atom           X                Y                Z
 ----------------------------------------------------------------
    1      H      -0.0348278765    -0.2442097827     0.0636489606
    2      C      -1.0765972949    -0.5242748755    -0.0023551776
    3      H      -1.3132644670    -1.5767591607    -0.0757276926
    4      C      -2.0836341180     0.3926884087     0.0061254933
    5      H      -1.8137616575     1.4459188338     0.0804456828
    6      H      -3.0859772930     0.1149318580    -0.0593381042
 ----------------------------------------------------------------
 Nuclear Repulsion Energy =          33.16295007 hartrees
 There are        8 alpha and        8 beta electrons
 Requested basis set is cc-pVDZ
 There are 24 shells and 48 basis functions
 Total memory of 40000 MB is distributed as follows: 
   MEM_STATIC is set to 1024 MB
   QALLOC/CCMAN JOB total memory use is  38976 MB
 Warning: actual memory use might exceed 40000 MB

 Total QAlloc Memory Limit  40000 MB
 Mega-Array Size      1001 MB
 MEM_STATIC part      1024 MB

                       Distance Matrix (Angstroms)
             H (  1)   C (  2)   H (  3)   C (  4)   H (  5)
   C (  2)  1.080776
   H (  3)  1.851895  1.081258
   C (  4)  2.146289  1.361990  2.116340
   H (  5)  2.453859  2.105215  3.067812  1.089793
   H (  6)  3.074674  2.109370  2.450428  1.042174  1.846510

 A cutoff of  1.0D-11 yielded    300 shell pairs
 There are      1220 function pairs (      1329 Cartesian)
 Smallest overlap matrix eigenvalue = 5.31E-03

 Scale SEOQF with 1.000000e-01/1.000000e-01/1.000000e+00

 Standard Electronic Orientation quadrupole field applied
 Nucleus-field energy     =     0.0000000022 hartrees
 Guess from superposition of atomic densities
 Warning:  Energy on first SCF cycle will be non-variational
 SAD guess density has 16.000000 electrons
 A restricted Hartree-Fock SCF calculation will be
 performed using Pulay DIIS extrapolation
 SCF converges when DIIS error is below 1.0E-08
 using 10 threads for integral computing
 -------------------------------------------------------
 OpenMP Integral computing Module                
 Release: version 1.0, May 2013, Q-Chem Inc. Pittsburgh 
 -------------------------------------------------------
 ---------------------------------------
  Cycle       Energy         DIIS Error
 ---------------------------------------
    1     -78.4019971089      9.90E-02
    2     -78.0143168208      7.12E-03
    3     -78.0348140603      1.80E-03
    4     -78.0362767620      5.35E-04
    5     -78.0363829693      6.57E-05
    6     -78.0363850240      1.98E-05
    7     -78.0363851903      6.71E-06
    8     -78.0363852089      1.32E-06
    9     -78.0363852105      4.31E-07
   10     -78.0363852107      1.02E-07
   11     -78.0363852107      6.81E-09 Convergence criterion met
 ---------------------------------------
 SCF time:  CPU 1.94 s  wall 3.82 s
 SCF   energy in the final basis set = -78.03638521
 Total energy in the final basis set = -78.03638521
Exporting Density Matrix to file 'Densmat_SCF.txt'.
Export successful
================================================================================
|                                                                              |
|                                 A D C  M A N                                 |
|                                                                              |
 ------------------------------------------------------------------------------ 
|                                                                              |
| Components:                                                                  |
|                                                                              |
| - libvmm - 1.3-trunk                                                         |
|   Authors:                                                                   |
|   Evgeny Epifanovsky, Ilya Kaliman                                           |
|                                                                              |
| - libtensor - 2.5-trunk                                                      |
|   Authors:                                                                   |
|   Evgeny Epifanovsky, Michael Wormit, Dmitry Zuev, Sam Manzer,               |
|   Ilya Kaliman                                                               |
|                                                                              |
| - libwfa - 1.1-trunk                                                         |
|   Authors:                                                                   |
|   Felix Plasser, Stefanie Mewes (Baeppler), Benjamin Thomitzni,              |
|   Michael Wormit, Feng Chen, Anna I. Krylov, Pavel Pokhilko                  |
|                                                                              |
| - libadc - 1.1-trunk                                                         |
|   Authors:                                                                   |
|   Michael Wormit, Adrian L. Dempwolff, Philipp H. P. Harbach,                |
|   Caroline Krauter, Dirk Rehn, Matthias Schneider, Jan Wenzel                |
|                                                                              |
| - adcman - 2.6-trunk                                                         |
|   Authors:                                                                   |
|   Michael Wormit, Adrian L. Dempwolff, Philipp H. P. Harbach,                |
|   Caroline Krauter, Daniel Lefrancois, Jan-Michael Mewes, Dirk Rehn,         |
|   Matthias Schneider, Jan Wenzel, Andreas Dreuw                              |
|                                                                              |
| Authors of earlier versions of ADCMAN:                                       |
| Andreas Dreuw, Jan Hendrik Starcke, Dirk Rehn, Michael Wormit                |
|                                                                              |
================================================================================

 Created directory /srv/beegfs/scratch/users/f/fum/qchem67083/plots
  Import QC data ...  CPU 0.00 s  wall 0.01 s

 Alpha MOs, Restricted
 -- Occupied --                  
-11.239 -11.236  -1.025  -0.795  -0.643  -0.576  -0.512  -0.367
  1 A     2 A     3 A     4 A     5 A     6 A     7 A     8 A                  
 -- Virtual --                   
  0.162   0.203   0.235   0.240   0.301   0.455   0.581   0.616
  9 A    10 A    11 A    12 A    13 A    14 A    15 A    16 A                  
  0.695   0.712   0.777   0.805   0.868   0.934   0.960   1.012
 17 A    18 A    19 A    20 A    21 A    22 A    23 A    24 A                  
  1.133   1.225   1.255   1.256   1.290   1.612   1.717   1.745
 25 A    26 A    27 A    28 A    29 A    30 A    31 A    32 A                  
  1.817   1.848   1.861   1.925   1.970   1.992   2.205   2.240
 33 A    34 A    35 A    36 A    37 A    38 A    39 A    40 A                  
  2.378   2.462   2.501   2.609   2.739   2.837   3.156   3.383
 41 A    42 A    43 A    44 A    45 A    46 A    47 A    48 A                  

 Beta MOs, Restricted
 -- Occupied --                  
-11.239 -11.236  -1.025  -0.795  -0.643  -0.576  -0.512  -0.367
  1 A     2 A     3 A     4 A     5 A     6 A     7 A     8 A                  
 -- Virtual --                   
  0.162   0.203   0.235   0.240   0.301   0.455   0.581   0.616
  9 A    10 A    11 A    12 A    13 A    14 A    15 A    16 A                  
  0.695   0.712   0.777   0.805   0.868   0.934   0.960   1.012
 17 A    18 A    19 A    20 A    21 A    22 A    23 A    24 A                  
  1.133   1.225   1.255   1.256   1.290   1.612   1.717   1.745
 25 A    26 A    27 A    28 A    29 A    30 A    31 A    32 A                  
  1.817   1.848   1.861   1.925   1.970   1.992   2.205   2.240
 33 A    34 A    35 A    36 A    37 A    38 A    39 A    40 A                  
  2.378   2.462   2.501   2.609   2.739   2.837   3.156   3.383
 41 A    42 A    43 A    44 A    45 A    46 A    47 A    48 A                  
  Import AO data ...  CPU 0.00 s  wall 0.06 s
  Using point group: C1
  Irreducible representations in point group: A
  Molecular orbitals: 
  Occupied MOs:
  Block   0:   1 (  A) A   2 (  A) A   3 (  A) A   4 (  A) A   5 (  A) A
                  -11.24      -11.24      -1.025      -0.795     -0.6428
               6 (  A) A   7 (  A) A   8 (  A) A
                 -0.5763     -0.5116      -0.367
  Block   1:   1 (  A) B   2 (  A) B   3 (  A) B   4 (  A) B   5 (  A) B
                  -11.24      -11.24      -1.025      -0.795     -0.6428
               6 (  A) B   7 (  A) B   8 (  A) B
                 -0.5763     -0.5116      -0.367
  Virtual MOs:
  Block   0:   9 (  A) A  10 (  A) A  11 (  A) A  12 (  A) A  13 (  A) A
                  0.1617      0.2032      0.2351      0.2401      0.3014
              14 (  A) A  15 (  A) A  16 (  A) A  17 (  A) A  18 (  A) A
                  0.4547      0.5812      0.6163      0.6951      0.7118
              19 (  A) A  20 (  A) A  21 (  A) A  22 (  A) A
                  0.7775      0.8049      0.8685      0.9338
  Block   1:  23 (  A) A  24 (  A) A  25 (  A) A  26 (  A) A  27 (  A) A
                  0.9598       1.012       1.133       1.225       1.255
              28 (  A) A  29 (  A) A  30 (  A) A  31 (  A) A  32 (  A) A
                   1.256        1.29       1.612       1.717       1.745
              33 (  A) A  34 (  A) A  35 (  A) A  36 (  A) A
                   1.817       1.848       1.861       1.925
  Block   2:  37 (  A) A  38 (  A) A  39 (  A) A  40 (  A) A  41 (  A) A
                    1.97       1.992       2.205        2.24       2.378
              42 (  A) A  43 (  A) A  44 (  A) A  45 (  A) A  46 (  A) A
                   2.462       2.501       2.609       2.739       2.837
              47 (  A) A  48 (  A) A
                   3.156       3.383
  Block   3:   9 (  A) B  10 (  A) B  11 (  A) B  12 (  A) B  13 (  A) B
                  0.1617      0.2032      0.2351      0.2401      0.3014
              14 (  A) B  15 (  A) B  16 (  A) B  17 (  A) B  18 (  A) B
                  0.4547      0.5812      0.6163      0.6951      0.7118
              19 (  A) B  20 (  A) B  21 (  A) B  22 (  A) B
                  0.7775      0.8049      0.8685      0.9338
  Block   4:  23 (  A) B  24 (  A) B  25 (  A) B  26 (  A) B  27 (  A) B
                  0.9598       1.012       1.133       1.225       1.255
              28 (  A) B  29 (  A) B  30 (  A) B  31 (  A) B  32 (  A) B
                   1.256        1.29       1.612       1.717       1.745
              33 (  A) B  34 (  A) B  35 (  A) B  36 (  A) B
                   1.817       1.848       1.861       1.925
  Block   5:  37 (  A) B  38 (  A) B  39 (  A) B  40 (  A) B  41 (  A) B
                    1.97       1.992       2.205        2.24       2.378
              42 (  A) B  43 (  A) B  44 (  A) B  45 (  A) B  46 (  A) B
                   2.462       2.501       2.609       2.739       2.837
              47 (  A) B  48 (  A) B
                   3.156       3.383
  Import MO data ...  CPU 0.01 s  wall 0.01 s
  Import HF data ...  CPU 0.07 s  wall 0.03 s
  Import 2e integrals ...  CPU 0.88 s  wall 0.15 s

--------------------------------------------------------------------------------
                                   HF Summary                                   
--------------------------------------------------------------------------------
  Energy:                                                  -78.0363852107 a.u.
  Dip. moment [a.u.]:                  [  -0.001848,   -0.004631,   -0.000958]
  Total dipole [Debye]:                                               0.012906
  <r^2> [a.u.]:                        [ 178.749799,   34.987041,   11.683907]
  Total <r^2> [a.u.]:                                               225.420746
--------------------------------------------------------------------------------
  HF properties ...  CPU 0.01 s  wall 0.01 s
  MP(1) calculation ...  CPU 0.01 s  wall 0.00 s
  N^6 prerequesite intermediates ...  CPU 0.44 s  wall 0.08 s
  Difference density matrix of state mp2_gs printed to ASCII file 'State_mp2_gs_Difference.txt'
Exporting MP density matrix to file 'Densmat_MP.txt'.
Export successful
  Total density matrix of state mp2_gs printed to ASCII file 'State_mp2_gs_Total.txt'
Exporting MP density matrix to file 'Densmat_MP.txt'.
Export successful

--------------------------------------------------------------------------------
                                 MP(2) Summary                                  
--------------------------------------------------------------------------------
  MP energy contribution:                                   -0.2810718010 a.u.
  Total energy:                                            -78.3174570117 a.u.
  Dip. moment [a.u.]:                  [  -0.001341,   -0.003385,   -0.000851]
  Total dipole [Debye]:                                               0.009503
  <r^2> [a.u.]:                        [ 178.805741,   35.016042,   11.497462]
  Total <r^2> [a.u.]:                                               225.319244

  Density matrix analysis:
  ------------------------
  NOs
    Occupation of frontier NOs:
       0.0478   1.9360
    Number of electrons: 16.000000
    Number of unpaired electrons: n_u =  0.40949, n_u,nl =  0.04732
    NO participation ratio (PR_NO): 13.574936
  
  
  Mulliken Population Analysis
  Atom      Charge (e)              h+              e-           Del q
  --------------------------------------------------------------------
   1 H        0.053948        0.013925       -0.011271        0.002654
   2 C       -0.113621        0.096099       -0.101899       -0.005800
   3 H        0.051383        0.014184       -0.011211        0.002973
   4 C       -0.088916        0.094787       -0.100707       -0.005920
   5 H        0.053498        0.014010       -0.011180        0.002829
   6 H        0.043708        0.014417       -0.011153        0.003264
  --------------------------------------------------------------------
  Sum:        0.000000        0.247421       -0.247421        0.000000
  
  Multipole moment analysis of the density matrix
    Molecular charge:                      0.000000
    Number of electrons:                   16.000000
      Center of electronic charge [Ang]: [ -1.575532,  -0.065490,   0.002006]
    Total nuclear charge:                  16.000000
      Center of nuclear charge [Ang]:    [ -1.575576,  -0.065602,   0.001978]
    Dipole moment [D]:                     0.009503
      Cartesian components [D]:          [ -0.003408,  -0.008603,  -0.002163]
    RMS size of the density [Ang]:         1.207019
      Cartesian components [Ang]:        [  0.804437,   0.780099,   0.448578]
  
  Exciton analysis of the difference density matrix
    <r_h> [Ang]:                  [ -1.571337,  -0.064717,   0.002347]
    <r_e> [Ang]:                  [ -1.572422,  -0.067384,   0.002119]
    |<r_e - r_h>| [Ang]:            0.002888
    Hole size [Ang]:                1.403019
      Cartesian components [Ang]: [  0.847776,   0.837704,   0.740263]
    Electron size [Ang]:            1.360081
      Cartesian components [Ang]: [  0.882399,   0.856865,   0.580495]
--------------------------------------------------------------------------------
  MP(2) calculation ...  CPU 0.11 s  wall 0.17 s
  Start ADC(2)-s ...  CPU 0.01 s  wall 0.00 s
  ADC(2) intermediates ...  CPU 0.02 s  wall 0.01 s
  Starting Davidson for singlet states of irrep A ... 
--------------------------------------------------------------------------------
   It NVec Conv  Avg. Norm  Max. Norm  Conv. states           Remark
--------------------------------------------------------------------------------
        10    0  1.327e-01  4.673e-01  0.4059 n n n n n n n n Guess.
    1   20    0  2.585e-02  1.498e-01  0.3173 n n n n n n n n 
    2   30    0  6.992e-03  4.447e-02  0.3123 n n n n n n n n 
    3   40    0  2.491e-03  1.939e-02  0.3119 n n n n n n n n 
    4   50    0  9.415e-04  8.184e-03  0.3119 n n n n n n n n 
    5   20    0  6.792e-04  6.357e-03  0.3119 n n n n n n n n Subspace collapsed.
    6   30    0  1.333e-03  1.328e-02  0.3119 n n n n n n n n 
    7   40    0  1.165e-03  1.162e-02  0.3119 n n n n n n n n 
    8   50    0  9.834e-04  9.823e-03  0.3119 n n n n n n n n 
    9   20    0  5.590e-04  5.583e-03  0.3119 n n n n n n n n Subspace collapsed.
   10   30    3  4.249e-04  4.244e-03  0.3119 n y y y n n n n 
   11   40    5  1.940e-04  1.937e-03  0.3119 n y y y y y n n 
   12   50    5  1.830e-04  1.829e-03  0.3119 n y y y y y n n 
   13   20    6  1.324e-04  1.324e-03  0.3119 y y y y y y n n Subspace collapsed.
   14   30    6  2.309e-04  2.309e-03  0.3119 y y y y y y n n 
   15   40    7  1.926e-04  1.926e-03  0.3119 y y y y y y n y 
   16   50    8  2.105e-04  2.105e-03  0.3119 y y y y y y n y 
   17   20    8  1.137e-04  1.137e-03  0.3119 y y y y y y n y Subspace collapsed.
   18   30    8  9.992e-05  9.992e-04  0.3119 y y y y y y n y 
   19   40    8  4.052e-05  4.052e-04  0.3119 y y y y y y n y 
   20   50    8  4.746e-05  4.746e-04  0.3119 y y y y y y n y 
   21   20    8  3.188e-05  3.188e-04  0.3119 y y y y y y n y Subspace collapsed.
   22   30    9  5.884e-05  5.884e-04  0.3119 y y y y y y y y 
   23   32    9  5.887e-05  5.887e-04  0.3119 y y y y y y y y 
   24   33    9  5.710e-05  5.710e-04  0.3119 y y y y y y y y 
   25   34    9  5.651e-05  5.651e-04  0.3119 y y y y y y y y 
   26   35    9  5.651e-05  5.651e-04  0.3119 y y y y y y y y 
   27   36    9  5.633e-05  5.633e-04  0.3119 y y y y y y y y 
   28   37    9  5.619e-05  5.619e-04  0.3119 y y y y y y y y 
   29   37    9  5.619e-05  5.619e-04  0.3119 y y y y y y y y 
   30   47    9  4.929e-05  4.929e-04  0.3119 y y y y y y y y 
   31   50    9  5.237e-05  5.237e-04  0.3119 y y y y y y y y 
   32   16    9  3.834e-05  3.834e-04  0.3119 y y y y y y y y Subspace collapsed.
   33   21    9  2.508e-05  2.508e-04  0.3119 y y y y y y y y 
   34   26    9  2.210e-05  2.210e-04  0.3119 y y y y y y y y 
   35   30    9  3.041e-05  3.041e-04  0.3119 y y y y y y y y 
   36   34    9  3.151e-05  3.151e-04  0.3119 y y y y y y y y 
   37   38    9  2.418e-05  2.418e-04  0.3119 y y y y y y y y 
   38   42    9  1.758e-05  1.758e-04  0.3119 y y y y y y y y 
   39   46    9  1.145e-05  1.145e-04  0.3119 y y y y y y y y 
   40   50    9  5.343e-06  5.343e-05  0.3119 y y y y y y y y 
   41   14    9  2.506e-06  2.506e-05  0.3119 y y y y y y y y Subspace collapsed.
   42   18    9  2.047e-06  2.047e-05  0.3119 y y y y y y y y 
   43   22    9  1.104e-06  1.104e-05  0.3119 y y y y y y y y 
   44   26    9  6.240e-07  6.240e-06  0.3119 y y y y y y y y 
   45   30    9  4.306e-07  4.306e-06  0.3119 y y y y y y y y 
   46   34    9  2.842e-07  2.842e-06  0.3119 y y y y y y y y 
   47   38    9  1.619e-07  1.619e-06  0.3119 y y y y y y y y 
   48   41    9  1.683e-07  1.683e-06  0.3119 y y y y y y y y 
   49   44    9  1.388e-07  1.388e-06  0.3119 y y y y y y y y 
   50   46    9  1.951e-07  1.951e-06  0.3119 y y y y y y y y 
   51   48    9  1.767e-07  1.767e-06  0.3119 y y y y y y y y 
   52   50    9  1.175e-07  1.175e-06  0.3119 y y y y y y y y 
   53   12   10  5.541e-08  5.541e-07  0.3119 y y y y y y y y Converged.
--------------------------------------------------------------------------------
  Davidson Summary: 
 ------------------------------------------------------------
  State  0: excitation energy =   0.3119 a.u.   (converged)
  State  1: excitation energy =   0.3312 a.u.   (converged)
  State  2: excitation energy =   0.3328 a.u.   (converged)
  State  3: excitation energy =   0.3609 a.u.   (converged)
  State  4: excitation energy =   0.3678 a.u.   (converged)
  State  5: excitation energy =   0.3807 a.u.   (converged)
  State  6: excitation energy =   0.4297 a.u.   (converged)
  State  7: excitation energy =   0.4415 a.u.   (converged)
  State  8: excitation energy =   0.4506 a.u.   (converged)
  State  9: excitation energy =   0.4724 a.u.   (converged)
 ------------------------------------------------------------

  Singlet states of irrep A ...  CPU 129.41 s  wall 33.92 s
  TDMs ...  CPU 0.56 s  wall 0.22 s
  SDMs ...  CPU 1.17 s  wall 0.41 s
  Starting TPA DIIS iterations ... 
------------------------------------ 
   It     Res. Norm  Remark
------------------------------------
                       Guess.
    1     4.904e+00  
    2     6.616e+00  
    3     1.132e+00  
    4     2.693e-01  
    5     7.425e-02  
    6     2.731e-02  
    7     8.611e-03  
    8     1.290e-03  
    9     4.846e-04  
   10     8.500e-05  
   11     2.468e-05  
   12     4.227e-06  
   13     1.189e-06  
   14     4.214e-07  Converged.
   ... Converged in 14 steps (norm: 4.21364e-07)
------------------------------------
  Starting TPA DIIS iterations ... 
------------------------------------ 
   It     Res. Norm  Remark
------------------------------------
                       Guess.
    1     4.423e+00  
    2     5.990e+00  
    3     1.077e+00  
    4     2.836e-01  
    5     7.471e-02  
    6     2.980e-02  
    7     8.746e-03  
    8     1.503e-03  
    9     5.378e-04  
   10     9.347e-05  
   11     2.876e-05  
   12     4.521e-06  
   13     1.409e-06  
   14     4.321e-07  Converged.
   ... Converged in 14 steps (norm: 4.32104e-07)
------------------------------------
  Starting TPA DIIS iterations ... 
------------------------------------ 
   It     Res. Norm  Remark
------------------------------------
                       Guess.
    1     6.886e-01  
    2     4.891e-01  
    3     1.731e-01  
    4     7.373e-02  
    5     1.813e-02  
    6     6.512e-03  
    7     1.150e-03  
    8     4.057e-04  
    9     1.841e-04  
   10     3.828e-05  
   11     2.450e-05  
   12     8.796e-06  
   13     4.638e-06  
   14     1.873e-06  
   15     4.815e-07  Converged.
   ... Converged in 15 steps (norm: 4.81518e-07)
------------------------------------
  Starting TPA DIIS iterations ... 
------------------------------------ 
   It     Res. Norm  Remark
------------------------------------
                       Guess.
    1     5.478e+00  
    2     7.671e+00  
    3     1.284e+00  
    4     3.231e-01  
    5     9.089e-02  
    6     3.369e-02  
    7     1.060e-02  
    8     1.579e-03  
    9     6.033e-04  
   10     1.066e-04  
   11     3.158e-05  
   12     5.494e-06  
   13     1.563e-06  
   14     5.601e-07  Converged.
   ... Converged in 14 steps (norm: 5.60058e-07)
------------------------------------
  Starting TPA DIIS iterations ... 
------------------------------------ 
   It     Res. Norm  Remark
------------------------------------
                       Guess.
    1     4.939e+00  
    2     6.944e+00  
    3     1.219e+00  
    4     3.401e-01  
    5     9.155e-02  
    6     3.700e-02  
    7     1.079e-02  
    8     1.850e-03  
    9     6.693e-04  
   10     1.174e-04  
   11     3.674e-05  
   12     5.831e-06  
   13     1.859e-06  
   14     5.661e-07  Converged.
   ... Converged in 14 steps (norm: 5.66087e-07)
------------------------------------
  Starting TPA DIIS iterations ... 
------------------------------------ 
   It     Res. Norm  Remark
------------------------------------
                       Guess.
    1     7.090e-01  
    2     5.197e-01  
    3     1.906e-01  
    4     9.191e-02  
    5     2.047e-02  
    6     7.596e-03  
    7     1.415e-03  
    8     4.988e-04  
    9     2.330e-04  
   10     5.496e-05  
   11     3.249e-05  
   12     1.191e-05  
   13     6.682e-06  
   14     2.848e-06  
   15     6.880e-07  Converged.
   ... Converged in 15 steps (norm: 6.87971e-07)
------------------------------------
  Starting TPA DIIS iterations ... 
------------------------------------ 
   It     Res. Norm  Remark
------------------------------------
                       Guess.
    1     5.531e+00  
    2     7.768e+00  
    3     1.297e+00  
    4     3.281e-01  
    5     9.245e-02  
    6     3.429e-02  
    7     1.079e-02  
    8     1.606e-03  
    9     6.146e-04  
   10     1.086e-04  
   11     3.225e-05  
   12     5.616e-06  
   13     1.600e-06  
   14     5.736e-07  Converged.
   ... Converged in 14 steps (norm: 5.73616e-07)
------------------------------------
  Starting TPA DIIS iterations ... 
------------------------------------ 
   It     Res. Norm  Remark
------------------------------------
                       Guess.
    1     4.986e+00  
    2     7.032e+00  
    3     1.232e+00  
    4     3.454e-01  
    5     9.313e-02  
    6     3.768e-02  
    7     1.099e-02  
    8     1.882e-03  
    9     6.817e-04  
   10     1.196e-04  
   11     3.751e-05  
   12     5.956e-06  
   13     1.903e-06  
   14     5.791e-07  Converged.
   ... Converged in 14 steps (norm: 5.79072e-07)
------------------------------------
  Starting TPA DIIS iterations ... 
------------------------------------ 
   It     Res. Norm  Remark
------------------------------------
                       Guess.
    1     7.107e-01  
    2     5.223e-01  
    3     1.921e-01  
    4     9.365e-02  
    5     2.068e-02  
    6     7.698e-03  
    7     1.440e-03  
    8     5.074e-04  
    9     2.376e-04  
   10     5.664e-05  
   11     3.328e-05  
   12     1.222e-05  
   13     6.899e-06  
   14     2.949e-06  
   15     7.069e-07  Converged.
   ... Converged in 15 steps (norm: 7.06921e-07)
------------------------------------
  Starting TPA DIIS iterations ... 
------------------------------------ 
   It     Res. Norm  Remark
------------------------------------
                       Guess.
    1     6.603e+00  
    2     9.830e+00  
    3     1.578e+00  
    4     4.379e-01  
    5     1.265e-01  
    6     4.749e-02  
    7     1.485e-02  
    8     2.191e-03  
    9     8.617e-04  
   10     1.535e-04  
   11     4.721e-05  
   12     8.376e-06  
   13     2.446e-06  
   14     8.913e-07  Converged.
   ... Converged in 14 steps (norm: 8.91292e-07)
------------------------------------
  Starting TPA DIIS iterations ... 
------------------------------------ 
   It     Res. Norm  Remark
------------------------------------
                       Guess.
    1     5.951e+00  
    2     8.899e+00  
    3     1.497e+00  
    4     4.608e-01  
    5     1.277e-01  
    6     5.268e-02  
    7     1.518e-02  
    8     2.589e-03  
    9     9.540e-04  
   10     1.692e-04  
   11     5.455e-05  
   12     8.740e-06  
   13     2.924e-06  
   14     8.797e-07  Converged.
   ... Converged in 14 steps (norm: 8.797e-07)
------------------------------------
  Starting TPA DIIS iterations ... 
------------------------------------ 
   It     Res. Norm  Remark
------------------------------------
                       Guess.
    1     7.428e-01  
    2     5.744e-01  
    3     2.232e-01  
    4     1.322e-01  
    5     2.517e-02  
    6     9.907e-03  
    7     2.007e-03  
    8     6.808e-04  
    9     3.369e-04  
   10     9.690e-05  
   11     5.161e-05  
   12     2.001e-05  
   13     1.278e-05  
   14     5.466e-06  
   15     1.122e-06  
   16     4.243e-07  Converged.
   ... Converged in 16 steps (norm: 4.24291e-07)
------------------------------------
  Starting TPA DIIS iterations ... 
------------------------------------ 
   It     Res. Norm  Remark
------------------------------------
                       Guess.
    1     6.921e+00  
    2     1.046e+01  
    3     1.661e+00  
    4     4.724e-01  
    5     1.372e-01  
    6     5.167e-02  
    7     1.613e-02  
    8     2.374e-03  
    9     9.404e-04  
   10     1.678e-04  
   11     5.208e-05  
   12     9.279e-06  
   13     2.732e-06  
   14     1.000e-06  
   15     3.243e-07  Converged.
   ... Converged in 15 steps (norm: 3.24311e-07)
------------------------------------
  Starting TPA DIIS iterations ... 
------------------------------------ 
   It     Res. Norm  Remark
------------------------------------
                       Guess.
    1     6.237e+00  
    2     9.471e+00  
    3     1.574e+00  
    4     4.971e-01  
    5     1.386e-01  
    6     5.746e-02  
    7     1.650e-02  
    8     2.811e-03  
    9     1.040e-03  
   10     1.850e-04  
   11     6.003e-05  
   12     9.631e-06  
   13     3.268e-06  
   14     9.819e-07  Converged.
   ... Converged in 14 steps (norm: 9.81889e-07)
------------------------------------
  Starting TPA DIIS iterations ... 
------------------------------------ 
   It     Res. Norm  Remark
------------------------------------
                       Guess.
    1     7.512e-01  
    2     5.888e-01  
    3     2.321e-01  
    4     1.446e-01  
    5     2.656e-02  
    6     1.060e-02  
    7     2.191e-03  
    8     7.295e-04  
    9     3.677e-04  
   10     1.107e-04  
   11     5.786e-05  
   12     2.280e-05  
   13     1.512e-05  
   14     6.349e-06  
   15     1.268e-06  
   16     4.851e-07  Converged.
   ... Converged in 16 steps (norm: 4.8507e-07)
------------------------------------
  Starting TPA DIIS iterations ... 
------------------------------------ 
   It     Res. Norm  Remark
------------------------------------
                       Guess.
    1     7.578e+00  
    2     1.180e+01  
    3     1.831e+00  
    4     5.465e-01  
    5     1.603e-01  
    6     6.070e-02  
    7     1.888e-02  
    8     2.765e-03  
    9     1.111e-03  
   10     1.986e-04  
   11     6.276e-05  
   12     1.126e-05  
   13     3.371e-06  
   14     1.249e-06  
   15     4.117e-07  Converged.
   ... Converged in 15 steps (norm: 4.11686e-07)
------------------------------------
  Starting TPA DIIS iterations ... 
------------------------------------ 
   It     Res. Norm  Remark
------------------------------------
                       Guess.
    1     6.830e+00  
    2     1.068e+01  
    3     1.734e+00  
    4     5.750e-01  
    5     1.620e-01  
    6     6.781e-02  
    7     1.934e-02  
    8     3.285e-03  
    9     1.227e-03  
   10     2.189e-04  
   11     7.189e-05  
   12     1.155e-05  
   13     4.038e-06  
   14     1.215e-06  
   15     6.548e-07  Converged.
   ... Converged in 15 steps (norm: 6.54765e-07)
------------------------------------
  Starting TPA DIIS iterations ... 
------------------------------------ 
   It     Res. Norm  Remark
------------------------------------
                       Guess.
    1     7.674e-01  
    2     6.175e-01  
    3     2.501e-01  
    4     1.709e-01  
    5     2.949e-02  
    6     1.208e-02  
    7     2.592e-03  
    8     8.248e-04  
    9     4.330e-04  
   10     1.414e-04  
   11     7.198e-05  
   12     2.929e-05  
   13     2.090e-05  
   14     8.343e-06  
   15     1.635e-06  
   16     6.261e-07  Converged.
   ... Converged in 16 steps (norm: 6.26125e-07)
------------------------------------
  Starting TPA DIIS iterations ... 
------------------------------------ 
   It     Res. Norm  Remark
------------------------------------
                       Guess.
    1     1.129e+01  
    2     1.998e+01  
    3     2.768e+00  
    4     1.016e+00  
    5     3.080e-01  
    6     1.196e-01  
    7     3.642e-02  
    8     5.241e-03  
    9     2.234e-03  
   10     3.991e-04  
   11     1.339e-04  
   12     2.475e-05  
   13     8.116e-06  
   14     3.361e-06  
   15     1.143e-06  
   16     4.268e-07  Converged.
   ... Converged in 16 steps (norm: 4.26769e-07)
------------------------------------
  Starting TPA DIIS iterations ... 
------------------------------------ 
   It     Res. Norm  Remark
------------------------------------
                       Guess.
    1     1.018e+01  
    2     1.810e+01  
    3     2.613e+00  
    4     1.068e+00  
    5     3.128e-01  
    6     1.361e-01  
    7     3.750e-02  
    8     6.300e-03  
    9     2.441e-03  
   10     4.384e-04  
   11     1.471e-04  
   12     2.381e-05  
   13     9.823e-06  
   14     3.275e-06  
   15     2.199e-06  
   16     8.927e-07  Converged.
   ... Converged in 16 steps (norm: 8.92656e-07)
------------------------------------
  Starting TPA DIIS iterations ... 
------------------------------------ 
   It     Res. Norm  Remark
------------------------------------
                       Guess.
    1     8.369e-01  
    2     7.591e-01  
    3     3.439e-01  
    4     3.224e-01  
    5     4.760e-02  
    6     2.091e-02  
    7     5.227e-03  
    8     1.293e-03  
    9     8.284e-04  
   10     3.537e-04  
   11     1.789e-04  
   12     8.088e-05  
   13     6.951e-05  
   14     2.298e-05  
   15     5.703e-06  
   16     1.876e-06  
   17     6.384e-07  Converged.
   ... Converged in 17 steps (norm: 6.38399e-07)
------------------------------------
  Starting TPA DIIS iterations ... 
------------------------------------ 
   It     Res. Norm  Remark
------------------------------------
                       Guess.
    1     1.263e+01  
    2     2.315e+01  
    3     3.093e+00  
    4     1.201e+00  
    5     3.669e-01  
    6     1.435e-01  
    7     4.340e-02  
    8     6.218e-03  
    9     2.694e-03  
   10     4.798e-04  
   11     1.626e-04  
   12     3.043e-05  
   13     1.026e-05  
   14     4.447e-06  
   15     1.534e-06  
   16     5.977e-07  Converged.
   ... Converged in 16 steps (norm: 5.97731e-07)
------------------------------------
  Starting TPA DIIS iterations ... 
------------------------------------ 
   It     Res. Norm  Remark
------------------------------------
                       Guess.
    1     1.139e+01  
    2     2.097e+01  
    3     2.918e+00  
    4     1.261e+00  
    5     3.730e-01  
    6     1.639e-01  
    7     4.473e-02  
    8     7.492e-03  
    9     2.931e-03  
   10     5.261e-04  
   11     1.761e-04  
   12     2.872e-05  
   13     1.257e-05  
   14     4.426e-06  
   15     3.058e-06  
   16     1.310e-06  
   17     8.417e-07  Converged.
   ... Converged in 17 steps (norm: 8.4167e-07)
------------------------------------
  Starting TPA DIIS iterations ... 
------------------------------------ 
   It     Res. Norm  Remark
------------------------------------
                       Guess.
    1     8.561e-01  
    2     8.040e-01  
    3     3.749e-01  
    4     3.702e-01  
    5     5.449e-02  
    6     2.398e-02  
    7     6.260e-03  
    8     1.483e-03  
    9     9.785e-04  
   10     4.393e-04  
   11     2.268e-04  
   12     1.037e-04  
   13     8.938e-05  
   14     2.932e-05  
   15     7.972e-06  
   16     2.615e-06  
   17     9.051e-07  Converged.
   ... Converged in 17 steps (norm: 9.0509e-07)
------------------------------------
  Starting TPA DIIS iterations ... 
------------------------------------ 
   It     Res. Norm  Remark
------------------------------------
                       Guess.
    1     1.384e+01  
    2     2.613e+01  
    3     3.386e+00  
    4     1.374e+00  
    5     4.229e-01  
    6     1.663e-01  
    7     5.003e-02  
    8     7.144e-03  
    9     3.135e-03  
   10     5.567e-04  
   11     1.898e-04  
   12     3.599e-05  
   13     1.243e-05  
   14     5.599e-06  
   15     1.976e-06  
   16     7.914e-07  Converged.
   ... Converged in 16 steps (norm: 7.91405e-07)
------------------------------------
  Starting TPA DIIS iterations ... 
------------------------------------ 
   It     Res. Norm  Remark
------------------------------------
                       Guess.
    1     1.249e+01  
    2     2.367e+01  
    3     3.193e+00  
    4     1.442e+00  
    5     4.303e-01  
    6     1.907e-01  
    7     5.160e-02  
    8     8.621e-03  
    9     3.400e-03  
   10     6.093e-04  
   11     2.033e-04  
   12     3.347e-05  
   13     1.542e-05  
   14     5.700e-06  
   15     4.005e-06  
   16     1.764e-06  
   17     1.074e-06  
   18     4.561e-07  Converged.
   ... Converged in 18 steps (norm: 4.56059e-07)
------------------------------------
  Starting TPA DIIS iterations ... 
------------------------------------ 
   It     Res. Norm  Remark
------------------------------------
                       Guess.
    1     8.719e-01  
    2     8.433e-01  
    3     4.022e-01  
    4     4.090e-01  
    5     6.089e-02  
    6     2.663e-02  
    7     7.217e-03  
    8     1.682e-03  
    9     1.119e-03  
   10     5.195e-04  
   11     2.742e-04  
   12     1.260e-04  
   13     1.071e-04  
   14     3.553e-05  
   15     1.039e-05  
   16     3.490e-06  
   17     1.265e-06  
   18     5.411e-07  Converged.
   ... Converged in 18 steps (norm: 5.4114e-07)
------------------------------------
  Starting TPA DIIS iterations ... 
------------------------------------ 
   It     Res. Norm  Remark
------------------------------------
                       Guess.
    1     1.757e+01  
    2     3.583e+01  
    3     4.261e+00  
    4     1.929e+00  
    5     6.064e-01  
    6     2.423e-01  
    7     7.175e-02  
    8     1.017e-02  
    9     4.613e-03  
   10     8.097e-04  
   11     2.796e-04  
   12     5.552e-05  
   13     2.046e-05  
   14     1.019e-05  
   15     4.024e-06  
   16     1.659e-06  
   17     8.002e-07  Converged.
   ... Converged in 17 steps (norm: 8.00245e-07)
------------------------------------
  Starting TPA DIIS iterations ... 
------------------------------------ 
   It     Res. Norm  Remark
------------------------------------
                       Guess.
    1     1.586e+01  
    2     3.248e+01  
    3     4.012e+00  
    4     2.018e+00  
    5     6.181e-01  
    6     2.798e-01  
    7     7.411e-02  
    8     1.231e-02  
    9     4.953e-03  
   10     8.814e-04  
   11     2.922e-04  
   12     5.002e-05  
   13     2.625e-05  
   14     1.093e-05  
   15     7.907e-06  
   16     3.569e-06  
   17     1.923e-06  
   18     9.552e-07  Converged.
   ... Converged in 18 steps (norm: 9.55161e-07)
------------------------------------
  Starting TPA DIIS iterations ... 
------------------------------------ 
   It     Res. Norm  Remark
------------------------------------
                       Guess.
    1     9.133e-01  
    2     9.568e-01  
    3     4.808e-01  
    4     5.001e-01  
    5     8.095e-02  
    6     3.356e-02  
    7     1.018e-02  
    8     2.436e-03  
    9     1.567e-03  
   10     7.720e-04  
   11     4.385e-04  
   12     2.018e-04  
   13     1.520e-04  
   14     5.679e-05  
   15     1.986e-05  
   16     7.887e-06  
   17     2.597e-06  
   18     1.091e-06  
   19     4.294e-07  Converged.
   ... Converged in 19 steps (norm: 4.29366e-07)
------------------------------------
  Two-photon absorbption ...  CPU 100.57 s  wall 19.23 s
  Transition density matrix of state singlet_A_1 printed to ASCII file 'State_singlet_A_1_Transition.txt'
  Transition density matrix of state singlet_A_2 printed to ASCII file 'State_singlet_A_2_Transition.txt'
  Transition density matrix of state singlet_A_3 printed to ASCII file 'State_singlet_A_3_Transition.txt'
  Transition density matrix of state singlet_A_4 printed to ASCII file 'State_singlet_A_4_Transition.txt'
  Transition density matrix of state singlet_A_5 printed to ASCII file 'State_singlet_A_5_Transition.txt'
  Transition density matrix of state singlet_A_6 printed to ASCII file 'State_singlet_A_6_Transition.txt'
  Transition density matrix of state singlet_A_7 printed to ASCII file 'State_singlet_A_7_Transition.txt'
  Transition density matrix of state singlet_A_8 printed to ASCII file 'State_singlet_A_8_Transition.txt'
  Transition density matrix of state singlet_A_9 printed to ASCII file 'State_singlet_A_9_Transition.txt'
  Transition density matrix of state singlet_A_10 printed to ASCII file 'State_singlet_A_10_Transition.txt'
  Transition properties ...  CPU 0.15 s  wall 2.88 s
  Difference density matrix of state singlet_A_1 printed to ASCII file 'State_singlet_A_1_Difference.txt'
  Total density matrix of state singlet_A_1 printed to ASCII file 'State_singlet_A_1_Total.txt'
  Difference density matrix of state singlet_A_2 printed to ASCII file 'State_singlet_A_2_Difference.txt'
  Total density matrix of state singlet_A_2 printed to ASCII file 'State_singlet_A_2_Total.txt'
  Difference density matrix of state singlet_A_3 printed to ASCII file 'State_singlet_A_3_Difference.txt'
  Total density matrix of state singlet_A_3 printed to ASCII file 'State_singlet_A_3_Total.txt'
  Difference density matrix of state singlet_A_4 printed to ASCII file 'State_singlet_A_4_Difference.txt'
  Total density matrix of state singlet_A_4 printed to ASCII file 'State_singlet_A_4_Total.txt'
  Difference density matrix of state singlet_A_5 printed to ASCII file 'State_singlet_A_5_Difference.txt'
  Total density matrix of state singlet_A_5 printed to ASCII file 'State_singlet_A_5_Total.txt'
  Difference density matrix of state singlet_A_6 printed to ASCII file 'State_singlet_A_6_Difference.txt'
  Total density matrix of state singlet_A_6 printed to ASCII file 'State_singlet_A_6_Total.txt'
  Difference density matrix of state singlet_A_7 printed to ASCII file 'State_singlet_A_7_Difference.txt'
  Total density matrix of state singlet_A_7 printed to ASCII file 'State_singlet_A_7_Total.txt'
  Difference density matrix of state singlet_A_8 printed to ASCII file 'State_singlet_A_8_Difference.txt'
  Total density matrix of state singlet_A_8 printed to ASCII file 'State_singlet_A_8_Total.txt'
  Difference density matrix of state singlet_A_9 printed to ASCII file 'State_singlet_A_9_Difference.txt'
  Total density matrix of state singlet_A_9 printed to ASCII file 'State_singlet_A_9_Total.txt'
  Difference density matrix of state singlet_A_10 printed to ASCII file 'State_singlet_A_10_Difference.txt'
  Total density matrix of state singlet_A_10 printed to ASCII file 'State_singlet_A_10_Total.txt'
  Properties ...  CPU 0.27 s  wall 1.21 s
  ISR TDMS ...  CPU 7.96 s  wall 2.71 s
  ISR transition properties ...  CPU 0.15 s  wall 0.07 s
  Sum-over-states TPA ...  CPU 0.00 s  wall 0.00 s

--------------------------------------------------------------------------------
                   State-averaged natural transition orbitals
--------------------------------------------------------------------------------
--------------------------------------------------------------------------------
  SA-NTO decomposition ...  CPU 0.01 s  wall 0.03 s

--------------------------------------------------------------------------------
                             Excited State Summary
--------------------------------------------------------------------------------
--------------------------------------------------------------------------------

  Excited state 1 (singlet, A)                                     [converged]
  ----------------------------------------------------------------------------
  Term symbol:  2 (1) A                                     R^2 =  1.78240e-13

  Total energy:                                            -78.0055746636 a.u.
  Excitation energy:                                               8.486750 eV

  Osc. strength:                                                      0.431703
  Trans. dip. moment [a.u.]:           [  -1.050989,    0.985685,    0.011106]
  <i|r^2|0> [a.u.]:                    [  -6.238256,    0.226008,    0.001789]
  Two-photon absorption cross-section (SoS) [a.u.]:                   0.026243
  Two-photon absorption matrix (SoS) [a.u.]:
                                       |    0.060193    0.030681    0.005851 |
                                       |    0.030681   -0.011480    0.002110 |
                                       |    0.005851    0.002110   -0.022283 |
  Two-photon absorption cross-section [a.u.]:                         0.020300
  Two-photon absorption matrix [a.u.]:
                                       |    0.024897    0.011420    0.002048 |
                                       |    0.011420   -0.044296   -0.000968 |
                                       |    0.002048   -0.000968   -0.030919 |

  Dip. moment [a.u.]:                  [  -0.001135,   -0.002252,   -0.000976]
  Total dipole [Debye]:                                               0.006874
  <r^2> [a.u.]:                        [ 179.579179,   35.664722,   11.865960]
  Total <r^2> [a.u.]:                                               227.109861

  V1^2 = 0.9715, V2^2 = 0.0285

  Important amplitudes:
      occ i     occ j     vir a      vir b          v   
    -----------------------------------------------------
     8 (A) A              9 (A) A                 0.6807
     6 (A) A             14 (A) A                 0.0681
     4 (A) A             10 (A) A                 0.0579
     7 (A) A             16 (A) A                 0.0539
     5 (A) A             13 (A) A                 0.0491
     6 (A) A             23 (A) A                -0.0467
     8 (A) A             20 (A) A                 0.0361
     6 (A) A             19 (A) A                -0.0354
     3 (A) A             12 (A) A                -0.0285
     7 (A) A             11 (A) A                 0.0237
     5 (A) A             22 (A) A                 0.0195
     8 (A) A   8 (A) B   17 (A) A   20 (A) B     -0.0186
     4 (A) A             24 (A) A                 0.0181
     3 (A) A             26 (A) A                -0.0181
     6 (A) A             26 (A) A                 0.0154
     7 (A) A             21 (A) A                -0.0150
     3 (A) A             14 (A) A                -0.0142
     8 (A) A   8 (A) B    9 (A) A   27 (A) B     -0.0142
     3 (A) A   4 (A) B    9 (A) A    9 (A) B     -0.0130
     3 (A) A             19 (A) A                 0.0125
     6 (A) A             22 (A) A                 0.0118
     8 (A) A   8 (A) B   18 (A) A   19 (A) B     -0.0113
     7 (A) A             32 (A) A                -0.0092
     8 (A) A   8 (A) B    9 (A) A   28 (A) B      0.0090
     6 (A) A             16 (A) A                -0.0086
     7 (A) A             14 (A) A                 0.0084
     7 (A) A             36 (A) A                 0.0083
     3 (A) A             23 (A) A                 0.0076
     8 (A) A   8 (A) B   25 (A) A   29 (A) B     -0.0076
     6 (A) A             12 (A) A                -0.0076
     7 (A) A             23 (A) A                -0.0072
     6 (A) A             40 (A) A                 0.0066
     6 (A) A             35 (A) A                -0.0066
     5 (A) A             23 (A) A                 0.0064
     5 (A) A   7 (A) B    9 (A) A    9 (A) B      0.0059
     7 (A) A             19 (A) A                -0.0059
     5 (A) A   8 (A) B   11 (A) A   20 (A) B      0.0059
     7 (A) A   8 (A) B   13 (A) A   20 (A) B      0.0058
     6 (A) A   8 (A) A    9 (A) A   18 (A) A      0.0057
     5 (A) A   8 (A) B   16 (A) A    9 (A) B      0.0057
    -----------------------------------------------------

  Density matrix analysis:
  ------------------------
  NOs
    Occupation of frontier NOs:
       0.9488   1.0221
    Number of electrons: 16.000000
    Number of unpaired electrons: n_u =  2.31458, n_u,nl =  2.03372
    NO participation ratio (PR_NO):  2.869506
  
  
  Mulliken Population Analysis
  Atom      Charge (e)              h+              e-           Del q
  --------------------------------------------------------------------
   1 H        0.061129        0.019420       -0.012238        0.007182
   2 C       -0.127614        0.488522       -0.502515       -0.013993
   3 H        0.057555        0.018788       -0.012616        0.006172
   4 C       -0.100995        0.488993       -0.501072       -0.012079
   5 H        0.059604        0.018876       -0.012770        0.006106
   6 H        0.050320        0.019139       -0.012527        0.006612
  --------------------------------------------------------------------
  Sum:        0.000000        1.053737       -1.053737       -0.000000
  
  Multipole moment analysis of the density matrix
    Molecular charge:                      -0.000000
    Number of electrons:                   16.000000
      Center of electronic charge [Ang]: [ -1.575539,  -0.065528,   0.002010]
    Total nuclear charge:                  16.000000
      Center of nuclear charge [Ang]:    [ -1.575576,  -0.065602,   0.001978]
    Dipole moment [D]:                     0.006874
      Cartesian components [D]:          [ -0.002885,  -0.005724,  -0.002481]
    RMS size of the density [Ang]:         1.219921
      Cartesian components [Ang]:        [  0.812794,   0.787339,   0.455710]
  
  Exciton analysis of the difference density matrix
    <r_h> [Ang]:                  [ -1.578700,  -0.065502,   0.002143]
    <r_e> [Ang]:                  [ -1.578803,  -0.066071,   0.002206]
    |<r_e - r_h>| [Ang]:            0.000581
    Hole size [Ang]:                1.289285
      Cartesian components [Ang]: [  0.735469,   0.709481,   0.786116]
    Electron size [Ang]:            1.462090
      Cartesian components [Ang]: [  0.863787,   0.821994,   0.846112]

  Transition density matrix analysis:
  -----------------------------------
  
  CT numbers (Mulliken)
    omega =     0.9535
    <Phe> =    -0.1680
  
  Exciton analysis of the transition density matrix
    Trans. dipole moment [D]:             1.831238
      Cartesian components [D]:         [ -1.335674,   1.252680,   0.014114]
    <r_h> [Ang]:                        [ -1.580354,  -0.064910,   0.002056]
    <r_e> [Ang]:                        [ -1.578514,  -0.066103,   0.002263]
    |<r_e - r_h>| [Ang]:                  0.002203
    Hole size [Ang]:                      1.225148
      Cartesian components [Ang]:       [  0.662649,   0.639534,   0.808010]
    Electron size [Ang]:                  1.481276
      Cartesian components [Ang]:       [  0.872895,   0.828659,   0.863456]
    RMS electron-hole separation [Ang]:   1.944978
      Cartesian components [Ang]:       [  1.127875,   1.069892,   1.168833]
    Covariance(r_h, r_e) [Ang^2]:        -0.043885
    Correlation coefficient:             -0.024182
    Center-of-mass size [Ang]:            0.949657
      Cartesian components [Ang]:       [  0.531507,   0.511540,   0.598060]

  Decomposition into state-averaged NTOs
    H- 0 -> L+ 0: -0.6693 ( 89.6%)
    H- 2 -> L+ 5:  0.0888 (  1.6%)
    H- 5 -> L+ 6:  0.0733 (  1.1%)
                   omega =  95.4%
  ----------------------------------------------------------------------------


  Excited state 2 (singlet, A)                                     [converged]
  ----------------------------------------------------------------------------
  Term symbol:  3 (1) A                                     R^2 =  8.54385e-14

  Total energy:                                            -77.9862576252 a.u.
  Excitation energy:                                               9.012394 eV

  Osc. strength:                                                      0.008685
  Trans. dip. moment [a.u.]:           [  -0.011699,   -0.009948,    0.197729]
  <i|r^2|0> [a.u.]:                    [  -0.033303,    0.085055,   -0.125580]
  Two-photon absorption cross-section (SoS) [a.u.]:                   5.360352
  Two-photon absorption matrix (SoS) [a.u.]:
                                       |    0.037531    0.059726   -0.474796 |
                                       |    0.059726    0.093705   -0.654727 |
                                       |   -0.474796   -0.654727   -0.120449 |
  Two-photon absorption cross-section [a.u.]:                         0.286206
  Two-photon absorption matrix [a.u.]:
                                       |   -0.001834   -0.000376   -0.119768 |
                                       |   -0.000376    0.000370    0.146244 |
                                       |   -0.119768    0.146244    0.007961 |

  Dip. moment [a.u.]:                  [  -0.249522,   -0.353121,   -0.033461]
  Total dipole [Debye]:                                               1.102297
  <r^2> [a.u.]:                        [ 178.946261,   35.747224,   12.471051]
  Total <r^2> [a.u.]:                                               227.164536

  V1^2 = 0.9554, V2^2 = 0.0446

  Important amplitudes:
      occ i     occ j     vir a      vir b          v   
    -----------------------------------------------------
     7 (A) A              9 (A) A                 0.5486
     8 (A) A             10 (A) A                -0.3904
     8 (A) A             11 (A) A                 0.1302
     7 (A) A             20 (A) A                 0.0622
     8 (A) A             24 (A) A                -0.0272
     5 (A) A   8 (A) B    9 (A) A    9 (A) B      0.0264
     8 (A) A             16 (A) A                -0.0253
     6 (A) A              9 (A) A                 0.0253
     8 (A) A             21 (A) A                -0.0182
     8 (A) A             18 (A) A                 0.0177
     8 (A) A             12 (A) A                -0.0144
     8 (A) A   8 (A) B    9 (A) A   12 (A) B      0.0126
     4 (A) A   7 (A) B    9 (A) A   19 (A) B     -0.0109
     4 (A) A              9 (A) A                -0.0107
     5 (A) A   7 (A) B    9 (A) A   16 (A) B     -0.0106
     8 (A) A             15 (A) A                -0.0099
     5 (A) A             27 (A) A                 0.0099
     8 (A) A   8 (A) B   10 (A) A   17 (A) B     -0.0095
     5 (A) A   8 (A) B   11 (A) A   10 (A) B      0.0089
     7 (A) A   8 (A) B   20 (A) A   17 (A) B     -0.0085
     7 (A) A   8 (A) B   13 (A) A   10 (A) B      0.0078
     3 (A) A              9 (A) A                -0.0078
     5 (A) A   8 (A) B    9 (A) A   20 (A) B      0.0077
     5 (A) A   6 (A) A    9 (A) A   14 (A) A     -0.0077
     5 (A) A   6 (A) B    9 (A) A   19 (A) B      0.0073
     5 (A) A   6 (A) A    9 (A) A   23 (A) A      0.0072
     4 (A) A   6 (A) B    9 (A) A   16 (A) B      0.0071
     4 (A) A   5 (A) A    9 (A) A   10 (A) A      0.0069
     7 (A) A   8 (A) A    9 (A) A   27 (A) A      0.0066
     3 (A) A   7 (A) B    9 (A) A   18 (A) B      0.0065
     5 (A) A   7 (A) A    9 (A) A   16 (A) A     -0.0064
     5 (A) A             28 (A) A                -0.0063
     4 (A) A   8 (A) B    9 (A) A   25 (A) B      0.0063
     7 (A) A   8 (A) B   17 (A) A   20 (A) B     -0.0062
     5 (A) A   6 (A) B    9 (A) A   23 (A) B      0.0061
     4 (A) A   8 (A) B   12 (A) A   10 (A) B      0.0061
     7 (A) A   8 (A) B   19 (A) A   18 (A) B     -0.0060
     6 (A) A   7 (A) B    9 (A) A   18 (A) B      0.0060
     8 (A) A   7 (A) B    9 (A) A   27 (A) B     -0.0060
     7 (A) A   8 (A) B   22 (A) A   10 (A) B      0.0059
    -----------------------------------------------------

  Density matrix analysis:
  ------------------------
  NOs
    Occupation of frontier NOs:
       0.6535   1.3507
    Number of electrons: 16.000000
    Number of unpaired electrons: n_u =  2.35314, n_u,nl =  2.32168
    NO participation ratio (PR_NO):  4.847941
  
  
  Mulliken Population Analysis
  Atom      Charge (e)              h+              e-           Del q
  --------------------------------------------------------------------
   1 H       -0.014506        0.086447       -0.154900       -0.068453
   2 C       -0.108878        0.327185       -0.322443        0.004743
   3 H        0.127535        0.111397       -0.035245        0.076152
   4 C       -0.078523        0.321393       -0.311001        0.010392
   5 H        0.002997        0.119122       -0.169623       -0.050501
   6 H        0.071375        0.065829       -0.038162        0.027667
  --------------------------------------------------------------------
  Sum:        0.000000        1.031374       -1.031374        0.000000
  
  Multipole moment analysis of the density matrix
    Molecular charge:                      0.000000
    Number of electrons:                   16.000000
      Center of electronic charge [Ang]: [ -1.567324,  -0.053923,   0.003085]
    Total nuclear charge:                  16.000000
      Center of nuclear charge [Ang]:    [ -1.575576,  -0.065602,   0.001978]
    Dipole moment [D]:                     1.102296
      Cartesian components [D]:          [ -0.634221,  -0.897545,  -0.085049]
    RMS size of the density [Ang]:         1.231407
      Cartesian components [Ang]:        [  0.821812,   0.789134,   0.467179]
  
  Exciton analysis of the difference density matrix
    <r_h> [Ang]:                  [ -1.530117,  -0.045034,   0.005411]
    <r_e> [Ang]:                  [ -1.402780,   0.134409,   0.022142]
    |<r_e - r_h>| [Ang]:            0.220668
    Hole size [Ang]:                1.475063
      Cartesian components [Ang]: [  0.890297,   1.000961,   0.617462]
    Electron size [Ang]:            1.741779
      Cartesian components [Ang]: [  1.097382,   1.088306,   0.803204]

  Transition density matrix analysis:
  -----------------------------------
  
  CT numbers (Mulliken)
    omega =     0.9216
    <Phe> =    -0.0117
  
  Exciton analysis of the transition density matrix
    Trans. dipole moment [D]:             0.252045
      Cartesian components [D]:         [ -0.014867,  -0.012642,   0.251288]
    <r_h> [Ang]:                        [ -1.537491,  -0.056231,   0.004366]
    <r_e> [Ang]:                        [ -1.394561,   0.151386,   0.023582]
    |<r_e - r_h>| [Ang]:                  0.252790
    Hole size [Ang]:                      1.419632
      Cartesian components [Ang]:       [  0.842758,   0.974187,   0.596719]
    Electron size [Ang]:                  1.760129
      Cartesian components [Ang]:       [  1.109202,   1.095575,   0.816972]
    RMS electron-hole separation [Ang]:   2.263843
      Cartesian components [Ang]:       [  1.393605,   1.470066,   1.010820]
    Covariance(r_h, r_e) [Ang^2]:         0.026165
    Correlation coefficient:              0.010471
    Center-of-mass size [Ang]:            1.136413
      Cartesian components [Ang]:       [  0.699899,   0.738353,   0.506370]

  Decomposition into state-averaged NTOs
    H- 1 -> L+ 0: -0.5421 ( 58.8%)
    H- 0 -> L+ 1: -0.3928 ( 30.9%)
    H- 0 -> L+ 2:  0.1041 (  2.2%)
                   omega =  92.2%
  ----------------------------------------------------------------------------


  Excited state 3 (singlet, A)                                     [converged]
  ----------------------------------------------------------------------------
  Term symbol:  4 (1) A                                     R^2 =  1.95921e-13

  Total energy:                                            -77.9846707464 a.u.
  Excitation energy:                                               9.055575 eV

  Osc. strength:                                                      0.016825
  Trans. dip. moment [a.u.]:           [  -0.013052,   -0.016082,    0.274604]
  <i|r^2|0> [a.u.]:                    [  -0.102235,   -0.063089,    0.081016]
  Two-photon absorption cross-section (SoS) [a.u.]:                   0.863505
  Two-photon absorption matrix (SoS) [a.u.]:
                                       |   -0.016919   -0.019567    0.085036 |
                                       |   -0.019567   -0.031784    0.313698 |
                                       |    0.085036    0.313698    0.050372 |
  Two-photon absorption cross-section [a.u.]:                         0.271682
  Two-photon absorption matrix [a.u.]:
                                       |    0.005648    0.011493   -0.060974 |
                                       |    0.011493    0.023083   -0.171905 |
                                       |   -0.060974   -0.171905   -0.023195 |

  Dip. moment [a.u.]:                  [   0.030059,    0.157852,    0.010874]
  Total dipole [Debye]:                                               0.409364
  <r^2> [a.u.]:                        [ 182.501616,   38.391884,   11.768379]
  Total <r^2> [a.u.]:                                               232.661880

  V1^2 = 0.9574, V2^2 = 0.0426

  Important amplitudes:
      occ i     occ j     vir a      vir b          v   
    -----------------------------------------------------
     8 (A) A             10 (A) A                -0.5672
     7 (A) A              9 (A) A                -0.3845
     8 (A) A             11 (A) A                -0.0565
     7 (A) A             20 (A) A                -0.0432
     8 (A) A             24 (A) A                -0.0413
     8 (A) A             18 (A) A                 0.0250
     6 (A) A              9 (A) A                -0.0231
     4 (A) A              9 (A) A                -0.0209
     5 (A) A   8 (A) B    9 (A) A    9 (A) B     -0.0186
     8 (A) A   8 (A) B    9 (A) A   12 (A) B      0.0184
     8 (A) A             15 (A) A                -0.0156
     8 (A) A   8 (A) B   10 (A) A   17 (A) B     -0.0139
     5 (A) A   8 (A) B   11 (A) A   10 (A) B      0.0131
     7 (A) A   8 (A) B   13 (A) A   10 (A) B      0.0112
     8 (A) A             13 (A) A                 0.0107
     4 (A) A   8 (A) B   12 (A) A   10 (A) B      0.0090
     6 (A) A   8 (A) A   10 (A) A   15 (A) A     -0.0086
     4 (A) A   8 (A) A   10 (A) A   12 (A) A     -0.0085
     6 (A) A   8 (A) B   15 (A) A   10 (A) B      0.0084
     7 (A) A   8 (A) B   22 (A) A   10 (A) B      0.0084
     8 (A) A             16 (A) A                 0.0080
     7 (A) A   8 (A) A   10 (A) A   22 (A) A     -0.0077
     7 (A) A   8 (A) A   10 (A) A   13 (A) A     -0.0077
     4 (A) A   7 (A) B    9 (A) A   19 (A) B      0.0076
     5 (A) A   8 (A) B   21 (A) A   10 (A) B     -0.0076
     6 (A) A   8 (A) A   10 (A) A   18 (A) A     -0.0075
     5 (A) A   7 (A) B    9 (A) A   16 (A) B      0.0074
     5 (A) A   8 (A) A   10 (A) A   11 (A) A     -0.0073
     5 (A) A             27 (A) A                -0.0072
     8 (A) A             12 (A) A                 0.0068
     6 (A) A   8 (A) B   10 (A) A   10 (A) B     -0.0068
     3 (A) A   4 (A) B   10 (A) A    9 (A) B      0.0067
     8 (A) A   8 (A) B    9 (A) A   23 (A) B      0.0066
     7 (A) A   8 (A) A   12 (A) A   16 (A) A      0.0065
     5 (A) A   8 (A) A   10 (A) A   21 (A) A      0.0064
     7 (A) A   8 (A) B   20 (A) A   17 (A) B      0.0060
     3 (A) A   8 (A) B   10 (A) A   10 (A) B     -0.0060
     4 (A) A   8 (A) B   19 (A) A   10 (A) B     -0.0060
     3 (A) A   8 (A) A   10 (A) A   24 (A) A      0.0058
     5 (A) A   8 (A) B   10 (A) A   11 (A) B      0.0058
    -----------------------------------------------------

  Density matrix analysis:
  ------------------------
  NOs
    Occupation of frontier NOs:
       0.6769   1.2865
    Number of electrons: 16.000000
    Number of unpaired electrons: n_u =  2.34201, n_u,nl =  2.28944
    NO participation ratio (PR_NO):  4.579662
  
  
  Mulliken Population Analysis
  Atom      Charge (e)              h+              e-           Del q
  --------------------------------------------------------------------
   1 H       -0.054342        0.062796       -0.171086       -0.108290
   2 C        0.121683        0.416522       -0.181218        0.235304
   3 H       -0.086412        0.091005       -0.228800       -0.137795
   4 C        0.126322        0.402596       -0.187358        0.215238
   5 H       -0.021325        0.079862       -0.154685       -0.074823
   6 H       -0.085926        0.063531       -0.193165       -0.129634
  --------------------------------------------------------------------
  Sum:        0.000000        1.116312       -1.116312       -0.000000
  
  Multipole moment analysis of the density matrix
    Molecular charge:                      0.000000
    Number of electrons:                   16.000000
      Center of electronic charge [Ang]: [ -1.576570,  -0.070823,   0.001619]
    Total nuclear charge:                  16.000000
      Center of nuclear charge [Ang]:    [ -1.575576,  -0.065602,   0.001978]
    Dipole moment [D]:                     0.409364
      Cartesian components [D]:          [  0.076403,   0.401220,   0.027639]
    RMS size of the density [Ang]:         1.257539
      Cartesian components [Ang]:        [  0.841742,   0.816646,   0.453834]
  
  Exciton analysis of the difference density matrix
    <r_h> [Ang]:                  [ -1.571222,  -0.093137,   0.000660]
    <r_e> [Ang]:                  [ -1.586107,  -0.169570,  -0.004898]
    |<r_e - r_h>| [Ang]:            0.078067
    Hole size [Ang]:                1.458308
      Cartesian components [Ang]: [  0.868048,   0.916354,   0.730377]
    Electron size [Ang]:            1.975215
      Cartesian components [Ang]: [  1.278134,   1.290914,   0.775491]

  Transition density matrix analysis:
  -----------------------------------
  
  CT numbers (Mulliken)
    omega =     0.9237
    <Phe> =    -0.0128
  
  Exciton analysis of the transition density matrix
    Trans. dipole moment [D]:             0.349978
      Cartesian components [D]:         [ -0.016587,  -0.020439,   0.348986]
    <r_h> [Ang]:                        [ -1.572061,  -0.091212,   0.000802]
    <r_e> [Ang]:                        [ -1.589743,  -0.187937,  -0.006179]
    |<r_e - r_h>| [Ang]:                  0.098576
    Hole size [Ang]:                      1.323759
      Cartesian components [Ang]:       [  0.747390,   0.818977,   0.723203]
    Electron size [Ang]:                  2.058795
      Cartesian components [Ang]:       [  1.329791,   1.344564,   0.813906]
    RMS electron-hole separation [Ang]:   2.437733
      Cartesian components [Ang]:       [  1.515299,   1.569674,   1.087444]
    Covariance(r_h, r_e) [Ang^2]:         0.029076
    Correlation coefficient:              0.010669
    Center-of-mass size [Ang]:            1.229749
      Cartesian components [Ang]:       [  0.767798,   0.790985,   0.545079]

  Decomposition into state-averaged NTOs
    H- 0 -> L+ 1: -0.5543 ( 61.5%)
    H- 1 -> L+ 0:  0.3800 ( 28.9%)
    H- 0 -> L+ 2: -0.0926 (  1.7%)
                   omega =  92.4%
  ----------------------------------------------------------------------------


  Excited state 4 (singlet, A)                                     [converged]
  ----------------------------------------------------------------------------
  Term symbol:  5 (1) A                                     R^2 =  4.71708e-13

  Total energy:                                            -77.9566035962 a.u.
  Excitation energy:                                               9.819321 eV

  Osc. strength:                                                      0.000499
  Trans. dip. moment [a.u.]:           [  -0.002951,   -0.001920,    0.045392]
  <i|r^2|0> [a.u.]:                    [  -0.047047,   -0.013544,    0.042177]
  Two-photon absorption cross-section (SoS) [a.u.]:                 163.959187
  Two-photon absorption matrix (SoS) [a.u.]:
                                       |   -0.284378   -0.338143    3.230613 |
                                       |   -0.338143   -0.396014    3.097454 |
                                       |    3.230613    3.097454    0.679156 |
  Two-photon absorption cross-section [a.u.]:                       107.451087
  Two-photon absorption matrix [a.u.]:
                                       |   -0.203786   -0.271178    2.426828 |
                                       |   -0.271178   -0.350097    2.689437 |
                                       |    2.426828    2.689437    0.553597 |

  Dip. moment [a.u.]:                  [   0.202149,    0.291861,    0.027781]
  Total dipole [Debye]:                                               0.905157
  <r^2> [a.u.]:                        [ 185.717883,   41.061233,   10.822951]
  Total <r^2> [a.u.]:                                               237.602067

  V1^2 = 0.9636, V2^2 = 0.0364

  Important amplitudes:
      occ i     occ j     vir a      vir b          v   
    -----------------------------------------------------
     8 (A) A             11 (A) A                -0.6683
     7 (A) A              9 (A) A                 0.1368
     8 (A) A             21 (A) A                 0.0774
     6 (A) A              9 (A) A                 0.0729
     8 (A) A             16 (A) A                 0.0610
     8 (A) A             10 (A) A                -0.0287
     8 (A) A   8 (A) B    9 (A) A   13 (A) B      0.0174
     5 (A) A   8 (A) B   11 (A) A   11 (A) B      0.0153
     8 (A) A   8 (A) B   11 (A) A   17 (A) B     -0.0139
     7 (A) A             20 (A) A                 0.0126
     7 (A) A   8 (A) B   13 (A) A   11 (A) B      0.0125
     4 (A) A   8 (A) B   12 (A) A   11 (A) B      0.0109
     5 (A) A   8 (A) A   11 (A) A   21 (A) A      0.0109
     6 (A) A             20 (A) A                 0.0105
     8 (A) A   8 (A) B    9 (A) A   22 (A) B      0.0104
     8 (A) A             14 (A) A                -0.0094
     7 (A) A   8 (A) A   11 (A) A   22 (A) A     -0.0094
     8 (A) A             13 (A) A                 0.0093
     6 (A) A   8 (A) B   15 (A) A   11 (A) B      0.0087
     6 (A) A   8 (A) B   10 (A) A   11 (A) B     -0.0085
     7 (A) A   8 (A) B   22 (A) A   11 (A) B      0.0085
     3 (A) A   4 (A) B   11 (A) A    9 (A) B      0.0082
     3 (A) A   8 (A) B   11 (A) A   18 (A) B      0.0080
     6 (A) A   8 (A) A   11 (A) A   15 (A) A     -0.0077
     7 (A) A   8 (A) A   11 (A) A   13 (A) A     -0.0077
     7 (A) A   8 (A) A   13 (A) A   16 (A) A      0.0075
     3 (A) A              9 (A) A                -0.0074
     5 (A) A   8 (A) B   21 (A) A   11 (A) B     -0.0071
     4 (A) A   8 (A) B   19 (A) A   11 (A) B     -0.0066
     6 (A) A   8 (A) A   11 (A) A   18 (A) A     -0.0066
     8 (A) A             24 (A) A                -0.0064
     4 (A) A   8 (A) A   11 (A) A   12 (A) A     -0.0063
     6 (A) A   8 (A) B   18 (A) A   11 (A) B      0.0061
     5 (A) A   8 (A) B    9 (A) A    9 (A) B      0.0058
     7 (A) A   8 (A) B   16 (A) A   13 (A) B     -0.0056
     3 (A) A   8 (A) A   11 (A) A   18 (A) A      0.0056
     5 (A) A   8 (A) B   10 (A) A   10 (A) B      0.0055
     3 (A) A   8 (A) B   10 (A) A   11 (A) B     -0.0054
     3 (A) A   5 (A) B   11 (A) A   25 (A) B      0.0054
     3 (A) A   8 (A) A   11 (A) A   24 (A) A      0.0053
    -----------------------------------------------------

  Density matrix analysis:
  ------------------------
  NOs
    Occupation of frontier NOs:
       0.9374   1.0304
    Number of electrons: 16.000000
    Number of unpaired electrons: n_u =  2.32059, n_u,nl =  2.05227
    NO participation ratio (PR_NO):  2.934217
  
  
  Mulliken Population Analysis
  Atom      Charge (e)              h+              e-           Del q
  --------------------------------------------------------------------
   1 H       -0.091578        0.040832       -0.186358       -0.145526
   2 C        0.269815        0.501564       -0.118128        0.383436
   3 H       -0.193952        0.050024       -0.295359       -0.245335
   4 C        0.298889        0.495333       -0.107529        0.387805
   5 H       -0.088984        0.049695       -0.192176       -0.142482
   6 H       -0.194190        0.041751       -0.279649       -0.237898
  --------------------------------------------------------------------
  Sum:        0.000000        1.179200       -1.179200        0.000000
  
  Multipole moment analysis of the density matrix
    Molecular charge:                      0.000000
    Number of electrons:                   16.000000
      Center of electronic charge [Ang]: [ -1.582262,  -0.075255,   0.001059]
    Total nuclear charge:                  16.000000
      Center of nuclear charge [Ang]:    [ -1.575576,  -0.065602,   0.001978]
    Dipole moment [D]:                     0.905157
      Cartesian components [D]:          [  0.513813,   0.741836,   0.070611]
    RMS size of the density [Ang]:         1.284228
      Cartesian components [Ang]:        [  0.864200,   0.844382,   0.435224]
  
  Exciton analysis of the difference density matrix
    <r_h> [Ang]:                  [ -1.582190,  -0.074554,   0.001338]
    <r_e> [Ang]:                  [ -1.673508,  -0.207048,  -0.011511]
    |<r_e - r_h>| [Ang]:            0.161427
    Hole size [Ang]:                1.404041
      Cartesian components [Ang]: [  0.815489,   0.822294,   0.793815]
    Electron size [Ang]:            2.133877
      Cartesian components [Ang]: [  1.417451,   1.440288,   0.685443]

  Transition density matrix analysis:
  -----------------------------------
  
  CT numbers (Mulliken)
    omega =     0.9289
    <Phe> =    -0.0115
  
  Exciton analysis of the transition density matrix
    Trans. dipole moment [D]:             0.057861
      Cartesian components [D]:         [ -0.003751,  -0.002440,   0.057688]
    <r_h> [Ang]:                        [ -1.579974,  -0.064878,   0.002136]
    <r_e> [Ang]:                        [ -1.690436,  -0.235257,  -0.014081]
    |<r_e - r_h>| [Ang]:                  0.203700
    Hole size [Ang]:                      1.235465
      Cartesian components [Ang]:       [  0.650872,   0.667517,   0.810654]
    Electron size [Ang]:                  2.270613
      Cartesian components [Ang]:       [  1.506973,   1.534086,   0.728902]
    RMS electron-hole separation [Ang]:   2.582168
      Cartesian components [Ang]:       [  1.636974,   1.673433,   1.089738]
    Covariance(r_h, r_e) [Ang^2]:         0.027979
    Correlation coefficient:              0.009974
    Center-of-mass size [Ang]:            1.297884
      Cartesian components [Ang]:       [  0.824882,   0.840632,   0.545355]

  Decomposition into state-averaged NTOs
    H- 0 -> L+ 2: -0.6413 ( 82.3%)
    H- 0 -> L+ 4:  0.1514 (  4.6%)
    H- 1 -> L+ 0: -0.1354 (  3.7%)
    H- 0 -> L+ 3: -0.0770 (  1.2%)
    H- 2 -> L+ 0: -0.0714 (  1.0%)
                   omega =  92.9%
[...]
    16   -1.580342961370e-03
    17   -1.807248475023e-03
    18   -1.697567424814e-04
    19   -3.610465259016e-03
    20    7.656201200217e-03
    21    8.989105799452e-01
    22   -2.245351889145e-04
    23    1.345514018955e-02
    24    7.761728671749e-04
    25    6.827301685955e-02
    26   -5.077978154040e-02
    27   -1.389077268770e+00
    28    8.309832398811e-02
    29   -1.020355944430e-01
    30   -1.666845323808e-03
    31    3.344826537863e-01
    32   -3.620094036311e-01
    33   -3.658604278742e-03
    34    1.585491727394e-02
    35   -1.685864345434e-03
    36   -1.645620207878e-03
    37   -2.204966559838e-03
    38   -3.618282571570e-03
    39    1.386778876156e-02
    40    9.368239072861e-01
    41   -9.571706759795e-05
    42   -1.377625911551e-02
    43   -8.055365805430e-04
    44    7.833075373668e-03
    45    8.928584960577e-01
    46    1.455337893510e-02
    47   -6.940863131298e-04
    48    6.776080606665e-04
Sym=X
Ene= 0.235138
Spin=Alpha
Occup=0
     1   -2.053058912125e-02
     2   -1.129028500156e+00
     3    1.253900938146e-02
     4    3.876802573647e-03
     5    8.298294516749e-04
     6    4.140489194580e-03
     7    2.432834477238e-04
     8   -1.352484544056e-01
     9    1.444692583152e-01
    10    1.688378511602e-01
    11    1.680521791414e-02
    12    5.401579879435e-01
    13    5.781348075243e-01
    14    5.950758698156e-02
    15    2.609035635090e-03
    16   -4.745322797509e-05
    17   -4.823203617129e-04
    18    3.702888112921e-03
    19   -7.623114182043e-04
    20    2.110550138987e-02
    21    1.260790382355e+00
    22    2.807683281960e-03
    23    1.627536926849e-02
    24    1.088603552676e-03
    25    2.056898844590e-03
    26   -4.458341065445e-03
    27   -5.860433661197e-02
    28    1.475718382083e-01
    29    1.572196696312e-01
    30    1.642534754378e-02
    31    6.020455951379e-01
    32    5.502162430310e-01
    33    6.166401925454e-02
    34    3.545495936187e-04
    35   -2.322413667134e-04
    36   -1.452655444878e-05
    37   -1.912791816606e-03
    38   -7.099086356960e-04
    39   -2.595032754077e-02
    40   -1.178859898990e+00
    41    2.301713259024e-03
    42    1.408194300798e-02
    43    9.393179748921e-04
    44    1.733097481871e-02
    45    1.286243745961e+00
    46    1.514288461957e-02
    47    4.723228851807e-03
    48    1.014225935193e-03
Sym=X
Ene= 0.240097
Spin=Alpha
Occup=0
     1   -1.576859454557e-02
     2   -1.077860873234e+00
     3    1.651630965567e-02
     4    9.521774218229e-03
     5    1.350272668285e-03
     6   -8.556372198085e-02
     7    7.742522148917e-02
     8    1.587368972093e+00
     9    5.772979961030e-02
    10   -4.916154838728e-02
    11   -1.794161064873e-04
    12    2.043510044287e-01
    13   -1.896590277369e-01
    14   -1.804757010493e-03
    15   -2.184424126459e-02
    16    2.529778233371e-03
    17    2.883044548166e-03
    18    2.676939533929e-05
    19    1.265439564642e-02
    20   -1.812981450326e-02
    21   -1.045506479595e+00
    22   -8.465005909668e-03
    23   -1.670034892423e-02
    24   -1.387881728324e-03
    25    8.897950688479e-02
    26   -8.173686695364e-02
    27   -1.679790484779e+00
    28    5.296963088653e-02
    29   -5.522852898165e-02
    30   -3.452380725280e-04
    31    2.177488386236e-01
    32   -1.936247647231e-01
    33    4.666818119564e-04
    34    2.359455688377e-02
    35   -2.820939900030e-03
    36   -3.041361633007e-03
    37   -7.697968070435e-04
    38   -1.363319795739e-02
    39    1.420195856936e-02
    40    1.071582490642e+00
    41   -8.716762635874e-03
    42   -1.707768030857e-02
    43   -1.400373069272e-03
    44    1.616561084723e-02
    45    1.167693006418e+00
    46    1.906930256636e-02
    47    8.938731060699e-03
    48    1.475636173942e-03
Sym=X
Ene= 0.301376
Spin=Alpha
Occup=0
     1   -1.748503267513e-02
     2    1.695691859957e+00
     3   -2.267636937006e-02
     4   -6.229817860864e-04
     5   -1.080041632890e-03
     6    2.493836967187e-04
     7    4.386438224776e-04
     8   -3.625911218649e-02
     9   -1.363404805796e-01
    10   -1.393134049679e-01
    11   -1.466912922418e-02
    12   -1.108594618908e+00
    13   -1.176779494686e+00
    14   -1.222985391061e-01
    15    1.993260676933e-04
    16   -1.613043875770e-03
    17    1.688787528333e-03
    18   -3.068070063830e-02
    19   -2.629875857156e-03
    20    1.280254504690e-02
    21   -1.665132114826e+00
    22    1.540269263899e-03
    23   -2.222342803106e-02
    24   -1.267866132727e-03
    25   -3.274959099571e-04
    26    1.263844933354e-03
    27   -9.098661734806e-02
    28    1.339530363481e-01
    29    1.382769926381e-01
    30    1.462193250780e-02
    31    1.146700116428e+00
    32    1.176824919190e+00
    33    1.245641862735e-01
    34    1.191294209955e-03
    35   -1.943511492369e-03
    36    1.569540344694e-03
    37   -3.258945556079e-02
    38   -3.697034896754e-03
    39    1.325396797935e-02
    40   -1.660569617173e+00
    41   -1.570761290189e-03
    42    2.221503733811e-02
    43    1.250815929345e-03
    44   -2.705306337271e-02
    45    1.770013401916e+00
    46    2.264225681012e-02
    47    9.718565434367e-04
    48    1.130467009252e-03
Sym=X
Ene= 0.454737
Spin=Alpha
Occup=0
     1    8.798579041315e-02
     2    7.231950648019e-01
     3    1.185174662737e-02
     4    1.197156993123e-02
     5    1.266179974842e-03
     6   -6.178938182343e-02
     7   -9.208721451866e-03
     8    3.228603657657e+00
     9   -1.175696111142e-01
    10    1.121928779669e-01
    11    9.061628363216e-04
    12   -2.315847094392e+00
    13    2.134918056908e+00
    14    2.122830128689e-02
    15   -4.699176963352e-02
    16    2.772182389065e-03
    17    4.069535565228e-03
    18   -7.250270960245e-04
    19   -1.744899656243e-02
    20    1.208677501854e-01
    21    6.776616055128e-01
    22   -6.683567579092e-03
    23   -1.459213369154e-02
    24   -1.182842454038e-03
    25    6.038996875098e-02
    26    1.362607418910e-02
    27   -3.194209212449e+00
    28   -1.076761147536e-01
    29    1.059309196474e-01
    30    7.094480617794e-04
    31   -2.371511770059e+00
    32    2.120040109810e+00
    33    1.639709096333e-02
    34    5.003392444183e-02
    35   -3.249200048855e-03
    36   -4.765581204840e-03
    37    2.145241686378e-03
    38    1.252538349984e-02
    39   -1.456162182546e-01
    40   -6.014310793678e-01
    41   -6.882898683918e-03
    42   -1.589910454300e-02
    43   -1.295510442105e-03
    44   -9.880939865738e-02
    45   -7.945761736126e-01
    46    1.311888808693e-02
    47    1.318344823373e-02
    48    1.398324710246e-03
Sym=X
Ene= 0.581180
Spin=Alpha
Occup=0
     1    2.452506376014e-01
     2    1.000991669619e-01
     3   -1.917738111868e-02
     4    2.767072136376e-02
     5    7.364096552127e-04
     6   -4.789620641507e-03
     7   -1.328251433412e-01
     8   -3.511741394867e-01
     9    2.808684505325e-01
    10   -2.817232690292e-01
    11   -3.909737224991e-03
    12   -7.815100461265e-01
    13    7.866059087488e-01
    14    9.885651407825e-03
    15   -9.668254850027e-03
    16    4.062137373455e-03
    17    5.106275469213e-03
    18   -1.568171884534e-02
    19    6.681024645433e-02
    20    2.982616417613e-01
    21    3.060817552690e-02
    22   -2.874839937413e-02
    23    1.219765687434e-02
    24   -6.316112293054e-04
    25    8.865717334642e-04
    26   -1.277057073363e-01
    27   -5.914857758422e-01
    28   -2.924024416594e-01
    29    2.903644183711e-01
    30    3.815941674309e-03
    31    6.560537633644e-01
    32   -6.144212163820e-01
    33   -4.944503353535e-03
    34   -9.427652130424e-03
    35    4.306937343553e-03
    36    4.832009659885e-03
    37   -1.088675362507e-02
    38    6.747112349218e-02
    39    2.872792440076e-01
    40   -5.390208910162e-02
    41    2.839478248073e-02
    42   -1.322078437993e-02
    43    5.843055475943e-04
    44    2.721763369723e-01
    45    6.783054632863e-02
    46    1.165121924866e-02
    47   -2.102100621030e-02
    48   -6.693643306450e-04
Sym=X
Ene= 0.616289
Spin=Alpha
Occup=0
     1    5.658700091699e-01
     2   -1.696545911720e-01
     3    6.415063950073e-02
     4   -3.397749918472e-02
     5    9.923983807911e-04
     6    3.075209775245e-03
     7   -4.910627504853e-03
     8    1.455592460003e-01
     9    5.646421779207e-02
    10    3.260597701991e-02
    11    4.552923517792e-03
    12   -4.501258496608e-01
    13   -1.822581599925e-01
    14   -3.159771428794e-02
    15   -1.206020033301e-02
    16    8.552931129549e-03
    17   -7.423670678758e-03
    18    1.510883211277e-01
    19    7.520164137140e-03
    20   -4.765922509308e-01
    21    2.187411377089e-01
    22   -4.464207064586e-02
    23    5.470647726765e-02
    24    1.177577323225e-03
    25   -3.049705731467e-03
    26   -1.251096793010e-02
    27   -8.584787191328e-02
    28    5.820168651855e-02
    29    4.351962262667e-02
    30    5.245954937328e-03
    31   -4.808391892853e-01
    32   -2.202643731098e-01
    33   -3.606287023782e-02
    34    3.787934867173e-03
    35   -7.151912060356e-03
    36    7.979383194952e-03
    37   -1.425281931574e-01
    38    1.567197462447e-03
    39    4.900239722993e-01
    40   -1.891981604316e-01
    41   -4.428713492376e-02
    42    5.491242376822e-02
    43    1.115007863387e-03
    44   -5.095390819211e-01
    45    4.152057816340e-02
    46    6.099693756186e-02
    47   -3.606254609553e-02
    48    7.696976411381e-04
Sym=X
Ene= 0.695135
Spin=Alpha
Occup=0
     1   -8.941869710914e-04
     2   -6.030262058714e-04
     3    1.019668597743e-03
     4    1.213029857978e-03
     5   -2.230164755032e-02
     6   -5.936889702015e-05
     7    1.318259932539e-05
     8   -2.196893009296e-04
     9    3.180719444638e-02
    10    4.029491872892e-02
    11   -6.773690366584e-01
    12   -2.703608307981e-02
    13   -3.795499787802e-02
    14    6.128739146967e-01
    15   -1.085087955599e-03
    16    8.350465849813e-02
    17   -7.582315512906e-02
    18   -8.488112774937e-03
    19   -1.703048144633e-03
    20   -8.016867512198e-04
    21   -7.882365298856e-04
    22    1.119779299732e-03
    23    1.327821590137e-03
    24   -2.200458559085e-02
    25    4.825971811746e-05
    26   -7.391572814364e-04
    27    4.903484684239e-04
    28    3.202476796579e-02
    29    4.051408613598e-02
    30   -6.769588743353e-01
    31   -2.746778002872e-02
    32   -3.844504808740e-02
    33    6.166046060022e-01
    34    1.176625997394e-03
    35   -8.445211332610e-02
    36    7.564142412142e-02
    37    8.436554839539e-03
    38    1.682703645540e-03
    39    5.019044082193e-04
    40    9.183697790752e-04
    41    1.022609897558e-03
    42    1.047433781850e-03
    43   -1.996190538066e-02
    44    5.048340469828e-04
    45    1.364674215962e-03
    46    1.565914743013e-03
    47    1.720711547142e-03
    48   -2.918059458574e-02
Sym=X
Ene= 0.711776
Spin=Alpha
Occup=0
     1   -4.607142554288e-01
     2    1.877263251839e-01
     3   -8.825610370848e-02
     4   -4.527271982743e-02
     5   -6.742010545175e-03
     6   -4.952808129168e-02
     7   -3.151828940847e-01
     8    3.989235706493e-01
     9    2.276823260854e-01
    10   -1.977672077777e-01
    11   -8.612343910076e-04
    12   -1.240574002905e-01
    13    4.372958795649e-02
    14   -2.204363389477e-03
    15    2.044216819186e-01
    16   -2.067296765671e-02
    17   -2.475355322537e-02
    18    2.341863689179e-03
    19   -6.949044483198e-02
    20   -4.960113716321e-01
    21    1.418317807745e-01
    22    3.825940978854e-02
    23    8.666750441732e-02
    24    7.055870162128e-03
    25   -4.616909560450e-02
    26   -3.413557772176e-01
    27    5.267289225711e-01
    28   -2.155529201160e-01
    29    2.272326015709e-01
    30    3.860121649795e-03
    31    1.158317630755e-01
    32   -1.628526286584e-01
    33   -6.246905676648e-03
    34    1.878735440697e-01
    35   -1.993444231649e-02
    36   -2.316120794479e-02
    37   -2.331458913081e-04
    38   -7.506581698132e-02
    39   -4.407435449293e-01
    40    1.739869031855e-01
    41   -4.312779760993e-02
    42   -7.793973246516e-02
    43   -6.761337447181e-03
    44   -4.299723390452e-01
    45    8.508549501083e-02
    46    8.233757113337e-02
    47    4.142871042822e-02
    48    6.321557337252e-03
Sym=X
Ene= 0.777478
Spin=Alpha
Occup=0
     1    4.931204875571e-01
     2   -4.050668215103e-01
     3    9.686887113580e-02
     4    2.180893210329e-02
     5    5.800277316070e-03
     6    8.855575560775e-02
     7   -2.379760201381e-01
     8   -4.832831600586e-01
     9    1.589795246347e-01
    10   -1.414891948259e-01
    11   -2.246986958117e-03
    12    1.999894146023e-01
    13   -1.400730160962e-01
    14    2.648475849018e-03
    15   -1.966243924278e-01
    16    1.526078887819e-02
    17    2.076029287366e-02
    18   -1.069250342706e-02
    19   -5.061016749266e-03
    20    5.360045738257e-01
    21   -4.175524971557e-01
    22   -1.534627655481e-02
    23   -1.079238211072e-01
    24   -7.179271572012e-03
    25   -9.303902719765e-02
    26    1.835480977288e-01
    27    5.432685054182e-01
    28    1.681931457039e-01
    29   -9.085276390333e-02
    30    2.800462303305e-03
    31    1.348042297963e-01
    32   -2.583101452172e-01
    33   -1.082577173554e-02
    34    2.155871856713e-01
    35   -1.746686403033e-02
    36   -2.330962426483e-02
    37    1.462366873580e-02
    38   -3.484699680027e-03
    39   -5.769854060144e-01
    40    5.134191052633e-01
    41   -1.857014824276e-02
    42   -1.222372159788e-01
    43   -8.194099654291e-03
    44   -4.879858491855e-01
    45    2.997701132360e-01
    46    1.013115582322e-01
    47    2.272112664592e-02
    48    6.126402724460e-03
Sym=X
Ene= 0.804891
Spin=Alpha
Occup=0
     1    4.003064242601e-04
     2   -1.031692145553e-04
     3   -1.478658068839e-03
     4   -1.911278486883e-03
     5    3.154204262375e-02
     6    1.123637319520e-04
     7   -8.076279486612e-04
     8    5.962531052972e-04
     9   -3.519184843244e-02
    10   -4.597010488552e-02
    11    7.632492417330e-01
    12    5.163996859725e-02
    13    6.678223258947e-02
    14   -1.112388350051e+00
    15   -1.049063110925e-03
    16    5.860281934672e-02
    17   -5.298686244286e-02
    18   -5.990605503198e-03
    19   -1.221319749002e-03
    20    4.681825436871e-04
    21   -5.297437090564e-04
    22   -1.655291285457e-03
    23   -2.133745707989e-03
    24    3.495538439721e-02
    25   -6.104480264531e-05
    26   -4.354822787602e-04
    27    5.455013455168e-05
    28    3.631894277989e-02
    29    4.553328886300e-02
    30   -7.609698375680e-01
    31   -5.270637353511e-02
    32   -6.722823911204e-02
    33    1.113064143131e+00
    34   -5.366133779204e-04
    35    5.845862732601e-02
    36   -5.358246257453e-02
    37   -5.852424316138e-03
    38   -1.001321858848e-03
    39   -4.723148123928e-04
    40    1.132863960623e-03
    41    1.678974340437e-03
    42    1.667492949829e-03
    43   -3.445366992384e-02
    44   -3.905378862464e-04
    45    2.056807901295e-04
    46    2.138674478350e-03
    47    2.241491539135e-03
    48   -3.913898697380e-02
Sym=X
Ene= 0.868498
Spin=Alpha
Occup=0
     1    3.662787561297e-02
     2   -1.112323346018e+00
     3    1.597508207184e-01
     4    5.363985375110e-02
     5    1.081243920325e-02
     6    3.584252549172e-03
     7   -4.376059780595e-02
     8    9.069453830863e-02
     9   -3.933764895155e-01
    10   -4.830735249632e-01
    11   -4.706650427665e-02
    12    9.136292025303e-01
    13    1.114777841889e+00
    14    1.089852196571e-01
    15   -7.679167359270e-03
    16    1.214872263970e-02
    17   -1.415494624091e-02
    18    2.489062876077e-01
    19   -4.571914425421e-03
    20   -2.348078524099e-02
    21    1.163135780548e+00
    22    5.256466305785e-02
    23    1.605194936520e-01
    24    1.192724945200e-02
    25   -7.266898979194e-03
    26   -3.176291498410e-02
    27   -2.202059662310e-02
    28   -3.455309891151e-01
    29   -4.392319685801e-01
    30   -4.276009998793e-02
    31    8.235914270296e-01
    32    1.024138250099e+00
    33    1.005326829264e-01
    34    2.377376672553e-02
    35   -1.281987306487e-02
    36    1.172846215339e-02
    37   -2.356650565127e-01
    38    6.187370146214e-03
    39   -3.835893384459e-03
    40   -1.104849305600e+00
    41    5.912488494032e-02
    42    1.445623301637e-01
    43    1.123923381891e-02
    44   -2.580565251104e-02
    45    1.032915996377e+00
    46    1.448168937929e-01
    47    5.534335637193e-02
    48    1.032313511310e-02
Sym=X
Ene= 0.933821
Spin=Alpha
Occup=0
     1    1.113396922652e-01
     2   -1.345109403244e+00
     3    1.746893221794e-01
     4    6.000095728412e-03
     5    8.383276456254e-03
     6   -4.429600513494e-03
     7    5.819787059039e-02
     8   -2.691623211559e-01
     9   -5.316356254277e-01
    10   -3.956944975519e-01
    11   -4.856503916371e-02
    12    1.666006466503e+00
    13    1.222457157741e+00
    14    1.510126069534e-01
    15    1.412789943498e-02
    16    6.344701031354e-03
    17   -5.889098714158e-03
    18    1.058469433802e-01
    19    4.547331386575e-02
    20   -1.082553340380e-01
    21    1.115915613670e+00
    22   -2.441535522589e-02
    23    1.679718739627e-01
    24    9.040010639656e-03
    25    8.434430537071e-03
    26    1.249248860238e-01
    27    2.248184357607e-02
    28    3.582526488645e-01
    29    5.981064432421e-01
    30    5.264578843479e-02
    31   -1.161078904191e+00
    32   -1.826181995722e+00
    33   -1.639501120060e-01
    34   -2.074378024992e-02
    35    3.819012752317e-03
    36   -8.886862599405e-03
    37    1.318831398758e-01
    38   -6.816993798557e-02
    39   -1.191802630690e-01
    40    1.501560432074e+00
    41   -1.720755363308e-02
    42   -2.044117364810e-01
    43   -1.303940359284e-02
    44    9.329288766999e-02
    45   -1.108109777024e+00
    46   -1.589130618498e-01
    47    2.509234568631e-02
    48   -5.885280074197e-03
Sym=X
Ene= 0.959830
Spin=Alpha
Occup=0
     1   -1.121309144875e-01
     2    7.743764511104e-01
     3   -7.688987056796e-02
     4   -9.836583635760e-02
     5   -9.664915982139e-03
     6    1.510368139506e-02
     7    2.567143193833e-01
     8    5.863680161027e-01
     9    4.140399946496e-01
    10   -5.183295048401e-01
    11   -1.175310576386e-02
    12   -1.310726892229e+00
    13    1.714521299274e+00
    14    4.184707140654e-02
    15   -3.495524284584e-02
    16   -1.450921232740e-02
    17   -1.172322574114e-02
    18    2.323386925754e-02
    19   -3.000908103633e-01
    20   -1.044964948267e-01
    21    1.134850449689e+00
    22    9.259314922903e-02
    23    1.258234957622e-01
    24    1.180232605652e-02
    25   -1.289344659151e-02
    26   -1.372123824416e-01
    27   -7.712072867935e-01
    28    5.658234874867e-01
    29   -3.170271366558e-01
    30    8.205870332183e-03
    31   -1.889286843871e+00
    32    1.006590616104e+00
    33   -2.964198377183e-02
    34    3.070094226853e-02
    35    1.665622351580e-02
    36    8.666880209456e-03
    37    2.660503310883e-02
    38    2.921156677828e-01
    39    8.212258537948e-02
    40   -5.178748592599e-01
    41    9.082701291450e-02
    42    4.093299052716e-02
    43    6.469703383636e-03
    44    1.116674098474e-01
    45   -1.254853690691e+00
    46   -1.339917656013e-01
    47   -9.343495060028e-02
    48   -1.209382833620e-02
[5D]

======= END OF MOLDEN-FORMATTED INPUT FILE =======


        *************************************************************
        *                                                           *
        *  Thank you very much for using Q-Chem.  Have a nice day.  *
        *                                                           *
        *************************************************************


