                  Welcome to Q-Chem
     A Quantum Leap Into The Future Of Chemistry


 Q-Chem 5.4 (devel), Q-Chem, Inc., Pleasanton, CA (2021)

 E. Epifanovsky,  A. T. B. Gilbert,  Xintian Feng,  Joonho Lee,  Yuezhi Mao,  
 N. Mardirossian,  P. Pokhilko,  A. White,  M. Wormit,  M. P. Coons,  
 A. L. Dempwolff,  Zhengting Gan,  D. Hait,  P. R. Horn,  L. D. Jacobson,  
 I. Kaliman,  J. Kussmann,  A. W. Lange,  Ka Un Lao,  D. S. Levine,  Jie Liu,  
 S. C. McKenzie,  A. F. Morrison,  K. Nanda,  F. Plasser,  D. R. Rehn,  
 M. L. Vidal,  Zhi-Qiang You,  Ying Zhu,  B. Alam,  B. Albrecht,  
 A. Aldossary,  E. Alguire,  J. H. Andersen,  D. Barton,  K. Begam,  A. Behn,  
 Y. A. Bernard,  E. J. Berquist,  H. Burton,  A. Carreras,  K. Carter-Fenk,  
 R. Chakraborty,  A. D. Chien,  K. D. Closser,  V. Cofer-Shabica,  
 S. Dasgupta,  Jia Deng,  M. de Wergifosse,  M. Diedenhofen,  Hainam Do,  
 S. Ehlert,  Po-Tung Fang,  S. Fatehi,  Qingguo Feng,  T. Friedhoff,  
 J. Gayvert,  Qinghui Ge,  G. Gidofalvi,  M. Goldey,  J. Gomes,  
 C. Gonzalez-Espinoza,  S. Gulania,  A. Gunina,  M. W. D. Hanson-Heine,  
 P. H. P. Harbach,  A. W. Hauser,  M. F. Herbst,  M. Hernandez Vera,  
 M. Hodecker,  Z. C. Holden,  S. Houck,  Xunkun Huang,  Kerwin Hui,  
 B. C. Huynh,  M. Ivanov,  Hyunjun Ji,  Hanjie Jiang,  B. Kaduk,  S. Kaehler,  
 K. Khistyaev,  Jaehoon Kim,  P. Klunzinger,  Z. Koczor-Benda,  
 Joong Hoon Koh,  D. Kosenkov,  L. Koulias,  T. Kowalczyk,  C. M. Krauter,  
 K. Kue,  A. Kunitsa,  T. Kus,  A. Landau,  K. V. Lawler,  D. Lefrancois,  
 S. Lehtola,  Rain Li,  Yi-Pei Li,  Jiashu Liang,  M. Liebenthal,  
 Hung-Hsuan Lin,  You-Sheng Lin,  Fenglai Liu,  Kuan-Yu Liu,  
 M. Loipersberger,  A. Luenser,  A. Manjanath,  P. Manohar,  E. Mansoor,  
 S. F. Manzer,  Shan-Ping Mao,  A. V. Marenich,  T. Markovich,  S. Mason,  
 S. A. Maurer,  P. F. McLaughlin,  M. F. S. J. Menger,  J.-M. Mewes,  
 S. A. Mewes,  P. Morgante,  J. W. Mullinax,  K. J. Oosterbaan,  G. Paran,  
 Alexander C. Paul,  Suranjan K. Paul,  F. Pavosevic,  Zheng Pei,  S. Prager,  
 E. I. Proynov,  E. Ramos,  B. Rana,  A. E. Rask,  A. Rettig,  R. M. Richard,  
 F. Rob,  E. Rossomme,  T. Scheele,  M. Scheurer,  M. Schneider,  
 N. Sergueev,  S. M. Sharada,  W. Skomorowski,  D. W. Small,  C. J. Stein,  
 Yu-Chuan Su,  E. J. Sundstrom,  Zhen Tao,  J. Thirman,  T. Tsuchimochi,  
 N. M. Tubman,  S. P. Veccham,  O. Vydrov,  J. Wenzel,  J. Witte,  A. Yamada,  
 Kun Yao,  S. Yeganeh,  S. R. Yost,  A. Zech,  Igor Ying Zhang,  Xing Zhang,  
 Yu Zhang,  D. Zuev,  A. Aspuru-Guzik,  A. T. Bell,  N. A. Besley,  
 K. B. Bravaya,  B. R. Brooks,  D. Casanova,  Jeng-Da Chai,  S. Coriani,  
 C. J. Cramer,  A. E. DePrince, III,  R. A. DiStasio Jr.,  A. Dreuw,  
 B. D. Dunietz,  T. R. Furlani,  W. A. Goddard III,  S. Grimme,  
 S. Hammes-Schiffer,  T. Head-Gordon,  W. J. Hehre,  Chao-Ping Hsu,  
 T.-C. Jagau,  Yousung Jung,  A. Klamt,  Jing Kong,  D. S. Lambrecht,  
 WanZhen Liang,  N. J. Mayhall,  C. W. McCurdy,  J. B. Neaton,  
 C. Ochsenfeld,  J. A. Parkhill,  R. Peverati,  V. A. Rassolov,  Yihan Shao,  
 L. V. Slipchenko,  T. Stauch,  R. P. Steele,  J. E. Subotnik,  
 A. J. W. Thom,  A. Tkatchenko,  D. G. Truhlar,  T. Van Voorhis,  
 T. A. Wesolowski,  K. B. Whaley,  H. L. Woodcock III,  P. M. Zimmerman,  
 S. Faraji,  P. M. W. Gill,  M. Head-Gordon,  J. M. Herbert,  A. I. Krylov

 Additional authors for Version 5.4.1: 
 S. Kotaru,  Shaozhi Li,  Xiangyuan Li,  F. Matz,  A. Molle,  Haisheng Ren,  
 Yingli Su,  Hung-Yi Tsai,  C. Utku,  Fang Wang

 Contributors to earlier versions of Q-Chem not listed above: 
 R. D. Adamson,  B. Austin,  R. Baer,  J. Baker,  G. J. O. Beran,  
 K. Brandhorst,  S. T. Brown,  E. F. C. Byrd,  A. K. Chakraborty,  
 G. K. L. Chan,  Chun-Min Chang,  Yunqing Chen,  C.-L. Cheng,  
 Siu Hung Chien,  D. M. Chipman,  D. L. Crittenden,  H. Dachsel,  
 R. J. Doerksen,  A. D. Dutoi,  R. G. Edgar,  J. Fosso-Tande,  
 L. Fusti-Molnar,  D. Ghosh,  A. Ghysels,  A. Golubeva-Zadorozhnaya,  
 J. Gonthier,  M. S. Gordon,  S. R. Gwaltney,  G. Hawkins,  J. E. Herr,  
 A. Heyden,  S. Hirata,  E. G. Hohenstein,  G. Kedziora,  F. J. Keil,  
 C. Kelley,  Jihan Kim,  R. A. King,  R. Z. Khaliullin,  P. P. Korambath,  
 W. Kurlancheek,  A. Laurent,  A. M. Lee,  M. S. Lee,  S. V. Levchenko,  
 Ching Yeh Lin,  D. Liotard,  E. Livshits,  R. C. Lochan,  I. Lotan,  
 L. A. Martinez-Martinez,  P. E. Maslen,  N. Nair,  D. P. O'Neill,  
 D. Neuhauser,  E. Neuscamman,  C. M. Oana,  R. Olivares-Amaya,  R. Olson,  
 T. M. Perrine,  B. Peters,  P. A. Pieniazek,  A. Prociuk,  Y. M. Rhee,  
 J. Ritchie,  M. A. Rohrdanz,  E. Rosta,  N. J. Russ,  H. F. Schaefer III,  
 M. W. Schmidt,  N. E. Schultz,  S. Sharma,  N. Shenvi,  C. D. Sherrill,  
 A. C. Simmonett,  A. Sodt,  T. Stein,  D. Stuck,  K. S. Thanthiriwatte,  
 V. Vanovschi,  L. Vogt,  Tao Wang,  A. Warshel,  M. A. Watson,  
 C. F. Williams,  Q. Wu,  X. Xu,  Jun Yang,  W. Zhang,  Yan Zhao

 Please cite Q-Chem as follows:
 Y. Shao et al., Mol. Phys. 113, 184-215 (2015)
 DOI: 10.1080/00268976.2014.952696

 Q-Chem 5.4.1 for Intel X86 EM64T Linux

 Parts of Q-Chem use Armadillo 9.800.1 (Horizon Scraper).
 http://arma.sourceforge.net/

 Q-Chem begins on Mon Mar 20 18:21:49 2023  

 Host: cpu186.baobab
0

     Scratch files written to /scratch/fum/qchem74500//
 Processing $rem in /home/share/wesolowski/qc5.aug2021.FDE/config/preferences:
 Processing $rem in /home/fum/.qchemrc:

 Checking the input file for inconsistencies... 	...done.

--------------------------------------------------------------
User input:
--------------------------------------------------------------
$comment
generated from CCJob.Templates
$end

$rem
sym_ignore = true
method = adc(2)
ee_states = 10
basis = cc-pVDZ
mem_static = 1024
mem_total = 40000
adc_davidson_maxiter = 900
adc_davidson_conv = 6
adc_print = 3
adc_prop_es = true
adc_prop_es2es = true
adc_prop_tpa = true
molden_format = True
state_analysis = true
print_orbitals = 15
gen_scfman = false
fde_export_density = true
fde_details = 3
$end

$molecule
0 1
H -0.058234213684172045 -0.2562118654177333 0.06281082542094685
C -1.0653999474533493 -0.5112909759855423 -0.0009724604726157327
H -1.3085412603167559 -1.6300321102683513 -0.0802812183649954
C -2.0572857201458863 0.38069911908637366 0.005218599972657509
H -1.8141612082836494 1.499512319366041 0.08451044386486589
H -3.0644045170180587 0.12565767491718183 -0.05848502812096355                     
$end
--------------------------------------------------------------
 ----------------------------------------------------------------
             Standard Nuclear Orientation (Angstroms)
    I     Atom           X                Y                Z
 ----------------------------------------------------------------
    1      H      -0.0582342137    -0.2562118654     0.0628108254
    2      C      -1.0653999475    -0.5112909760    -0.0009724605
    3      H      -1.3085412603    -1.6300321103    -0.0802812184
    4      C      -2.0572857201     0.3806991191     0.0052186000
    5      H      -1.8141612083     1.4995123194     0.0845104439
    6      H      -3.0644045170     0.1256576749    -0.0584850281
 ----------------------------------------------------------------
 Nuclear Repulsion Energy =          33.23287799 hartrees
 There are        8 alpha and        8 beta electrons
 Requested basis set is cc-pVDZ
 There are 24 shells and 48 basis functions
 Total memory of 40000 MB is distributed as follows: 
   MEM_STATIC is set to 1024 MB
   QALLOC/CCMAN JOB total memory use is  38976 MB
 Warning: actual memory use might exceed 40000 MB

 Total QAlloc Memory Limit  40000 MB
 Mega-Array Size      1001 MB
 MEM_STATIC part      1024 MB

                       Distance Matrix (Angstroms)
             H (  1)   C (  2)   H (  3)   C (  4)   H (  5)
   C (  2)  1.040921
   H (  3)  1.863096  1.147602
   C (  4)  2.098852  1.333987  2.147317
   H (  5)  2.483207  2.147389  3.174406  1.147667
   H (  6)  3.032754  2.098816  2.483139  1.040861  1.863071

 A cutoff of  1.0D-11 yielded    300 shell pairs
 There are      1220 function pairs (      1329 Cartesian)
 Smallest overlap matrix eigenvalue = 4.83E-03

 Scale SEOQF with 1.000000e-01/1.000000e-01/1.000000e+00

 Standard Electronic Orientation quadrupole field applied
 Nucleus-field energy     =     0.0000000022 hartrees
 Guess from superposition of atomic densities
 Warning:  Energy on first SCF cycle will be non-variational
 SAD guess density has 16.000000 electrons
 A restricted Hartree-Fock SCF calculation will be
 performed using Pulay DIIS extrapolation
 SCF converges when DIIS error is below 1.0E-08
 using 10 threads for integral computing
 -------------------------------------------------------
 OpenMP Integral computing Module                
 Release: version 1.0, May 2013, Q-Chem Inc. Pittsburgh 
 -------------------------------------------------------
 ---------------------------------------
  Cycle       Energy         DIIS Error
 ---------------------------------------
    1     -78.3973253792      9.96E-02
    2     -78.0097756125      7.15E-03
    3     -78.0304226644      1.84E-03
    4     -78.0319228267      5.67E-04
    5     -78.0320427854      5.98E-05
    6     -78.0320447608      9.54E-06
    7     -78.0320448259      2.00E-06
    8     -78.0320448288      1.81E-07
    9     -78.0320448289      2.52E-08
   10     -78.0320448289      1.13E-08
   11     -78.0320448289      1.69E-09 Convergence criterion met
 ---------------------------------------
 SCF time:  CPU 2.08 s  wall 3.45 s
 SCF   energy in the final basis set = -78.03204483
 Total energy in the final basis set = -78.03204483
Exporting Density Matrix to file 'Densmat_SCF.txt'.
Export successful
================================================================================
|                                                                              |
|                                 A D C  M A N                                 |
|                                                                              |
 ------------------------------------------------------------------------------ 
|                                                                              |
| Components:                                                                  |
|                                                                              |
| - libvmm - 1.3-trunk                                                         |
|   Authors:                                                                   |
|   Evgeny Epifanovsky, Ilya Kaliman                                           |
|                                                                              |
| - libtensor - 2.5-trunk                                                      |
|   Authors:                                                                   |
|   Evgeny Epifanovsky, Michael Wormit, Dmitry Zuev, Sam Manzer,               |
|   Ilya Kaliman                                                               |
|                                                                              |
| - libwfa - 1.1-trunk                                                         |
|   Authors:                                                                   |
|   Felix Plasser, Stefanie Mewes (Baeppler), Benjamin Thomitzni,              |
|   Michael Wormit, Feng Chen, Anna I. Krylov, Pavel Pokhilko                  |
|                                                                              |
| - libadc - 1.1-trunk                                                         |
|   Authors:                                                                   |
|   Michael Wormit, Adrian L. Dempwolff, Philipp H. P. Harbach,                |
|   Caroline Krauter, Dirk Rehn, Matthias Schneider, Jan Wenzel                |
|                                                                              |
| - adcman - 2.6-trunk                                                         |
|   Authors:                                                                   |
|   Michael Wormit, Adrian L. Dempwolff, Philipp H. P. Harbach,                |
|   Caroline Krauter, Daniel Lefrancois, Jan-Michael Mewes, Dirk Rehn,         |
|   Matthias Schneider, Jan Wenzel, Andreas Dreuw                              |
|                                                                              |
| Authors of earlier versions of ADCMAN:                                       |
| Andreas Dreuw, Jan Hendrik Starcke, Dirk Rehn, Michael Wormit                |
|                                                                              |
================================================================================

 Created directory /scratch/fum/qchem74500/plots
  Import QC data ...  CPU 0.00 s  wall 0.00 s

 Alpha MOs, Restricted
 -- Occupied --                  
-11.239 -11.238  -1.031  -0.791  -0.632  -0.588  -0.495  -0.375
  1 A     2 A     3 A     4 A     5 A     6 A     7 A     8 A                  
 -- Virtual --                   
  0.167   0.202   0.226   0.240   0.302   0.462   0.580   0.609
  9 A    10 A    11 A    12 A    13 A    14 A    15 A    16 A                  
  0.688   0.704   0.772   0.807   0.862   0.923   0.974   1.013
 17 A    18 A    19 A    20 A    21 A    22 A    23 A    24 A                  
  1.130   1.236   1.241   1.262   1.293   1.588   1.731   1.741
 25 A    26 A    27 A    28 A    29 A    30 A    31 A    32 A                  
  1.810   1.849   1.851   1.905   1.959   1.970   2.230   2.250
 33 A    34 A    35 A    36 A    37 A    38 A    39 A    40 A                  
  2.359   2.403   2.495   2.593   2.705   2.827   3.129   3.397
 41 A    42 A    43 A    44 A    45 A    46 A    47 A    48 A                  

 Beta MOs, Restricted
 -- Occupied --                  
-11.239 -11.238  -1.031  -0.791  -0.632  -0.588  -0.495  -0.375
  1 A     2 A     3 A     4 A     5 A     6 A     7 A     8 A                  
 -- Virtual --                   
  0.167   0.202   0.226   0.240   0.302   0.462   0.580   0.609
  9 A    10 A    11 A    12 A    13 A    14 A    15 A    16 A                  
  0.688   0.704   0.772   0.807   0.862   0.923   0.974   1.013
 17 A    18 A    19 A    20 A    21 A    22 A    23 A    24 A                  
  1.130   1.236   1.241   1.262   1.293   1.588   1.731   1.741
 25 A    26 A    27 A    28 A    29 A    30 A    31 A    32 A                  
  1.810   1.849   1.851   1.905   1.959   1.970   2.230   2.250
 33 A    34 A    35 A    36 A    37 A    38 A    39 A    40 A                  
  2.359   2.403   2.495   2.593   2.705   2.827   3.129   3.397
 41 A    42 A    43 A    44 A    45 A    46 A    47 A    48 A                  
  Import AO data ...  CPU 0.00 s  wall 0.01 s
  Using point group: C1
  Irreducible representations in point group: A
  Molecular orbitals: 
  Occupied MOs:
  Block   0:   1 (  A) A   2 (  A) A   3 (  A) A   4 (  A) A   5 (  A) A
                  -11.24      -11.24      -1.031     -0.7906     -0.6321
               6 (  A) A   7 (  A) A   8 (  A) A
                 -0.5883     -0.4949     -0.3748
  Block   1:   1 (  A) B   2 (  A) B   3 (  A) B   4 (  A) B   5 (  A) B
                  -11.24      -11.24      -1.031     -0.7906     -0.6321
               6 (  A) B   7 (  A) B   8 (  A) B
                 -0.5883     -0.4949     -0.3748
  Virtual MOs:
  Block   0:   9 (  A) A  10 (  A) A  11 (  A) A  12 (  A) A  13 (  A) A
                  0.1674      0.2024      0.2262      0.2398      0.3019
              14 (  A) A  15 (  A) A  16 (  A) A  17 (  A) A  18 (  A) A
                  0.4624      0.5803      0.6095      0.6881      0.7044
              19 (  A) A  20 (  A) A  21 (  A) A  22 (  A) A
                  0.7717      0.8067      0.8618      0.9229
  Block   1:  23 (  A) A  24 (  A) A  25 (  A) A  26 (  A) A  27 (  A) A
                  0.9739       1.013        1.13       1.236       1.241
              28 (  A) A  29 (  A) A  30 (  A) A  31 (  A) A  32 (  A) A
                   1.262       1.293       1.588       1.731       1.741
              33 (  A) A  34 (  A) A  35 (  A) A  36 (  A) A
                    1.81       1.849       1.851       1.905
  Block   2:  37 (  A) A  38 (  A) A  39 (  A) A  40 (  A) A  41 (  A) A
                   1.959        1.97        2.23        2.25       2.359
              42 (  A) A  43 (  A) A  44 (  A) A  45 (  A) A  46 (  A) A
                   2.403       2.495       2.593       2.705       2.827
              47 (  A) A  48 (  A) A
                   3.129       3.397
  Block   3:   9 (  A) B  10 (  A) B  11 (  A) B  12 (  A) B  13 (  A) B
                  0.1674      0.2024      0.2262      0.2398      0.3019
              14 (  A) B  15 (  A) B  16 (  A) B  17 (  A) B  18 (  A) B
                  0.4624      0.5803      0.6095      0.6881      0.7044
              19 (  A) B  20 (  A) B  21 (  A) B  22 (  A) B
                  0.7717      0.8067      0.8618      0.9229
  Block   4:  23 (  A) B  24 (  A) B  25 (  A) B  26 (  A) B  27 (  A) B
                  0.9739       1.013        1.13       1.236       1.241
              28 (  A) B  29 (  A) B  30 (  A) B  31 (  A) B  32 (  A) B
                   1.262       1.293       1.588       1.731       1.741
              33 (  A) B  34 (  A) B  35 (  A) B  36 (  A) B
                    1.81       1.849       1.851       1.905
  Block   5:  37 (  A) B  38 (  A) B  39 (  A) B  40 (  A) B  41 (  A) B
                   1.959        1.97        2.23        2.25       2.359
              42 (  A) B  43 (  A) B  44 (  A) B  45 (  A) B  46 (  A) B
                   2.403       2.495       2.593       2.705       2.827
              47 (  A) B  48 (  A) B
                   3.129       3.397
  Import MO data ...  CPU 0.10 s  wall 0.05 s
  Import HF data ...  CPU 0.44 s  wall 0.18 s
  Import 2e integrals ...  CPU 1.34 s  wall 0.23 s

--------------------------------------------------------------------------------
                                   HF Summary                                   
--------------------------------------------------------------------------------
  Energy:                                                  -78.0320448289 a.u.
  Dip. moment [a.u.]:                  [  -0.000013,   -0.000020,    0.000014]
  Total dipole [Debye]:                                               0.000070
  <r^2> [a.u.]:                        [ 175.411567,   35.768446,   11.681147]
  Total <r^2> [a.u.]:                                               222.861160
--------------------------------------------------------------------------------
  HF properties ...  CPU 0.03 s  wall 0.02 s
  MP(1) calculation ...  CPU 0.01 s  wall 0.01 s
  N^6 prerequesite intermediates ...  CPU 0.55 s  wall 0.09 s
  Difference density matrix of state mp2_gs printed to ASCII file 'State_mp2_gs_Difference.txt'
Exporting MP density matrix to file 'Densmat_MP.txt'.
Export successful
  Total density matrix of state mp2_gs printed to ASCII file 'State_mp2_gs_Total.txt'
Exporting MP density matrix to file 'Densmat_MP.txt'.
Export successful

--------------------------------------------------------------------------------
                                 MP(2) Summary                                  
--------------------------------------------------------------------------------
  MP energy contribution:                                   -0.2805090074 a.u.
  Total energy:                                            -78.3125538363 a.u.
  Dip. moment [a.u.]:                  [  -0.000011,   -0.000017,    0.000014]
  Total dipole [Debye]:                                               0.000062
  <r^2> [a.u.]:                        [ 175.471189,   35.777932,   11.507144]
  Total <r^2> [a.u.]:                                               222.756264

  Density matrix analysis:
  ------------------------
  NOs
    Occupation of frontier NOs:
       0.0456   1.9379
    Number of electrons: 16.000000
    Number of unpaired electrons: n_u =  0.40787, n_u,nl =  0.04604
    NO participation ratio (PR_NO): 13.866847
  
  
  Mulliken Population Analysis
  Atom      Charge (e)              h+              e-           Del q
  --------------------------------------------------------------------
   1 H        0.042982        0.014515       -0.011273        0.003242
   2 C       -0.104244        0.094535       -0.100213       -0.005678
   3 H        0.061270        0.013788       -0.011352        0.002436
   4 C       -0.104243        0.094535       -0.100214       -0.005680
   5 H        0.061274        0.013788       -0.011352        0.002436
   6 H        0.042961        0.014517       -0.011273        0.003244
  --------------------------------------------------------------------
  Sum:       -0.000000        0.245677       -0.245677        0.000000
  
  Multipole moment analysis of the density matrix
    Molecular charge:                      -0.000000
    Number of electrons:                   16.000000
      Center of electronic charge [Ang]: [ -1.561341,  -0.065289,   0.002127]
    Total nuclear charge:                  16.000000
      Center of nuclear charge [Ang]:    [ -1.561341,  -0.065289,   0.002127]
    Dipole moment [D]:                     0.000062
      Cartesian components [D]:          [ -0.000028,  -0.000043,   0.000036]
    RMS size of the density [Ang]:         1.206889
      Cartesian components [Ang]:        [  0.795785,   0.788616,   0.448766]
  
  Exciton analysis of the difference density matrix
    <r_h> [Ang]:                  [ -1.561337,  -0.065277,   0.002125]
    <r_e> [Ang]:                  [ -1.561341,  -0.065284,   0.002125]
    |<r_e - r_h>| [Ang]:            0.000008
    Hole size [Ang]:                1.405261
      Cartesian components [Ang]: [  0.835993,   0.862362,   0.729523]
    Electron size [Ang]:            1.362051
      Cartesian components [Ang]: [  0.875689,   0.868608,   0.577815]
--------------------------------------------------------------------------------
  MP(2) calculation ...  CPU 0.35 s  wall 0.22 s
  Start ADC(2)-s ...  CPU 0.02 s  wall 0.01 s
  ADC(2) intermediates ...  CPU 0.28 s  wall 0.05 s
  Starting Davidson for singlet states of irrep A ... 
--------------------------------------------------------------------------------
   It NVec Conv  Avg. Norm  Max. Norm  Conv. states           Remark
--------------------------------------------------------------------------------
        10    0  1.329e-01  4.714e-01  0.4115 n n n n n n n n Guess.
    1   20    0  2.473e-02  1.270e-01  0.3260 n n n n n n n n 
    2   30    0  6.327e-03  3.264e-02  0.3211 n n n n n n n n 
    3   40    0  2.544e-03  1.847e-02  0.3207 n n n n n n n n 
    4   50    0  1.056e-03  8.746e-03  0.3207 n n n n n n n n 
    5   20    0  5.273e-04  4.451e-03  0.3207 n n n n n n n n Subspace collapsed.
    6   30    0  3.898e-04  3.588e-03  0.3207 n n n n n n n n 
    7   40    0  1.546e-04  1.364e-03  0.3207 n n n n n n n n 
    8   50    0  8.951e-05  6.894e-04  0.3207 n n n n n n n n 
    9   20    1  4.915e-05  3.551e-04  0.3207 n y n n n n n n Subspace collapsed.
   10   30    3  3.169e-05  2.243e-04  0.3207 n y y y n n n n 
   11   40    5  2.827e-05  2.355e-04  0.3207 n y y y y y n n 
   12   50    6  2.069e-05  1.959e-04  0.3207 y y y y y y n n 
   13   20    6  9.982e-06  9.478e-05  0.3207 y y y y y y n n Subspace collapsed.
   14   30    7  6.785e-06  6.366e-05  0.3207 y y y y y y n n 
   15   40    8  5.312e-06  5.121e-05  0.3207 y y y y y y n y 
   16   50    8  5.208e-06  5.141e-05  0.3207 y y y y y y n y 
   17   20    8  2.549e-06  2.508e-05  0.3207 y y y y y y n y Subspace collapsed.
   18   30    8  2.567e-06  2.533e-05  0.3207 y y y y y y n y 
   19   40    8  1.845e-06  1.822e-05  0.3207 y y y y y y n y 
   20   50    8  1.598e-06  1.589e-05  0.3207 y y y y y y n y 
   21   20    9  9.386e-07  9.357e-06  0.3207 y y y y y y y y Subspace collapsed.
   22   30    9  7.436e-07  7.417e-06  0.3207 y y y y y y y y 
   23   32    9  6.767e-07  6.746e-06  0.3207 y y y y y y y y 
   24   41    9  4.838e-07  4.830e-06  0.3207 y y y y y y y y 
   25   48    9  4.505e-07  4.502e-06  0.3207 y y y y y y y y 
   26   50    9  4.515e-07  4.513e-06  0.3207 y y y y y y y y 
   27   15    9  2.073e-07  2.073e-06  0.3207 y y y y y y y y Subspace collapsed.
   28   20    9  2.229e-07  2.229e-06  0.3207 y y y y y y y y 
   29   25    9  1.503e-07  1.502e-06  0.3207 y y y y y y y y 
   30   30    9  1.152e-07  1.152e-06  0.3207 y y y y y y y y 
   31   34    9  1.041e-07  1.041e-06  0.3207 y y y y y y y y 
   32   38   10  5.533e-08  5.532e-07  0.3207 y y y y y y y y Converged.
--------------------------------------------------------------------------------
  Davidson Summary: 
 ------------------------------------------------------------
  State  0: excitation energy =   0.3207 a.u.   (converged)
  State  1: excitation energy =   0.3253 a.u.   (converged)
  State  2: excitation energy =   0.3355 a.u.   (converged)
  State  3: excitation energy =   0.3528 a.u.   (converged)
  State  4: excitation energy =   0.3777 a.u.   (converged)
  State  5: excitation energy =   0.3900 a.u.   (converged)
  State  6: excitation energy =   0.4181 a.u.   (converged)
  State  7: excitation energy =   0.4419 a.u.   (converged)
  State  8: excitation energy =   0.4494 a.u.   (converged)
  State  9: excitation energy =   0.4527 a.u.   (converged)
 ------------------------------------------------------------

  Singlet states of irrep A ...  CPU 189.83 s  wall 61.96 s
  TDMs ...  CPU 2.24 s  wall 0.84 s
  SDMs ...  CPU 5.16 s  wall 1.53 s
  Starting TPA DIIS iterations ... 
------------------------------------ 
   It     Res. Norm  Remark
------------------------------------
                       Guess.
    1     4.582e+00  
    2     6.046e+00  
    3     1.059e+00  
    4     2.354e-01  
    5     6.336e-02  
    6     2.340e-02  
    7     7.843e-03  
    8     1.254e-03  
    9     4.657e-04  
   10     8.733e-05  
   11     2.527e-05  
   12     4.771e-06  
   13     1.457e-06  
   14     5.104e-07  Converged.
   ... Converged in 14 steps (norm: 5.10429e-07)
------------------------------------
  Starting TPA DIIS iterations ... 
------------------------------------ 
   It     Res. Norm  Remark
------------------------------------
                       Guess.
    1     4.006e+00  
    2     5.350e+00  
    3     1.076e+00  
    4     3.144e-01  
    5     6.896e-02  
    6     3.411e-02  
    7     8.818e-03  
    8     2.182e-03  
    9     7.624e-04  
   10     1.179e-04  
   11     4.336e-05  
   12     6.207e-06  
   13     2.148e-06  
   14     5.428e-07  Converged.
   ... Converged in 14 steps (norm: 5.42838e-07)
------------------------------------
  Starting TPA DIIS iterations ... 
------------------------------------ 
   It     Res. Norm  Remark
------------------------------------
                       Guess.
    1     6.893e-01  
    2     4.832e-01  
    3     1.685e-01  
    4     4.527e-02  
    5     1.782e-02  
    6     7.958e-03  
    7     1.204e-03  
    8     4.414e-04  
    9     1.348e-04  
   10     2.555e-05  
   11     6.070e-06  
   12     2.859e-06  
   13     9.228e-07  Converged.
   ... Converged in 13 steps (norm: 9.22825e-07)
------------------------------------
  Starting TPA DIIS iterations ... 
------------------------------------ 
   It     Res. Norm  Remark
------------------------------------
                       Guess.
    1     4.695e+00  
    2     6.247e+00  
    3     1.090e+00  
    4     2.451e-01  
    5     6.635e-02  
    6     2.455e-02  
    7     8.233e-03  
    8     1.318e-03  
    9     4.914e-04  
   10     9.215e-05  
   11     2.692e-05  
   12     5.083e-06  
   13     1.558e-06  
   14     5.446e-07  Converged.
   ... Converged in 14 steps (norm: 5.44645e-07)
------------------------------------
  Starting TPA DIIS iterations ... 
------------------------------------ 
   It     Res. Norm  Remark
------------------------------------
                       Guess.
    1     4.104e+00  
    2     5.527e+00  
    3     1.106e+00  
    4     3.276e-01  
    5     7.221e-02  
    6     3.591e-02  
    7     9.273e-03  
    8     2.300e-03  
    9     8.042e-04  
   10     1.246e-04  
   11     4.586e-05  
   12     6.586e-06  
   13     2.276e-06  
   14     5.785e-07  Converged.
   ... Converged in 14 steps (norm: 5.78475e-07)
------------------------------------
  Starting TPA DIIS iterations ... 
------------------------------------ 
   It     Res. Norm  Remark
------------------------------------
                       Guess.
    1     6.940e-01  
    2     4.898e-01  
    3     1.721e-01  
    4     4.714e-02  
    5     1.855e-02  
    6     8.211e-03  
    7     1.256e-03  
    8     4.647e-04  
    9     1.416e-04  
   10     2.684e-05  
   11     6.379e-06  
   12     3.054e-06  
   13     9.910e-07  Converged.
   ... Converged in 13 steps (norm: 9.90984e-07)
------------------------------------
  Starting TPA DIIS iterations ... 
------------------------------------ 
   It     Res. Norm  Remark
------------------------------------
                       Guess.
    1     4.967e+00  
    2     6.735e+00  
    3     1.163e+00  
    4     2.690e-01  
    5     7.371e-02  
    6     2.741e-02  
    7     9.194e-03  
    8     1.477e-03  
    9     5.556e-04  
   10     1.041e-04  
   11     3.108e-05  
   12     5.867e-06  
   13     1.816e-06  
   14     6.306e-07  Converged.
   ... Converged in 14 steps (norm: 6.30552e-07)
------------------------------------
  Starting TPA DIIS iterations ... 
------------------------------------ 
   It     Res. Norm  Remark
------------------------------------
                       Guess.
    1     4.338e+00  
    2     5.957e+00  
    3     1.178e+00  
    4     3.603e-01  
    5     8.022e-02  
    6     4.038e-02  
    7     1.040e-02  
    8     2.592e-03  
    9     9.077e-04  
   10     1.412e-04  
   11     5.205e-05  
   12     7.531e-06  
   13     2.586e-06  
   14     6.688e-07  Converged.
   ... Converged in 14 steps (norm: 6.68807e-07)
------------------------------------
  Starting TPA DIIS iterations ... 
------------------------------------ 
   It     Res. Norm  Remark
------------------------------------
                       Guess.
    1     7.048e-01  
    2     5.051e-01  
    3     1.808e-01  
    4     5.182e-02  
    5     2.028e-02  
    6     8.810e-03  
    7     1.387e-03  
    8     5.235e-04  
    9     1.588e-04  
   10     3.007e-05  
   11     7.150e-06  
   12     3.550e-06  
   13     1.170e-06  
   14     4.945e-07  Converged.
   ... Converged in 14 steps (norm: 4.94547e-07)
------------------------------------
  Starting TPA DIIS iterations ... 
------------------------------------ 
   It     Res. Norm  Remark
------------------------------------
                       Guess.
    1     5.489e+00  
    2     7.694e+00  
    3     1.302e+00  
    4     3.173e-01  
    5     8.862e-02  
    6     3.323e-02  
    7     1.114e-02  
    8     1.801e-03  
    9     6.884e-04  
   10     1.284e-04  
   11     3.988e-05  
   12     7.512e-06  
   13     2.366e-06  
   14     8.107e-07  Converged.
   ... Converged in 14 steps (norm: 8.10664e-07)
------------------------------------
  Starting TPA DIIS iterations ... 
------------------------------------ 
   It     Res. Norm  Remark
------------------------------------
                       Guess.
    1     4.789e+00  
    2     6.802e+00  
    3     1.315e+00  
    4     4.267e-01  
    5     9.646e-02  
    6     4.957e-02  
    7     1.269e-02  
    8     3.189e-03  
    9     1.120e-03  
   10     1.752e-04  
   11     6.453e-05  
   12     9.484e-06  
   13     3.176e-06  
   14     8.624e-07  Converged.
   ... Converged in 14 steps (norm: 8.62381e-07)
------------------------------------
  Starting TPA DIIS iterations ... 
------------------------------------ 
   It     Res. Norm  Remark
------------------------------------
                       Guess.
    1     7.237e-01  
    2     5.330e-01  
    3     1.970e-01  
    4     6.164e-02  
    5     2.347e-02  
    6     9.953e-03  
    7     1.655e-03  
    8     6.476e-04  
    9     1.947e-04  
   10     3.679e-05  
   11     8.757e-06  
   12     4.616e-06  
   13     1.583e-06  
   14     6.842e-07  Converged.
   ... Converged in 14 steps (norm: 6.84152e-07)
------------------------------------
  Starting TPA DIIS iterations ... 
------------------------------------ 
   It     Res. Norm  Remark
------------------------------------
                       Guess.
    1     6.416e+00  
    2     9.468e+00  
    3     1.549e+00  
    4     4.100e-01  
    5     1.174e-01  
    6     4.456e-02  
    7     1.491e-02  
    8     2.438e-03  
    9     9.537e-04  
   10     1.760e-04  
   11     5.795e-05  
   12     1.084e-05  
   13     3.520e-06  
   14     1.176e-06  
   15     3.284e-07  Converged.
   ... Converged in 15 steps (norm: 3.28419e-07)
------------------------------------
  Starting TPA DIIS iterations ... 
------------------------------------ 
   It     Res. Norm  Remark
------------------------------------
                       Guess.
    1     5.593e+00  
    2     8.365e+00  
    3     1.557e+00  
    4     5.557e-01  
    5     1.279e-01  
    6     6.771e-02  
    7     1.716e-02  
    8     4.359e-03  
    9     1.536e-03  
   10     2.422e-04  
   11     8.775e-05  
   12     1.345e-05  
   13     4.091e-06  
   14     1.269e-06  
   15     3.165e-07  Converged.
   ... Converged in 15 steps (norm: 3.16453e-07)
------------------------------------
  Starting TPA DIIS iterations ... 
------------------------------------ 
   It     Res. Norm  Remark
------------------------------------
                       Guess.
    1     7.528e-01  
    2     5.787e-01  
    3     2.246e-01  
    4     8.188e-02  
    5     2.867e-02  
    6     1.204e-02  
    7     2.186e-03  
    8     8.982e-04  
    9     2.669e-04  
   10     5.037e-05  
   11     1.204e-05  
   12     6.869e-06  
   13     2.609e-06  
   14     1.134e-06  
   15     4.398e-07  Converged.
   ... Converged in 15 steps (norm: 4.39805e-07)
------------------------------------
  Starting TPA DIIS iterations ... 
------------------------------------ 
   It     Res. Norm  Remark
------------------------------------
                       Guess.
    1     6.969e+00  
    2     1.057e+01  
    3     1.695e+00  
    4     4.692e-01  
    5     1.358e-01  
    6     5.188e-02  
    7     1.733e-02  
    8     2.852e-03  
    9     1.129e-03  
   10     2.068e-04  
   11     7.007e-05  
   12     1.304e-05  
   13     4.312e-06  
   14     1.422e-06  
   15     4.040e-07  Converged.
   ... Converged in 15 steps (norm: 4.04023e-07)
------------------------------------
  Starting TPA DIIS iterations ... 
------------------------------------ 
   It     Res. Norm  Remark
------------------------------------
                       Guess.
    1     6.074e+00  
    2     9.333e+00  
    3     1.700e+00  
    4     6.386e-01  
    5     1.481e-01  
    6     7.955e-02  
    7     2.004e-02  
    8     5.119e-03  
    9     1.806e-03  
   10     2.857e-04  
   11     1.017e-04  
   12     1.625e-05  
   13     4.558e-06  
   14     1.546e-06  
   15     3.946e-07  Converged.
   ... Converged in 15 steps (norm: 3.94636e-07)
------------------------------------
  Starting TPA DIIS iterations ... 
------------------------------------ 
   It     Res. Norm  Remark
------------------------------------
                       Guess.
    1     7.680e-01  
    2     6.040e-01  
    3     2.404e-01  
    4     9.568e-02  
    5     3.157e-02  
    6     1.334e-02  
    7     2.537e-03  
    8     1.060e-03  
    9     3.140e-04  
   10     5.938e-05  
   11     1.426e-05  
   12     8.419e-06  
   13     3.448e-06  
   14     1.457e-06  
   15     5.657e-07  Converged.
   ... Converged in 15 steps (norm: 5.65725e-07)
------------------------------------
  Starting TPA DIIS iterations ... 
------------------------------------ 
   It     Res. Norm  Remark
------------------------------------
                       Guess.
    1     8.567e+00  
    2     1.388e+01  
    3     2.112e+00  
    4     6.538e-01  
    5     1.934e-01  
    6     7.511e-02  
    7     2.490e-02  
    8     4.180e-03  
    9     1.696e-03  
   10     3.036e-04  
   11     1.097e-04  
   12     2.007e-05  
   13     6.990e-06  
   14     2.244e-06  
   15     6.611e-07  Converged.
   ... Converged in 15 steps (norm: 6.61057e-07)
------------------------------------
  Starting TPA DIIS iterations ... 
------------------------------------ 
   It     Res. Norm  Remark
------------------------------------
                       Guess.
    1     7.466e+00  
    2     1.226e+01  
    3     2.107e+00  
    4     8.979e-01  
    5     2.115e-01  
    6     1.175e-01  
    7     2.914e-02  
    8     7.534e-03  
    9     2.662e-03  
   10     4.237e-04  
   11     1.410e-04  
   12     2.733e-05  
   13     6.594e-06  
   14     2.412e-06  
   15     7.965e-07  Converged.
   ... Converged in 15 steps (norm: 7.96516e-07)
------------------------------------
  Starting TPA DIIS iterations ... 
------------------------------------ 
   It     Res. Norm  Remark
------------------------------------
                       Guess.
    1     8.051e-01  
    2     6.703e-01  
    3     2.836e-01  
    4     1.425e-01  
    5     3.976e-02  
    6     1.737e-02  
    7     3.685e-03  
    8     1.541e-03  
    9     4.597e-04  
   10     8.855e-05  
   11     2.179e-05  
   12     1.361e-05  
   13     7.022e-06  
   14     2.541e-06  
   15     9.849e-07  Converged.
   ... Converged in 15 steps (norm: 9.84866e-07)
------------------------------------
  Starting TPA DIIS iterations ... 
------------------------------------ 
   It     Res. Norm  Remark
------------------------------------
                       Guess.
    1     1.044e+01  
    2     1.801e+01  
    3     2.591e+00  
    4     8.908e-01  
    5     2.681e-01  
    6     1.058e-01  
    7     3.473e-02  
    8     5.957e-03  
    9     2.465e-03  
   10     4.297e-04  
   11     1.627e-04  
   12     2.926e-05  
   13     1.070e-05  
   14     3.438e-06  
   15     1.035e-06  
   16     2.850e-07  Converged.
   ... Converged in 16 steps (norm: 2.84996e-07)
------------------------------------
  Starting TPA DIIS iterations ... 
------------------------------------ 
   It     Res. Norm  Remark
------------------------------------
                       Guess.
    1     9.100e+00  
    2     1.591e+01  
    3     2.572e+00  
    4     1.230e+00  
    5     2.942e-01  
    6     1.682e-01  
    7     4.105e-02  
    8     1.072e-02  
    9     3.786e-03  
   10     6.048e-04  
   11     1.888e-04  
   12     4.678e-05  
   13     1.093e-05  
   14     3.520e-06  
   15     1.568e-06  
   16     4.040e-07  Converged.
   ... Converged in 16 steps (norm: 4.03961e-07)
------------------------------------
  Starting TPA DIIS iterations ... 
------------------------------------ 
   It     Res. Norm  Remark
------------------------------------
                       Guess.
    1     8.397e-01  
    2     7.385e-01  
    3     3.304e-01  
    4     2.087e-01  
    5     4.984e-02  
    6     2.242e-02  
    7     5.247e-03  
    8     2.061e-03  
    9     6.370e-04  
   10     1.276e-04  
   11     3.250e-05  
   12     2.050e-05  
   13     1.317e-05  
   14     4.011e-06  
   15     1.517e-06  
   16     3.832e-07  Converged.
   ... Converged in 16 steps (norm: 3.83204e-07)
------------------------------------
  Starting TPA DIIS iterations ... 
------------------------------------ 
   It     Res. Norm  Remark
------------------------------------
                       Guess.
    1     1.116e+01  
    2     1.968e+01  
    3     2.774e+00  
    4     9.880e-01  
    5     2.990e-01  
    6     1.186e-01  
    7     3.880e-02  
    8     6.709e-03  
    9     2.791e-03  
   10     4.819e-04  
   11     1.848e-04  
   12     3.305e-05  
   13     1.227e-05  
   14     3.973e-06  
   15     1.207e-06  
   16     3.362e-07  Converged.
   ... Converged in 16 steps (norm: 3.36182e-07)
------------------------------------
  Starting TPA DIIS iterations ... 
------------------------------------ 
   It     Res. Norm  Remark
------------------------------------
                       Guess.
    1     9.737e+00  
    2     1.739e+01  
    3     2.750e+00  
    4     1.365e+00  
    5     3.285e-01  
    6     1.895e-01  
    7     4.600e-02  
    8     1.205e-02  
    9     4.254e-03  
   10     6.800e-04  
   11     2.093e-04  
   12     5.581e-05  
   13     1.285e-05  
   14     4.112e-06  
   15     1.906e-06  
   16     4.563e-07  Converged.
   ... Converged in 16 steps (norm: 4.56335e-07)
------------------------------------
  Starting TPA DIIS iterations ... 
------------------------------------ 
   It     Res. Norm  Remark
------------------------------------
                       Guess.
    1     8.513e-01  
    2     7.629e-01  
    3     3.477e-01  
    4     2.371e-01  
    5     5.396e-02  
    6     2.442e-02  
    7     5.907e-03  
    8     2.242e-03  
    9     7.060e-04  
   10     1.440e-04  
   11     3.714e-05  
   12     2.324e-05  
   13     1.592e-05  
   14     4.636e-06  
   15     1.722e-06  
   16     4.699e-07  Converged.
   ... Converged in 16 steps (norm: 4.69896e-07)
------------------------------------
  Starting TPA DIIS iterations ... 
------------------------------------ 
   It     Res. Norm  Remark
------------------------------------
                       Guess.
    1     1.151e+01  
    2     2.049e+01  
    3     2.860e+00  
    4     1.035e+00  
    5     3.140e-01  
    6     1.248e-01  
    7     4.078e-02  
    8     7.077e-03  
    9     2.950e-03  
   10     5.072e-04  
   11     1.954e-04  
   12     3.488e-05  
   13     1.303e-05  
   14     4.240e-06  
   15     1.294e-06  
   16     3.629e-07  Converged.
   ... Converged in 16 steps (norm: 3.62934e-07)
------------------------------------
  Starting TPA DIIS iterations ... 
------------------------------------ 
   It     Res. Norm  Remark
------------------------------------
                       Guess.
    1     1.004e+01  
    2     1.810e+01  
    3     2.834e+00  
    4     1.430e+00  
    5     3.451e-01  
    6     1.999e-01  
    7     4.841e-02  
    8     1.270e-02  
    9     4.482e-03  
   10     7.166e-04  
   11     2.195e-04  
   12     6.030e-05  
   13     1.379e-05  
   14     4.436e-06  
   15     2.070e-06  
   16     4.795e-07  Converged.
   ... Converged in 16 steps (norm: 4.79539e-07)
------------------------------------
  Starting TPA DIIS iterations ... 
------------------------------------ 
   It     Res. Norm  Remark
------------------------------------
                       Guess.
    1     8.565e-01  
    2     7.741e-01  
    3     3.558e-01  
    4     2.509e-01  
    5     5.596e-02  
    6     2.537e-02  
    7     6.228e-03  
    8     2.323e-03  
    9     7.386e-04  
   10     1.520e-04  
   11     3.943e-05  
   12     2.454e-05  
   13     1.725e-05  
   14     4.943e-06  
   15     1.818e-06  
   16     5.132e-07  Converged.
   ... Converged in 16 steps (norm: 5.13243e-07)
------------------------------------
  Two-photon absorbption ...  CPU 154.81 s  wall 42.94 s
  Transition density matrix of state singlet_A_1 printed to ASCII file 'State_singlet_A_1_Transition.txt'
  Transition density matrix of state singlet_A_2 printed to ASCII file 'State_singlet_A_2_Transition.txt'
  Transition density matrix of state singlet_A_3 printed to ASCII file 'State_singlet_A_3_Transition.txt'
  Transition density matrix of state singlet_A_4 printed to ASCII file 'State_singlet_A_4_Transition.txt'
  Transition density matrix of state singlet_A_5 printed to ASCII file 'State_singlet_A_5_Transition.txt'
  Transition density matrix of state singlet_A_6 printed to ASCII file 'State_singlet_A_6_Transition.txt'
  Transition density matrix of state singlet_A_7 printed to ASCII file 'State_singlet_A_7_Transition.txt'
  Transition density matrix of state singlet_A_8 printed to ASCII file 'State_singlet_A_8_Transition.txt'
  Transition density matrix of state singlet_A_9 printed to ASCII file 'State_singlet_A_9_Transition.txt'
  Transition density matrix of state singlet_A_10 printed to ASCII file 'State_singlet_A_10_Transition.txt'
  Transition properties ...  CPU 0.36 s  wall 2.70 s
  Difference density matrix of state singlet_A_1 printed to ASCII file 'State_singlet_A_1_Difference.txt'
  Total density matrix of state singlet_A_1 printed to ASCII file 'State_singlet_A_1_Total.txt'
  Difference density matrix of state singlet_A_2 printed to ASCII file 'State_singlet_A_2_Difference.txt'
  Total density matrix of state singlet_A_2 printed to ASCII file 'State_singlet_A_2_Total.txt'
  Difference density matrix of state singlet_A_3 printed to ASCII file 'State_singlet_A_3_Difference.txt'
  Total density matrix of state singlet_A_3 printed to ASCII file 'State_singlet_A_3_Total.txt'
  Difference density matrix of state singlet_A_4 printed to ASCII file 'State_singlet_A_4_Difference.txt'
  Total density matrix of state singlet_A_4 printed to ASCII file 'State_singlet_A_4_Total.txt'
  Difference density matrix of state singlet_A_5 printed to ASCII file 'State_singlet_A_5_Difference.txt'
  Total density matrix of state singlet_A_5 printed to ASCII file 'State_singlet_A_5_Total.txt'
  Difference density matrix of state singlet_A_6 printed to ASCII file 'State_singlet_A_6_Difference.txt'
  Total density matrix of state singlet_A_6 printed to ASCII file 'State_singlet_A_6_Total.txt'
  Difference density matrix of state singlet_A_7 printed to ASCII file 'State_singlet_A_7_Difference.txt'
  Total density matrix of state singlet_A_7 printed to ASCII file 'State_singlet_A_7_Total.txt'
  Difference density matrix of state singlet_A_8 printed to ASCII file 'State_singlet_A_8_Difference.txt'
  Total density matrix of state singlet_A_8 printed to ASCII file 'State_singlet_A_8_Total.txt'
  Difference density matrix of state singlet_A_9 printed to ASCII file 'State_singlet_A_9_Difference.txt'
  Total density matrix of state singlet_A_9 printed to ASCII file 'State_singlet_A_9_Total.txt'
  Difference density matrix of state singlet_A_10 printed to ASCII file 'State_singlet_A_10_Difference.txt'
  Total density matrix of state singlet_A_10 printed to ASCII file 'State_singlet_A_10_Total.txt'
  Properties ...  CPU 0.79 s  wall 2.33 s
  ISR TDMS ...  CPU 31.24 s  wall 9.85 s
  ISR transition properties ...  CPU 0.59 s  wall 0.26 s
  Sum-over-states TPA ...  CPU 0.00 s  wall 0.00 s

--------------------------------------------------------------------------------
                   State-averaged natural transition orbitals
--------------------------------------------------------------------------------
--------------------------------------------------------------------------------
  SA-NTO decomposition ...  CPU 0.01 s  wall 0.03 s

--------------------------------------------------------------------------------
                             Excited State Summary
--------------------------------------------------------------------------------
--------------------------------------------------------------------------------

  Excited state 1 (singlet, A)                                     [converged]
  ----------------------------------------------------------------------------
  Term symbol:  2 (1) A                                     R^2 =  4.14003e-13

  Total energy:                                            -77.9918240692 a.u.
  Excitation energy:                                               8.727501 eV

  Osc. strength:                                                      0.446910
  Trans. dip. moment [a.u.]:           [   1.038607,   -1.005636,   -0.010801]
  <i|r^2|0> [a.u.]:                    [   6.128749,   -0.248174,    0.000212]
  Two-photon absorption cross-section (SoS) [a.u.]:                   0.000002
  Two-photon absorption matrix (SoS) [a.u.]:
                                       |   -0.000078    0.000014    0.000367 |
                                       |    0.000014    0.000035    0.000255 |
                                       |    0.000367    0.000255    0.000094 |
  Two-photon absorption cross-section [a.u.]:                         0.000003
  Two-photon absorption matrix [a.u.]:
                                       |   -0.000082    0.000041    0.000043 |
                                       |    0.000041    0.000089   -0.000597 |
                                       |    0.000043   -0.000597   -0.000056 |

  Dip. moment [a.u.]:                  [  -0.000011,   -0.000018,    0.000054]
  Total dipole [Debye]:                                               0.000147
  <r^2> [a.u.]:                        [ 176.273500,   36.409509,   11.915758]
  Total <r^2> [a.u.]:                                               224.598767

  V1^2 = 0.9713, V2^2 = 0.0287

  Important amplitudes:
      occ i     occ j     vir a      vir b          v   
    -----------------------------------------------------
     8 (A) A              9 (A) A                 0.6807
     6 (A) A             14 (A) A                -0.0606
     4 (A) A             10 (A) A                 0.0593
     7 (A) A             16 (A) A                 0.0560
     5 (A) A             13 (A) A                -0.0530
     6 (A) A             23 (A) A                 0.0460
     8 (A) A             20 (A) A                 0.0349
     6 (A) A             19 (A) A                -0.0300
     3 (A) A             12 (A) A                 0.0239
     5 (A) A             10 (A) A                 0.0225
     5 (A) A             22 (A) A                -0.0219
     7 (A) A             11 (A) A                -0.0187
     3 (A) A             26 (A) A                -0.0186
     8 (A) A   8 (A) B   17 (A) A   20 (A) B     -0.0184
     4 (A) A             24 (A) A                 0.0183
     7 (A) A             21 (A) A                 0.0170
     8 (A) A   8 (A) B    9 (A) A   28 (A) B     -0.0168
     6 (A) A             26 (A) A                 0.0161
     3 (A) A             11 (A) A                -0.0154
     3 (A) A             14 (A) A                 0.0142
     3 (A) A   4 (A) B    9 (A) A    9 (A) B     -0.0128
     7 (A) A             14 (A) A                -0.0117
     3 (A) A             19 (A) A                 0.0116
     6 (A) A             16 (A) A                -0.0113
     7 (A) A             23 (A) A                 0.0112
     8 (A) A   8 (A) B   18 (A) A   19 (A) B     -0.0107
     6 (A) A             12 (A) A                 0.0106
     7 (A) A             32 (A) A                 0.0095
     6 (A) A             21 (A) A                 0.0093
     7 (A) A             12 (A) A                -0.0087
     6 (A) A             11 (A) A                -0.0085
     3 (A) A             23 (A) A                -0.0078
     8 (A) A   8 (A) B   25 (A) A   29 (A) B      0.0075
     7 (A) A             36 (A) A                -0.0074
     3 (A) A   6 (A) B    9 (A) A   28 (A) B      0.0064
     6 (A) A             40 (A) A                 0.0062
     5 (A) A   7 (A) B    9 (A) A    9 (A) B     -0.0060
     5 (A) A             27 (A) A                 0.0059
     6 (A) A             34 (A) A                -0.0059
     6 (A) A   8 (A) A   19 (A) A   28 (A) A     -0.0059
    -----------------------------------------------------

  Density matrix analysis:
  ------------------------
  NOs
    Occupation of frontier NOs:
       0.9484   1.0226
    Number of electrons: 16.000000
    Number of unpaired electrons: n_u =  2.31699, n_u,nl =  2.03363
    NO participation ratio (PR_NO):  2.878407
  
  
  Mulliken Population Analysis
  Atom      Charge (e)              h+              e-           Del q
  --------------------------------------------------------------------
   1 H        0.050557        0.019963       -0.012388        0.007575
   2 C       -0.120003        0.490244       -0.506003       -0.015759
   3 H        0.069454        0.021018       -0.012833        0.008184
   4 C       -0.120004        0.490243       -0.506004       -0.015761
   5 H        0.069460        0.021018       -0.012833        0.008186
   6 H        0.050536        0.019962       -0.012388        0.007575
  --------------------------------------------------------------------
  Sum:       -0.000000        1.062449       -1.062449        0.000000
  
  Multipole moment analysis of the density matrix
    Molecular charge:                      -0.000000
    Number of electrons:                   16.000000
      Center of electronic charge [Ang]: [ -1.561341,  -0.065288,   0.002125]
    Total nuclear charge:                  16.000000
      Center of nuclear charge [Ang]:    [ -1.561341,  -0.065289,   0.002127]
    Dipole moment [D]:                     0.000147
      Cartesian components [D]:          [ -0.000028,  -0.000046,   0.000136]
    RMS size of the density [Ang]:         1.220175
      Cartesian components [Ang]:        [  0.804560,   0.795593,   0.456665]
  
  Exciton analysis of the difference density matrix
    <r_h> [Ang]:                  [ -1.561343,  -0.065295,   0.002146]
    <r_e> [Ang]:                  [ -1.561343,  -0.065294,   0.002126]
    |<r_e - r_h>| [Ang]:            0.000020
    Hole size [Ang]:                1.287452
      Cartesian components [Ang]: [  0.731211,   0.714339,   0.782676]
    Electron size [Ang]:            1.463953
      Cartesian components [Ang]: [  0.863790,   0.822645,   0.848693]

  Transition density matrix analysis:
  -----------------------------------
  
  CT numbers (Mulliken)
    omega =     0.9531
    <Phe> =    -0.1601
  
  Exciton analysis of the transition density matrix
    Trans. dipole moment [D]:             1.837335
      Cartesian components [D]:         [  1.319938,  -1.278036,  -0.013726]
    <r_h> [Ang]:                        [ -1.561343,  -0.065297,   0.002144]
    <r_e> [Ang]:                        [ -1.561342,  -0.065293,   0.002118]
    |<r_e - r_h>| [Ang]:                  0.000026
    Hole size [Ang]:                      1.214565
      Cartesian components [Ang]:       [  0.654585,   0.633133,   0.803636]
    Electron size [Ang]:                  1.486434
      Cartesian components [Ang]:       [  0.874628,   0.830622,   0.868665]
    RMS electron-hole separation [Ang]:   1.936571
      Cartesian components [Ang]:       [  1.122517,   1.059623,   1.169386]
    Covariance(r_h, r_e) [Ang^2]:        -0.032828
    Correlation coefficient:             -0.018183
    Center-of-mass size [Ang]:            0.951183
      Cartesian components [Ang]:       [  0.530770,   0.514485,   0.598614]

  Decomposition into state-averaged NTOs
    H- 0 -> L+ 0:  0.6694 ( 89.6%)
    H- 2 -> L+ 5: -0.0822 (  1.4%)
                   omega =  95.3%
  ----------------------------------------------------------------------------


  Excited state 2 (singlet, A)                                     [converged]
  ----------------------------------------------------------------------------
  Term symbol:  3 (1) A                                     R^2 =  3.47510e-13

  Total energy:                                            -77.9872674323 a.u.
  Excitation energy:                                               8.851493 eV

  Osc. strength:                                                      0.000000
  Trans. dip. moment [a.u.]:           [   0.000860,   -0.000831,    0.000076]
  <i|r^2|0> [a.u.]:                    [   0.042062,    0.114723,   -0.151952]
  Two-photon absorption cross-section (SoS) [a.u.]:                   6.309933
  Two-photon absorption matrix (SoS) [a.u.]:
                                       |    0.059219    0.067610   -0.613732 |
                                       |    0.067610    0.075567   -0.627456 |
                                       |   -0.613732   -0.627456   -0.135606 |
  Two-photon absorption cross-section [a.u.]:                         2.482128
  Two-photon absorption matrix [a.u.]:
                                       |    0.022961   -0.010035   -0.235070 |
                                       |   -0.010035   -0.061603    0.502009 |
                                       |   -0.235070    0.502009    0.038293 |

  Dip. moment [a.u.]:                  [  -0.000088,   -0.000015,   -0.000003]
  Total dipole [Debye]:                                               0.000226
  <r^2> [a.u.]:                        [ 175.458102,   33.983207,   13.165586]
  Total <r^2> [a.u.]:                                               222.606895

  V1^2 = 0.9545, V2^2 = 0.0455

  Important amplitudes:
      occ i     occ j     vir a      vir b          v   
    -----------------------------------------------------
     7 (A) A              9 (A) A                -0.6651
     8 (A) A             11 (A) A                 0.1619
     7 (A) A             20 (A) A                -0.0756
     8 (A) A             12 (A) A                 0.0346
     5 (A) A   8 (A) B    9 (A) A    9 (A) B      0.0308
     8 (A) A             16 (A) A                 0.0281
     8 (A) A             21 (A) A                -0.0165
     5 (A) A             28 (A) A                 0.0144
     5 (A) A   7 (A) B    9 (A) A   16 (A) B     -0.0135
     4 (A) A   7 (A) B    9 (A) A   19 (A) B      0.0125
     3 (A) A              9 (A) A                 0.0122
     8 (A) A             19 (A) A                -0.0115
     7 (A) A   8 (A) B   20 (A) A   17 (A) B      0.0105
     7 (A) A   8 (A) A    9 (A) A   28 (A) A     -0.0095
     5 (A) A   8 (A) B    9 (A) A   20 (A) B      0.0091
     8 (A) A   7 (A) B    9 (A) A   28 (A) B      0.0086
     5 (A) A   6 (A) A    9 (A) A   23 (A) A     -0.0086
     5 (A) A   6 (A) A    9 (A) A   14 (A) A      0.0086
     4 (A) A   5 (A) A    9 (A) A   10 (A) A      0.0081
     6 (A) A              9 (A) A                -0.0081
     4 (A) A   6 (A) B    9 (A) A   16 (A) B     -0.0080
     3 (A) A   7 (A) B    9 (A) A   18 (A) B     -0.0079
     5 (A) A   7 (A) A    9 (A) A   16 (A) A     -0.0077
     5 (A) A   6 (A) B    9 (A) A   23 (A) B     -0.0076
     5 (A) A   6 (A) B    9 (A) A   19 (A) B      0.0076
     7 (A) A   8 (A) B   17 (A) A   20 (A) B      0.0074
     4 (A) A   8 (A) B    9 (A) A   25 (A) B      0.0071
     6 (A) A   7 (A) B    9 (A) A   18 (A) B     -0.0070
     7 (A) A   8 (A) B   19 (A) A   18 (A) B      0.0069
     5 (A) A   5 (A) B    9 (A) A   13 (A) B      0.0068
     5 (A) A   8 (A) A    9 (A) A   20 (A) A      0.0066
     4 (A) A   7 (A) B   19 (A) A    9 (A) B      0.0066
     5 (A) A   6 (A) B    9 (A) A   14 (A) B      0.0065
     7 (A) A   8 (A) B   17 (A) A    9 (A) B      0.0065
     4 (A) A   5 (A) B    9 (A) A   18 (A) B     -0.0063
     7 (A) A   7 (A) B   20 (A) A   22 (A) B     -0.0063
     7 (A) A   7 (A) B    9 (A) A   18 (A) B     -0.0062
     4 (A) A   5 (A) B   10 (A) A    9 (A) B     -0.0060
     4 (A) A   7 (A) A    9 (A) A   19 (A) A      0.0059
     5 (A) A             38 (A) A                 0.0058
    -----------------------------------------------------

  Density matrix analysis:
  ------------------------
  NOs
    Occupation of frontier NOs:
       0.9462   1.0633
    Number of electrons: 16.000000
    Number of unpaired electrons: n_u =  2.35578, n_u,nl =  2.07132
    NO participation ratio (PR_NO):  3.090780
  
  
  Mulliken Population Analysis
  Atom      Charge (e)              h+              e-           Del q
  --------------------------------------------------------------------
   1 H        0.103917        0.076934       -0.015999        0.060935
   2 C       -0.294458        0.278394       -0.468607       -0.190213
   3 H        0.190535        0.165349       -0.036083        0.129265
   4 C       -0.294439        0.278430       -0.468626       -0.190196
   5 H        0.190523        0.165397       -0.036148        0.129249
   6 H        0.103921        0.076927       -0.015967        0.060959
  --------------------------------------------------------------------
  Sum:       -0.000000        1.041430       -1.041430        0.000000
  
  Multipole moment analysis of the density matrix
    Molecular charge:                      -0.000000
    Number of electrons:                   16.000000
      Center of electronic charge [Ang]: [ -1.561338,  -0.065289,   0.002127]
    Total nuclear charge:                  16.000000
      Center of nuclear charge [Ang]:    [ -1.561341,  -0.065289,   0.002127]
    Dipole moment [D]:                     0.000226
      Cartesian components [D]:          [ -0.000223,  -0.000038,  -0.000008]
    RMS size of the density [Ang]:         1.205808
      Cartesian components [Ang]:        [  0.795646,   0.768443,   0.480017]
  
  Exciton analysis of the difference density matrix
    <r_h> [Ang]:                  [ -1.561355,  -0.065179,   0.002102]
    <r_e> [Ang]:                  [ -1.561316,  -0.065180,   0.002111]
    |<r_e - r_h>| [Ang]:            0.000040
    Hole size [Ang]:                1.501873
      Cartesian components [Ang]: [  0.859873,   1.139807,   0.465921]
    Electron size [Ang]:            1.488483
      Cartesian components [Ang]: [  0.857896,   0.903648,   0.814259]

  Transition density matrix analysis:
  -----------------------------------
  
  CT numbers (Mulliken)
    omega =     0.9213
    <Phe> =    -0.0109
  
  Exciton analysis of the transition density matrix
    Trans. dipole moment [D]:             0.001523
      Cartesian components [D]:         [  0.001093,  -0.001056,   0.000096]
    <r_h> [Ang]:                        [ -1.561360,  -0.065168,   0.002106]
    <r_e> [Ang]:                        [ -1.561313,  -0.065181,   0.002116]
    |<r_e - r_h>| [Ang]:                  0.000050
    Hole size [Ang]:                      1.528180
      Cartesian components [Ang]:       [  0.864382,   1.174711,   0.456323]
    Electron size [Ang]:                  1.483871
      Cartesian components [Ang]:       [  0.850347,   0.889690,   0.828996]
    RMS electron-hole separation [Ang]:   2.110532
      Cartesian components [Ang]:       [  1.197598,   1.458231,   0.945341]
    Covariance(r_h, r_e) [Ang^2]:         0.041430
    Correlation coefficient:              0.018270
    Center-of-mass size [Ang]:            1.074717
      Cartesian components [Ang]:       [  0.613647,   0.744404,   0.473620]

  Decomposition into state-averaged NTOs
    H- 1 -> L+ 0: -0.6568 ( 86.3%)
    H- 0 -> L+ 2:  0.1606 (  5.2%)
                   omega =  92.1%
  ----------------------------------------------------------------------------


  Excited state 3 (singlet, A)                                     [converged]
  ----------------------------------------------------------------------------
  Term symbol:  4 (1) A                                     R^2 =  6.78324e-13

  Total energy:                                            -77.9770534196 a.u.
  Excitation energy:                                               9.129431 eV

  Osc. strength:                                                      0.023093
  Trans. dip. moment [a.u.]:           [   0.015266,    0.019462,   -0.320370]
  <i|r^2|0> [a.u.]:                    [   0.089899,    0.005049,    0.002554]
  Two-photon absorption cross-section (SoS) [a.u.]:                   0.000020
  Two-photon absorption matrix (SoS) [a.u.]:
                                       |   -0.001138   -0.000036    0.000118 |
                                       |   -0.000036    0.001679    0.000489 |
                                       |    0.000118    0.000489    0.000246 |
  Two-photon absorption cross-section [a.u.]:                         0.000013
  Two-photon absorption matrix [a.u.]:
                                       |   -0.000797   -0.000096    0.000007 |
                                       |   -0.000096    0.001253    0.000596 |
                                       |    0.000007    0.000596    0.000181 |

  Dip. moment [a.u.]:                  [  -0.000409,   -0.000960,   -0.000091]
  Total dipole [Debye]:                                               0.002663
  <r^2> [a.u.]:                        [ 180.509755,   41.865830,   11.045077]
  Total <r^2> [a.u.]:                                               233.420663

  V1^2 = 0.9579, V2^2 = 0.0421

  Important amplitudes:
      occ i     occ j     vir a      vir b          v   
    -----------------------------------------------------
     8 (A) A             10 (A) A                 0.6880
     8 (A) A             24 (A) A                 0.0467
     8 (A) A             18 (A) A                -0.0345
     8 (A) A             13 (A) A                -0.0283
     4 (A) A              9 (A) A                 0.0239
     8 (A) A             22 (A) A                -0.0214
     8 (A) A   8 (A) B    9 (A) A   12 (A) B      0.0176
     8 (A) A   8 (A) B   10 (A) A   17 (A) B      0.0171
     5 (A) A   8 (A) B   11 (A) A   10 (A) B     -0.0158
     8 (A) A             15 (A) A                 0.0147
     8 (A) A   8 (A) B    9 (A) A   11 (A) B     -0.0140
     7 (A) A   8 (A) B   13 (A) A   10 (A) B     -0.0139
     6 (A) A   8 (A) A   10 (A) A   15 (A) A      0.0108
     6 (A) A   8 (A) B   15 (A) A   10 (A) B     -0.0105
     5 (A) A              9 (A) A                 0.0104
     7 (A) A   8 (A) B   22 (A) A   10 (A) B     -0.0101
     4 (A) A   8 (A) B   12 (A) A   10 (A) B      0.0100
     5 (A) A   8 (A) A   10 (A) A   11 (A) A      0.0099
     7 (A) A   8 (A) A   10 (A) A   22 (A) A      0.0096
     7 (A) A   8 (A) A   10 (A) A   13 (A) A      0.0095
     4 (A) A   8 (A) A   10 (A) A   12 (A) A     -0.0090
     5 (A) A   8 (A) B   21 (A) A   10 (A) B      0.0086
     6 (A) A   8 (A) B   10 (A) A   10 (A) B      0.0082
     6 (A) A   8 (A) A   10 (A) A   18 (A) A      0.0081
     3 (A) A   4 (A) B   10 (A) A    9 (A) B     -0.0079
     8 (A) A   8 (A) B    9 (A) A   23 (A) B      0.0075
     5 (A) A   8 (A) A   10 (A) A   21 (A) A     -0.0075
     8 (A) A   8 (A) B   10 (A) A   28 (A) B     -0.0073
     3 (A) A   8 (A) B   10 (A) A   10 (A) B      0.0071
     8 (A) A   8 (A) B    9 (A) A   19 (A) B      0.0070
     4 (A) A   8 (A) B   19 (A) A   10 (A) B      0.0069
     7 (A) A   8 (A) B   11 (A) A   11 (A) B      0.0069
     3 (A) A   8 (A) A   10 (A) A   24 (A) A     -0.0067
     3 (A) A   8 (A) B   10 (A) A   18 (A) B     -0.0066
     5 (A) A   8 (A) B   12 (A) A   10 (A) B     -0.0066
     7 (A) A   8 (A) A   11 (A) A   16 (A) A     -0.0065
     3 (A) A   6 (A) B   10 (A) A   28 (A) B      0.0062
     6 (A) A   8 (A) B   18 (A) A   10 (A) B     -0.0060
     5 (A) A   8 (A) B   10 (A) A   11 (A) B     -0.0059
     7 (A) A   8 (A) A   12 (A) A   16 (A) A      0.0057
    -----------------------------------------------------

  Density matrix analysis:
  ------------------------
  NOs
    Occupation of frontier NOs:
       0.9812   0.9844
    Number of electrons: 16.000000
    Number of unpaired electrons: n_u =  2.28888, n_u,nl =  2.02519
    NO participation ratio (PR_NO):  2.702394
  
  
  Mulliken Population Analysis
  Atom      Charge (e)              h+              e-           Del q
  --------------------------------------------------------------------
   1 H       -0.158759        0.051475       -0.253216       -0.201741
   2 C        0.311304        0.537568       -0.122020        0.415549
   3 H       -0.152480        0.056595       -0.270345       -0.213750
   4 C        0.311331        0.537610       -0.122035        0.415574
   5 H       -0.152768        0.056586       -0.270628       -0.214042
   6 H       -0.158629        0.051476       -0.253066       -0.201590
  --------------------------------------------------------------------
  Sum:        0.000000        1.291310       -1.291310        0.000000
  
  Multipole moment analysis of the density matrix
    Molecular charge:                      -0.000000
    Number of electrons:                   16.000000
      Center of electronic charge [Ang]: [ -1.561327,  -0.065257,   0.002130]
    Total nuclear charge:                  16.000000
      Center of nuclear charge [Ang]:    [ -1.561341,  -0.065289,   0.002127]
    Dipole moment [D]:                     0.002663
      Cartesian components [D]:          [ -0.001040,  -0.002441,  -0.000232]
    RMS size of the density [Ang]:         1.281901
      Cartesian components [Ang]:        [  0.849411,   0.853503,   0.439663]
  
  Exciton analysis of the difference density matrix
    <r_h> [Ang]:                  [ -1.561343,  -0.065274,   0.002124]
    <r_e> [Ang]:                  [ -1.561180,  -0.064887,   0.002167]
    |<r_e - r_h>| [Ang]:            0.000422
    Hole size [Ang]:                1.411810
      Cartesian components [Ang]: [  0.828920,   0.828686,   0.787007]
    Electron size [Ang]:            2.075189
      Cartesian components [Ang]: [  1.334265,   1.416675,   0.720540]

  Transition density matrix analysis:
  -----------------------------------
  
  CT numbers (Mulliken)
    omega =     0.9247
    <Phe> =    -0.0111
  
  Exciton analysis of the transition density matrix
    Trans. dipole moment [D]:             0.408362
      Cartesian components [D]:         [  0.019402,   0.024733,  -0.407150]
    <r_h> [Ang]:                        [ -1.561347,  -0.065311,   0.002117]
    <r_e> [Ang]:                        [ -1.561123,  -0.064749,   0.002181]
    |<r_e - r_h>| [Ang]:                  0.000608
    Hole size [Ang]:                      1.212638
      Cartesian components [Ang]:       [  0.643678,   0.616339,   0.822373]
    Electron size [Ang]:                  2.295711
      Cartesian components [Ang]:       [  1.468696,   1.574715,   0.795924]
    RMS electron-hole separation [Ang]:   2.586147
      Cartesian components [Ang]:       [  1.595614,   1.684065,   1.142847]
    Covariance(r_h, r_e) [Ang^2]:         0.026313
    Correlation coefficient:              0.009452
    Center-of-mass size [Ang]:            1.303208
      Cartesian components [Ang]:       [  0.805729,   0.848988,   0.573037]

  Decomposition into state-averaged NTOs
    H- 0 -> L+ 1: -0.6791 ( 92.2%)
                   omega =  92.5%
  ----------------------------------------------------------------------------


  Excited state 4 (singlet, A)                                     [converged]
  ----------------------------------------------------------------------------
  Term symbol:  5 (1) A                                     R^2 =  1.49856e-13

  Total energy:                                            -77.9597777801 a.u.
  Excitation energy:                                               9.599525 eV

  Osc. strength:                                                      0.000000
  Trans. dip. moment [a.u.]:           [   0.000131,   -0.000183,    0.000140]
  <i|r^2|0> [a.u.]:                    [   0.000631,   -0.020570,    0.020700]
  Two-photon absorption cross-section (SoS) [a.u.]:                  91.595374
  Two-photon absorption matrix (SoS) [a.u.]:
                                       |   -0.112598   -0.222317    1.155830 |
                                       |   -0.222317   -0.379900    3.140676 |
                                       |    1.155830    3.140676    0.493364 |
  Two-photon absorption cross-section [a.u.]:                        66.114362
  Two-photon absorption matrix [a.u.]:
                                       |   -0.078083   -0.180641    0.798286 |
                                       |   -0.180641   -0.329866    2.730083 |
                                       |    0.798286    2.730083    0.408889 |

  Dip. moment [a.u.]:                  [   0.000411,    0.001169,    0.000100]
  Total dipole [Debye]:                                               0.003159
  <r^2> [a.u.]:                        [ 176.481047,   45.859875,   10.802096]
  Total <r^2> [a.u.]:                                               233.143018

  V1^2 = 0.9614, V2^2 = 0.0386

  Important amplitudes:
      occ i     occ j     vir a      vir b          v   
    -----------------------------------------------------
     8 (A) A             11 (A) A                -0.6559
     7 (A) A              9 (A) A                -0.1675
     8 (A) A             12 (A) A                -0.1064
     8 (A) A             21 (A) A                 0.0672
     8 (A) A             16 (A) A                -0.0631
     8 (A) A             19 (A) A                 0.0351
     6 (A) A              9 (A) A                 0.0278
     5 (A) A   8 (A) B   11 (A) A   11 (A) B      0.0168
     7 (A) A             20 (A) A                -0.0160
     8 (A) A   8 (A) B    9 (A) A   13 (A) B     -0.0150
     8 (A) A   8 (A) B   11 (A) A   17 (A) B     -0.0133
     7 (A) A   8 (A) B   13 (A) A   11 (A) B      0.0130
     8 (A) A   8 (A) B    9 (A) A   22 (A) B     -0.0103
     8 (A) A             14 (A) A                -0.0103
     8 (A) A   8 (A) B    9 (A) A   10 (A) B      0.0101
     5 (A) A   8 (A) A   11 (A) A   21 (A) A      0.0096
     7 (A) A   8 (A) A   11 (A) A   22 (A) A     -0.0092
     8 (A) A             26 (A) A                -0.0091
     3 (A) A              9 (A) A                 0.0089
     6 (A) A   8 (A) B   15 (A) A   11 (A) B      0.0088
     7 (A) A   8 (A) B   22 (A) A   11 (A) B      0.0088
     6 (A) A   8 (A) A   11 (A) A   15 (A) A     -0.0081
     4 (A) A   8 (A) B   12 (A) A   11 (A) B     -0.0080
     3 (A) A   4 (A) B   11 (A) A    9 (A) B      0.0080
     7 (A) A   8 (A) A   13 (A) A   16 (A) A     -0.0075
     6 (A) A   8 (A) B   10 (A) A   11 (A) B     -0.0074
     4 (A) A   8 (A) B   11 (A) A   11 (A) B      0.0073
     3 (A) A   8 (A) B   11 (A) A   18 (A) B      0.0073
     5 (A) A   8 (A) B    9 (A) A    9 (A) B      0.0073
     8 (A) A             23 (A) A                 0.0071
     7 (A) A   8 (A) B   10 (A) A   11 (A) B     -0.0067
     7 (A) A   8 (A) A   11 (A) A   13 (A) A     -0.0066
     7 (A) A   8 (A) B   11 (A) A   13 (A) B      0.0064
     4 (A) A   8 (A) B   19 (A) A   11 (A) B     -0.0062
     7 (A) A   8 (A) B   11 (A) A   10 (A) B     -0.0062
     5 (A) A   8 (A) B   21 (A) A   11 (A) B     -0.0061
     3 (A) A   6 (A) B   11 (A) A   28 (A) B     -0.0059
     4 (A) A   8 (A) A   11 (A) A   12 (A) A      0.0059
     7 (A) A   8 (A) B   18 (A) A   11 (A) B      0.0057
     5 (A) A   8 (A) A   11 (A) A   16 (A) A     -0.0054
    -----------------------------------------------------

  Density matrix analysis:
  ------------------------
  NOs
    Occupation of frontier NOs:
       0.9276   1.0398
    Number of electrons: 16.000000
    Number of unpaired electrons: n_u =  2.32427, n_u,nl =  2.06013
    NO participation ratio (PR_NO):  2.997313
  
  
  Mulliken Population Analysis
  Atom      Charge (e)              h+              e-           Del q
  --------------------------------------------------------------------
   1 H        0.031848        0.047318       -0.058451       -0.011133
   2 C        0.232889        0.491424       -0.154291        0.337133
   3 H       -0.264817        0.048001       -0.374087       -0.326086
   4 C        0.232806        0.491365       -0.154316        0.337049
   5 H       -0.264387        0.048001       -0.373663       -0.325661
   6 H        0.031661        0.047323       -0.058624       -0.011301
  --------------------------------------------------------------------
  Sum:       -0.000000        1.173432       -1.173432        0.000000
  
  Multipole moment analysis of the density matrix
    Molecular charge:                      -0.000000
    Number of electrons:                   16.000000
      Center of electronic charge [Ang]: [ -1.561355,  -0.065328,   0.002124]
    Total nuclear charge:                  16.000000
      Center of nuclear charge [Ang]:    [ -1.561341,  -0.065289,   0.002127]
    Dipole moment [D]:                     0.003159
      Cartesian components [D]:          [  0.001044,   0.002971,   0.000254]
    RMS size of the density [Ang]:         1.279968
      Cartesian components [Ang]:        [  0.806787,   0.893511,   0.434800]
  
  Exciton analysis of the difference density matrix
    <r_h> [Ang]:                  [ -1.561338,  -0.065339,   0.002118]
    <r_e> [Ang]:                  [ -1.561528,  -0.065874,   0.002080]
    |<r_e - r_h>| [Ang]:            0.000569
    Hole size [Ang]:                1.399527
      Cartesian components [Ang]: [  0.804237,   0.832362,   0.786798]
    Electron size [Ang]:            2.106351
      Cartesian components [Ang]: [  0.941911,   1.760318,   0.671415]

  Transition density matrix analysis:
  -----------------------------------
  
  CT numbers (Mulliken)
    omega =     0.9272
    <Phe> =    -0.0165
  
  Exciton analysis of the transition density matrix
    Trans. dipole moment [D]:             0.000337
      Cartesian components [D]:         [  0.000167,  -0.000232,   0.000178]
    <r_h> [Ang]:                        [ -1.561340,  -0.065290,   0.002122]
    <r_e> [Ang]:                        [ -1.561565,  -0.065975,   0.002070]
    |<r_e - r_h>| [Ang]:                  0.000723
    Hole size [Ang]:                      1.233612
      Cartesian components [Ang]:       [  0.669840,   0.654512,   0.802948]
    Electron size [Ang]:                  2.237894
      Cartesian components [Ang]:       [  0.966369,   1.889445,   0.710140]
    RMS electron-hole separation [Ang]:   2.543547
      Cartesian components [Ang]:       [  1.169257,   1.988559,   1.071497]
    Covariance(r_h, r_e) [Ang^2]:         0.030167
    Correlation coefficient:              0.010927
    Center-of-mass size [Ang]:            1.283579
      Cartesian components [Ang]:       [  0.591174,   1.005287,   0.536177]

  Decomposition into state-averaged NTOs
    H- 0 -> L+ 2: -0.6478 ( 83.9%)
    H- 1 -> L+ 0: -0.1661 (  5.5%)
    H- 0 -> L+ 4: -0.1217 (  3.0%)
                   omega =  92.7%
  ----------------------------------------------------------------------------


  Excited state 5 (singlet, A)                                     [converged]
  ----------------------------------------------------------------------------
  Term symbol:  6 (1) A                                     R^2 =  4.10467e-13

  Total energy:                                            -77.9348473763 a.u.
  Excitation energy:                                              10.277915 eV

  Osc. strength:                                                      0.000000
  Trans. dip. moment [a.u.]:           [   0.000037,    0.000008,    0.000016]
  <i|r^2|0> [a.u.]:                    [  -0.099169,    0.066748,    0.032599]
  Two-photon absorption cross-section (SoS) [a.u.]:                 269.857367
  Two-photon absorption matrix (SoS) [a.u.]:
                                       |   -0.522857   -0.231931    5.426215 |
                                       |   -0.231931    0.241069   -2.007360 |
                                       |    5.426215   -2.007360    0.280472 |
  Two-photon absorption cross-section [a.u.]:                       142.666641
  Two-photon absorption matrix [a.u.]:
                                       |   -0.381496   -0.170350    3.953354 |
                                       |   -0.170350    0.172494   -1.437404 |
                                       |    3.953354   -1.437404    0.207492 |

  Dip. moment [a.u.]:                  [   0.000049,   -0.000122,   -0.000029]
  Total dipole [Debye]:                                               0.000341
  <r^2> [a.u.]:                        [ 183.495213,   36.613042,   11.623561]
  Total <r^2> [a.u.]:                                               231.731815

  V1^2 = 0.9567, V2^2 = 0.0433

  Important amplitudes:
      occ i     occ j     vir a      vir b          v   
    -----------------------------------------------------
     8 (A) A             12 (A) A                -0.5628
[...]
    16   -1.488724732774e-03
    17   -1.607609693392e-03
    18   -1.592398010909e-03
    19   -2.735601039397e-03
    20    8.354160558689e-03
    21    8.837131416853e-01
    22   -3.370745738303e-04
    23    1.202649538291e-02
    24    7.115418430831e-04
    25    7.020112149332e-02
    26   -5.219261013671e-02
    27   -1.386434801822e+00
    28    8.733446835812e-02
    29   -1.084031045922e-01
    30   -2.380575595593e-03
    31    3.783905225458e-01
    32   -3.737676346479e-01
    33   -4.509477000312e-03
    34    1.490828635543e-02
    35   -1.486638878590e-03
    36   -1.606069589203e-03
    37   -1.599319917097e-03
    38   -2.735136925843e-03
    39    8.377791920135e-03
    40    8.840098167681e-01
    41    3.348373638617e-04
    42   -1.202725194012e-02
    43   -7.112260137438e-04
    44    1.585179109982e-02
    45    9.722594156805e-01
    46    1.493061170839e-02
    47   -2.293473892412e-04
    48    7.012454043476e-04
Sym=X
Ene= 0.226158
Spin=Alpha
Occup=0
     1   -1.106872167032e-02
     2   -4.147892541799e-01
     3    2.590808355105e-03
     4   -2.929247182529e-05
     5    1.231351917385e-04
     6    4.753261334337e-02
     7   -4.666974553717e-02
     8   -7.526174259744e-01
     9    9.514900955442e-02
    10    1.771470576101e-01
    11    1.528483493661e-02
    12    3.233506174496e-01
    13    5.703502834142e-01
    14    5.003157024542e-02
    15    9.539511493479e-03
    16   -1.310644504395e-03
    17   -1.009296750011e-03
    18   -4.090068160853e-03
    19   -5.183661554475e-03
    20    5.109721081538e-02
    21    1.465538901797e+00
    22    5.888292382846e-03
    23    1.599574988017e-02
    24    1.250220621851e-03
    25   -4.751375976657e-02
    26    4.665687261930e-02
    27    7.521296953341e-01
    28    9.517636828290e-02
    29    1.771415682453e-01
    30    1.526952199390e-02
    31    3.234614191443e-01
    32    5.702564289788e-01
    33    4.996822678413e-02
    34   -9.531303055987e-03
    35    1.310036613664e-03
    36    1.007923726754e-03
    37    4.088629538934e-03
    38    5.179235852803e-03
    39   -5.110497955197e-02
    40   -1.465219283049e+00
    41    5.887229271823e-03
    42    1.598830309924e-02
    43    1.248807939083e-03
    44    1.106017260578e-02
    45    4.150888006475e-01
    46    2.596919949711e-03
    47   -2.835134462336e-05
    48    1.228016005380e-04
Sym=X
Ene= 0.239753
Spin=Alpha
Occup=0
     1   -1.904024815217e-02
     2   -1.638532093674e+00
     3    2.373525338404e-02
     4    1.000968086824e-02
     5    1.744582040732e-03
     6   -7.245608135784e-02
     7    6.862943882201e-02
     8    1.345521396696e+00
     9    1.241132473921e-01
    10    3.882836710386e-02
    11    8.309059874784e-03
    12    5.158685573896e-01
    13    1.034348383695e-01
    14    3.104873248006e-02
    15   -1.871019037939e-02
    16    2.424005849721e-03
    17    2.323608483542e-03
    18    3.326793585463e-03
    19    1.150732880500e-02
    20   -2.510343668895e-03
    21   -2.400694188234e-01
    22   -7.343463943076e-03
    23   -5.340005306599e-03
    24   -6.751600336058e-04
    25    7.246044117883e-02
    26   -6.862978444248e-02
    27   -1.345714186831e+00
    28    1.241054246157e-01
    29    3.880960325106e-02
    30    8.285851397400e-03
    31    5.158850823074e-01
    32    1.033558736289e-01
    33    3.094559364372e-02
    34    1.871371028040e-02
    35   -2.421371856444e-03
    36   -2.324227016609e-03
    37   -3.327120296190e-03
    38   -1.150875590173e-02
    39    2.500711621157e-03
    40    2.401701487662e-01
    41   -7.345324925015e-03
    42   -5.341242761265e-03
    43   -6.761153674391e-04
    44    1.903993600582e-02
    45    1.638658232368e+00
    46    2.373885568980e-02
    47    1.001041564808e-02
    48    1.742768029550e-03
Sym=X
Ene= 0.301853
Spin=Alpha
Occup=0
     1   -3.243920528547e-02
     2    1.766633830943e+00
     3   -2.372483543896e-02
     4   -7.140048050874e-04
     5   -1.184065100687e-03
     6    1.370360876059e-03
     7   -1.073434483740e-03
     8   -2.087117482614e-01
     9   -1.345223827172e-01
    10   -1.437385877594e-01
    11   -1.515329142072e-02
    12   -1.133341550616e+00
    13   -1.163547098874e+00
    14   -1.247475093532e-01
    15    4.630045211323e-03
    16   -2.360432541368e-03
    17    1.194707329640e-03
    18   -3.296041981125e-02
    19   -6.454947584095e-03
    20    7.462895035942e-03
    21   -1.545359625229e+00
    22    3.158489567423e-03
    23   -2.218880096081e-02
    24   -1.188651586372e-03
    25    1.373375152422e-03
    26   -1.069888878757e-03
    27   -2.090043868796e-01
    28    1.345238665827e-01
    29    1.437410930930e-01
    30    1.513877908773e-02
    31    1.133329013239e+00
    32    1.163520994233e+00
    33    1.246950017415e-01
    34    4.636091802685e-03
    35   -2.357762082255e-03
    36    1.195497050200e-03
    37   -3.295784410599e-02
    38   -6.459638014904e-03
    39    7.447847285144e-03
    40   -1.545204767999e+00
    41   -3.160896015725e-03
    42    2.218567584606e-02
    43    1.188148177786e-03
    44   -3.244309430386e-02
    45    1.766777003287e+00
    46    2.372570883359e-02
    47    7.143106798476e-04
    48    1.182367731942e-03
Sym=X
Ene= 0.462435
Spin=Alpha
Occup=0
     1    7.856631642856e-02
     2    8.487536266755e-01
     3    1.380675755465e-02
     4    1.357950886835e-02
     5    1.484577773310e-03
     6   -6.290307105954e-02
     7   -1.658015204708e-02
     8    3.632544170486e+00
     9   -1.052658576569e-01
    10    9.909234755446e-02
    11    9.456662444586e-04
    12   -2.525800036706e+00
    13    2.199988123770e+00
    14    1.145171726751e-02
    15   -5.298945356209e-02
    16    3.018938112483e-03
    17    4.832959963762e-03
    18   -3.877501998657e-03
    19   -2.029358240093e-02
    20    1.499754878278e-01
    21    5.432114687871e-01
    22   -6.612342133327e-03
    23   -1.680456530873e-02
    24   -1.333456775968e-03
    25    6.290409261653e-02
    26    1.657238770730e-02
    27   -3.632538357832e+00
    28   -1.052810221615e-01
    29    9.910704932481e-02
    30    9.529085588253e-04
    31   -2.525852444051e+00
    32    2.199853334685e+00
    33    1.147937506851e-02
    34    5.298397527279e-02
    35   -3.014560840020e-03
    36   -4.826900786109e-03
    37    3.880585081357e-03
    38    2.030133258620e-02
    39   -1.499496065914e-01
    40   -5.430898225309e-01
    41   -6.610675584151e-03
    42   -1.680393354654e-02
    43   -1.331436268428e-03
    44   -7.852059099267e-02
    45   -8.489434277470e-01
    46    1.380607926134e-02
    47    1.357824119156e-02
    48    1.483044689270e-03
Sym=X
Ene= 0.580300
Spin=Alpha
Occup=0
     1    2.220139360761e-01
     2    1.606523005833e-01
     3   -2.054438282020e-02
     4    2.175277633319e-02
     5    3.275295932786e-04
     6   -6.442627794416e-03
     7   -1.713514120070e-01
     8   -4.234772668091e-01
     9    3.018220777739e-01
    10   -2.942078064045e-01
    11   -3.263897378491e-03
    12   -8.019376582663e-01
    13    6.546749892961e-01
    14    1.039070357477e-03
    15   -1.326545032767e-03
    16    2.766222814447e-03
    17    4.161369173229e-03
    18   -1.929325364195e-02
    19    5.900002401589e-02
    20    2.522916545598e-01
    21   -5.799572220127e-02
    22   -3.258786470530e-02
    23    2.216955405060e-02
    24   -2.259324688049e-04
    25   -6.451695626453e-03
    26   -1.713520794862e-01
    27   -4.230367886138e-01
    28   -3.018186938651e-01
    29    2.941856578252e-01
    30    3.259192247143e-03
    31    8.023938862157e-01
    32   -6.548955204922e-01
    33   -1.039882809687e-03
    34   -1.326487375285e-03
    35    2.767400165107e-03
    36    4.160172940868e-03
    37   -1.927094310094e-02
    38    5.900144646658e-02
    39    2.521776711913e-01
    40   -5.785724193012e-02
    41    3.260442159775e-02
    42   -2.218612503257e-02
    43    2.248252893180e-04
    44    2.221076256307e-01
    45    1.608399937871e-01
    46    2.052954931312e-02
    47   -2.174489228712e-02
    48   -3.284703495562e-04
Sym=X
Ene= 0.609471
Spin=Alpha
Occup=0
     1   -5.041622413830e-01
     2    4.573604184711e-02
     3   -5.986871866701e-02
     4    3.338356527676e-02
     5   -8.581404806618e-04
     6   -6.578626536454e-04
     7   -3.506508012593e-02
     8   -1.319545335734e-01
     9   -4.896457682244e-02
    10   -2.464974826621e-02
    11   -3.841670008330e-03
    12    5.414296412753e-01
    13    2.794095092757e-02
    14    2.773609721224e-02
    15   -2.273518369733e-03
    16   -6.961926962458e-03
    17    9.178049989974e-03
    18   -1.482846283129e-01
    19   -6.795188624195e-04
    20    5.307754750316e-01
    21   -4.099427043700e-01
    22    4.294837370967e-02
    23   -5.661814266117e-02
    24   -1.356526704197e-03
    25    6.558270213442e-04
    26    3.511063154909e-02
    27    1.319078145607e-01
    28   -4.893312273323e-02
    29   -2.467667606402e-02
    30   -3.849725546892e-03
    31    5.413300301990e-01
    32    2.802983780689e-02
    33    2.766761030805e-02
    34    2.300187961043e-03
    35    6.951958737978e-03
    36   -9.187857878198e-03
    37    1.482955192924e-01
    38    6.552067854521e-04
    39   -5.309634501049e-01
    40    4.101342297422e-01
    41    4.293546490611e-02
    42   -5.662056014289e-02
    43   -1.361425015536e-03
    44    5.040430774135e-01
    45   -4.567437184716e-02
    46   -5.986674151118e-02
    47    3.339075413536e-02
    48   -8.574834940353e-04
Sym=X
Ene= 0.688078
Spin=Alpha
Occup=0
     1    4.357356318289e-05
     2    4.104325006272e-05
     3    1.393406665754e-03
     4    1.756413541222e-03
     5   -2.896573301062e-02
     6    2.473151597642e-06
     7    2.066608905156e-06
     8    4.390554158858e-05
     9    3.218190883248e-02
    10    4.048278666913e-02
    11   -6.698161402708e-01
    12   -2.955608429435e-02
    13   -3.696640108046e-02
    14    6.128504441498e-01
    15   -6.145737716665e-04
    16    8.639255258474e-02
    17   -7.453465782782e-02
    18   -8.649028419992e-03
    19   -1.623636475147e-03
    20    3.627708768141e-05
    21    3.372238590932e-05
    22    4.511791995641e-04
    23    5.715994596700e-04
    24   -9.469396470316e-03
    25   -1.088830402808e-07
    26    3.214000283697e-05
    27   -6.936068297113e-05
    28    3.216386085796e-02
    29    4.044351215079e-02
    30   -6.698211723041e-01
    31   -2.952465249915e-02
    32   -3.691838649958e-02
    33    6.128603660065e-01
    34    6.014850084154e-04
    35   -8.639301998998e-02
    36    7.453607614860e-02
    37    8.657775165022e-03
    38    1.629040677794e-03
    39   -8.107534768302e-06
    40   -3.814807981341e-05
    41    4.492384770980e-04
    42    5.773517198150e-04
    43   -9.458606355570e-03
    44   -1.328498555711e-05
    45   -7.664634584954e-05
    46    1.382117047749e-03
    47    1.749342035760e-03
    48   -2.897859068601e-02
Sym=X
Ene= 0.704350
Spin=Alpha
Occup=0
     1   -4.327107200763e-01
     2   -7.859631831147e-03
     3   -7.459813465235e-02
     4   -4.553654985568e-02
     5   -6.340314098010e-03
     6   -4.574233235099e-02
     7   -2.939949370653e-01
     8    4.642653257851e-01
     9    1.639366271634e-01
    10   -2.200719767462e-01
    11   -5.443384554826e-03
    12    4.499243130105e-02
    13    1.637682181202e-01
    14    1.202026006383e-02
    15    1.891987920917e-01
    16   -1.993499154005e-02
    17   -2.422850958775e-02
    18    1.060428053703e-02
    19   -7.583636947527e-02
    20   -5.416860636125e-01
    21    3.325004397458e-01
    22    3.869398498323e-02
    23    8.267110351538e-02
    24    6.849893395026e-03
    25   -4.573903489317e-02
    26   -2.939969545824e-01
    27    4.639883971589e-01
    28   -1.638850117786e-01
    29    2.201188531023e-01
    30    5.400379138929e-03
    31   -4.542287774678e-02
    32   -1.637444756360e-01
    33   -1.198212417599e-02
    34    1.892025693849e-01
    35   -1.992859250940e-02
    36   -2.421549697561e-02
    37    1.058329561310e-02
    38   -7.582553051934e-02
    39   -5.416159584046e-01
    40    3.325653443633e-01
    41   -3.870474399491e-02
    42   -8.266184662610e-02
    43   -6.846927899015e-03
    44   -4.327867221497e-01
    45   -8.124923986922e-03
    46    7.460807800485e-02
    47    4.552692596066e-02
    48    6.334009632874e-03
Sym=X
Ene= 0.771741
Spin=Alpha
Occup=0
     1   -5.156274762523e-01
     2    2.043723328785e-01
     3   -8.691489361175e-02
     4   -1.457557303001e-02
     5   -5.058836129797e-03
     6   -8.674293572218e-02
     7    2.200656706306e-01
     8    5.909866061870e-01
     9   -1.933573330760e-01
    10   -8.560062947804e-03
    11   -9.836517904140e-03
    12   -7.714405279521e-02
    13    4.935547247952e-01
    14    2.614440662341e-02
    15    1.932548440816e-01
    16   -1.527606066646e-02
    17   -2.234956317097e-02
    18    2.752209532382e-02
    19   -6.851051773758e-03
    20   -5.443236223102e-01
    21    7.119534600999e-01
    22    3.282879045032e-02
    23    1.216895557626e-01
    24    8.931527349227e-03
    25    8.674082152244e-02
    26   -2.201157373641e-01
    27   -5.910200650781e-01
    28   -1.934656420684e-01
    29   -8.660611249113e-03
    30   -9.818437406574e-03
    31   -7.684380230001e-02
    32    4.938078166661e-01
    33    2.608943368806e-02
    34   -1.932409129623e-01
    35    1.525209353301e-02
    36    2.233492904115e-02
    37   -2.754303552828e-02
    38    6.840965756702e-03
    39    5.443990837093e-01
    40   -7.122181526119e-01
    41    3.282525402884e-02
    42    1.217058173616e-01
    43    8.925362353117e-03
    44    5.155525031930e-01
    45   -2.040561596659e-01
    46   -8.688740841507e-02
    47   -1.458077947494e-02
    48   -5.054013632942e-03
Sym=X
Ene= 0.806663
Spin=Alpha
Occup=0
     1    7.733306196163e-06
     2    3.662680342202e-05
     3    1.892645659108e-03
     4    2.385804314793e-03
     5   -3.952626086901e-02
     6    2.011139242439e-06
     7   -2.530847831815e-05
     8    1.304321210843e-05
     9    3.669894164201e-02
    10    4.611867267214e-02
    11   -7.632794736195e-01
    12   -5.405822205149e-02
    13   -6.793668218634e-02
    14    1.124163085067e+00
    15    5.074195643038e-04
    16   -6.747673011276e-02
    17    5.854745340665e-02
    18    6.770184037112e-03
    19    1.255301531980e-03
    20    3.722990375786e-06
    21   -3.859216219661e-05
    22    1.108362258371e-03
    23    1.397597495257e-03
    24   -2.314296782825e-02
    25    7.196333176088e-07
    26   -2.198805765467e-05
    27    6.877968840403e-06
    28   -3.663714270030e-02
    29   -4.607617389246e-02
    30    7.632802838712e-01
    31    5.397487162534e-02
    32    6.784753012352e-02
    33   -1.124168609773e+00
    34    5.137285389446e-04
    35   -6.747603342327e-02
    36    5.854661354988e-02
    37    6.789616366331e-03
    38    1.259884174914e-03
    39   -6.232720952489e-06
    40    5.603148477355e-05
    41   -1.110345290856e-03
    42   -1.410150838192e-03
    43    2.312809180725e-02
    44    1.271886679736e-06
    45   -2.387298736903e-05
    46   -1.894911241248e-03
    47   -2.394386305854e-03
    48    3.953597434575e-02
Sym=X
Ene= 0.861764
Spin=Alpha
Occup=0
     1    8.968019596690e-02
     2   -1.072977745300e+00
     3    1.666257914248e-01
     4    4.779564627076e-02
     5    1.088905971417e-02
     6    2.400534644114e-02
     7   -2.033090622210e-02
     8    1.262160795947e-01
     9   -3.060738158036e-01
    10   -5.047484937573e-01
    11   -4.523056982127e-02
    12    7.855750902736e-01
    13    1.059391444070e+00
    14    1.018078476558e-01
    15   -7.114643219373e-02
    16    1.574900582412e-02
    17   -7.216433270800e-03
    18    2.280037196913e-01
    19   -1.881128590325e-02
    20    7.492063248583e-02
    21    9.887795175951e-01
    22    5.431955652730e-02
    23    1.223634365205e-01
    24    1.000802247025e-02
    25   -2.401163223807e-02
    26    2.019530959809e-02
    27   -1.261002068626e-01
    28   -3.060220052370e-01
    29   -5.047386096664e-01
    30   -4.515079698046e-02
    31    7.854250239458e-01
    32    1.059331793415e+00
    33    1.016342529641e-01
    34    7.117951734820e-02
    35   -1.574412129111e-02
    36    7.217239525758e-03
    37   -2.279880762155e-01
    38    1.880235045704e-02
    39   -7.497199363571e-02
    40   -9.886518977083e-01
    41    5.431251107361e-02
    42    1.223467895116e-01
    43    1.000472062845e-02
    44   -8.966598124475e-02
    45    1.072824290728e+00
    46    1.666150374058e-01
    47    4.778603379141e-02
    48    1.087953297924e-02
Sym=X
Ene= 0.922893
Spin=Alpha
Occup=0
     1    1.486873145908e-01
     2   -9.980341915092e-01
     3    1.485816268214e-01
     4   -2.155945996831e-02
     5    5.843201073708e-03
     6    8.680838226885e-03
     7    3.321185635988e-01
     8   -4.874011654467e-01
     9   -4.124608776244e-01
    10   -5.229980390989e-01
    11   -5.141494675350e-02
    12    1.193969421518e+00
    13    1.471555125828e+00
    14    1.462786379151e-01
    15   -3.641557760223e-02
    16    7.593405100458e-03
    17   -3.548341814654e-03
    18    1.113401804039e-01
    19   -1.328364165378e-02
    20   -1.338898025865e-01
    21    1.300481410694e+00
    22   -4.094023539514e-03
    23    1.950614265310e-01
    24    1.158898537151e-02
    25    8.710878313071e-03
    26    3.321607344579e-01
    27   -4.871175230299e-01
    28    4.122446124440e-01
    29    5.231792431437e-01
    30    5.139489557074e-02
    31   -1.193398580048e+00
    32   -1.471940630497e+00
    33   -1.462169798573e-01
    34   -3.650732557647e-02
    35    7.577992156010e-03
    36   -3.538209940765e-03
    37    1.113254985330e-01
    38   -1.337204267245e-02
    39   -1.338089640084e-01
    40    1.300546618356e+00
    41    4.073133072663e-03
    42   -1.950468868511e-01
    43   -1.158453122005e-02
    44    1.487458061967e-01
    45   -9.977521632592e-01
    46   -1.485752702971e-01
    47    2.159498516598e-02
    48   -5.833494908215e-03
Sym=X
Ene= 0.973904
Spin=Alpha
Occup=0
     1   -8.329133225920e-02
     2    1.114713874495e+00
     3   -1.188618998349e-01
     4   -9.994524945442e-02
     5   -1.174139699041e-02
     6    2.404781778852e-02
     7    2.510963853578e-01
     8    5.057670897303e-01
     9    5.173844717936e-01
    10   -4.084468136188e-01
    11    1.899382971090e-04
    12   -1.621064650488e+00
    13    1.237947614443e+00
    14   -3.128427341390e-03
    15   -5.086383520350e-02
    16   -1.517917532787e-02
    17   -7.191756949364e-03
    18   -3.014719581397e-02
    19   -2.967143549399e-01
    20   -5.048838668217e-02
    21    6.956167793276e-01
    22    8.993879369694e-02
    23    6.644430991216e-02
    24    8.339197585843e-03
    25   -2.404047589997e-02
    26   -2.506198032183e-01
    27   -5.065949304197e-01
    28    5.174461817473e-01
    29   -4.082555251217e-01
    30    1.792947578638e-04
    31   -1.621377066681e+00
    32    1.237312796996e+00
    33   -3.112181250832e-03
    34    5.084220039198e-02
    35    1.517645239786e-02
    36    7.191287081615e-03
    37    3.018460490877e-02
    38    2.966621633386e-01
    39    5.048222215937e-02
    40   -6.949301196994e-01
    41    8.991372688294e-02
    42    6.634665897620e-02
    43    8.334906018255e-03
    44    8.328691846912e-02
    45   -1.114838476377e+00
    46   -1.188653754827e-01
    47   -9.992122164549e-02
    48   -1.173226625597e-02
[5D]

======= END OF MOLDEN-FORMATTED INPUT FILE =======


        *************************************************************
        *                                                           *
        *  Thank you very much for using Q-Chem.  Have a nice day.  *
        *                                                           *
        *************************************************************


