                  Welcome to Q-Chem
     A Quantum Leap Into The Future Of Chemistry


 Q-Chem 5.4 (devel), Q-Chem, Inc., Pleasanton, CA (2021)

 E. Epifanovsky,  A. T. B. Gilbert,  Xintian Feng,  Joonho Lee,  Yuezhi Mao,  
 N. Mardirossian,  P. Pokhilko,  A. White,  M. Wormit,  M. P. Coons,  
 A. L. Dempwolff,  Zhengting Gan,  D. Hait,  P. R. Horn,  L. D. Jacobson,  
 I. Kaliman,  J. Kussmann,  A. W. Lange,  Ka Un Lao,  D. S. Levine,  Jie Liu,  
 S. C. McKenzie,  A. F. Morrison,  K. Nanda,  F. Plasser,  D. R. Rehn,  
 M. L. Vidal,  Zhi-Qiang You,  Ying Zhu,  B. Alam,  B. Albrecht,  
 A. Aldossary,  E. Alguire,  J. H. Andersen,  D. Barton,  K. Begam,  A. Behn,  
 Y. A. Bernard,  E. J. Berquist,  H. Burton,  A. Carreras,  K. Carter-Fenk,  
 R. Chakraborty,  A. D. Chien,  K. D. Closser,  V. Cofer-Shabica,  
 S. Dasgupta,  Jia Deng,  M. de Wergifosse,  M. Diedenhofen,  Hainam Do,  
 S. Ehlert,  Po-Tung Fang,  S. Fatehi,  Qingguo Feng,  T. Friedhoff,  
 J. Gayvert,  Qinghui Ge,  G. Gidofalvi,  M. Goldey,  J. Gomes,  
 C. Gonzalez-Espinoza,  S. Gulania,  A. Gunina,  M. W. D. Hanson-Heine,  
 P. H. P. Harbach,  A. W. Hauser,  M. F. Herbst,  M. Hernandez Vera,  
 M. Hodecker,  Z. C. Holden,  S. Houck,  Xunkun Huang,  Kerwin Hui,  
 B. C. Huynh,  M. Ivanov,  Hyunjun Ji,  Hanjie Jiang,  B. Kaduk,  S. Kaehler,  
 K. Khistyaev,  Jaehoon Kim,  P. Klunzinger,  Z. Koczor-Benda,  
 Joong Hoon Koh,  D. Kosenkov,  L. Koulias,  T. Kowalczyk,  C. M. Krauter,  
 K. Kue,  A. Kunitsa,  T. Kus,  A. Landau,  K. V. Lawler,  D. Lefrancois,  
 S. Lehtola,  Rain Li,  Yi-Pei Li,  Jiashu Liang,  M. Liebenthal,  
 Hung-Hsuan Lin,  You-Sheng Lin,  Fenglai Liu,  Kuan-Yu Liu,  
 M. Loipersberger,  A. Luenser,  A. Manjanath,  P. Manohar,  E. Mansoor,  
 S. F. Manzer,  Shan-Ping Mao,  A. V. Marenich,  T. Markovich,  S. Mason,  
 S. A. Maurer,  P. F. McLaughlin,  M. F. S. J. Menger,  J.-M. Mewes,  
 S. A. Mewes,  P. Morgante,  J. W. Mullinax,  K. J. Oosterbaan,  G. Paran,  
 Alexander C. Paul,  Suranjan K. Paul,  F. Pavosevic,  Zheng Pei,  S. Prager,  
 E. I. Proynov,  E. Ramos,  B. Rana,  A. E. Rask,  A. Rettig,  R. M. Richard,  
 F. Rob,  E. Rossomme,  T. Scheele,  M. Scheurer,  M. Schneider,  
 N. Sergueev,  S. M. Sharada,  W. Skomorowski,  D. W. Small,  C. J. Stein,  
 Yu-Chuan Su,  E. J. Sundstrom,  Zhen Tao,  J. Thirman,  T. Tsuchimochi,  
 N. M. Tubman,  S. P. Veccham,  O. Vydrov,  J. Wenzel,  J. Witte,  A. Yamada,  
 Kun Yao,  S. Yeganeh,  S. R. Yost,  A. Zech,  Igor Ying Zhang,  Xing Zhang,  
 Yu Zhang,  D. Zuev,  A. Aspuru-Guzik,  A. T. Bell,  N. A. Besley,  
 K. B. Bravaya,  B. R. Brooks,  D. Casanova,  Jeng-Da Chai,  S. Coriani,  
 C. J. Cramer,  A. E. DePrince, III,  R. A. DiStasio Jr.,  A. Dreuw,  
 B. D. Dunietz,  T. R. Furlani,  W. A. Goddard III,  S. Grimme,  
 S. Hammes-Schiffer,  T. Head-Gordon,  W. J. Hehre,  Chao-Ping Hsu,  
 T.-C. Jagau,  Yousung Jung,  A. Klamt,  Jing Kong,  D. S. Lambrecht,  
 WanZhen Liang,  N. J. Mayhall,  C. W. McCurdy,  J. B. Neaton,  
 C. Ochsenfeld,  J. A. Parkhill,  R. Peverati,  V. A. Rassolov,  Yihan Shao,  
 L. V. Slipchenko,  T. Stauch,  R. P. Steele,  J. E. Subotnik,  
 A. J. W. Thom,  A. Tkatchenko,  D. G. Truhlar,  T. Van Voorhis,  
 T. A. Wesolowski,  K. B. Whaley,  H. L. Woodcock III,  P. M. Zimmerman,  
 S. Faraji,  P. M. W. Gill,  M. Head-Gordon,  J. M. Herbert,  A. I. Krylov

 Additional authors for Version 5.4.1: 
 S. Kotaru,  Shaozhi Li,  Xiangyuan Li,  F. Matz,  A. Molle,  Haisheng Ren,  
 Yingli Su,  Hung-Yi Tsai,  C. Utku,  Fang Wang

 Contributors to earlier versions of Q-Chem not listed above: 
 R. D. Adamson,  B. Austin,  R. Baer,  J. Baker,  G. J. O. Beran,  
 K. Brandhorst,  S. T. Brown,  E. F. C. Byrd,  A. K. Chakraborty,  
 G. K. L. Chan,  Chun-Min Chang,  Yunqing Chen,  C.-L. Cheng,  
 Siu Hung Chien,  D. M. Chipman,  D. L. Crittenden,  H. Dachsel,  
 R. J. Doerksen,  A. D. Dutoi,  R. G. Edgar,  J. Fosso-Tande,  
 L. Fusti-Molnar,  D. Ghosh,  A. Ghysels,  A. Golubeva-Zadorozhnaya,  
 J. Gonthier,  M. S. Gordon,  S. R. Gwaltney,  G. Hawkins,  J. E. Herr,  
 A. Heyden,  S. Hirata,  E. G. Hohenstein,  G. Kedziora,  F. J. Keil,  
 C. Kelley,  Jihan Kim,  R. A. King,  R. Z. Khaliullin,  P. P. Korambath,  
 W. Kurlancheek,  A. Laurent,  A. M. Lee,  M. S. Lee,  S. V. Levchenko,  
 Ching Yeh Lin,  D. Liotard,  E. Livshits,  R. C. Lochan,  I. Lotan,  
 L. A. Martinez-Martinez,  P. E. Maslen,  N. Nair,  D. P. O'Neill,  
 D. Neuhauser,  E. Neuscamman,  C. M. Oana,  R. Olivares-Amaya,  R. Olson,  
 T. M. Perrine,  B. Peters,  P. A. Pieniazek,  A. Prociuk,  Y. M. Rhee,  
 J. Ritchie,  M. A. Rohrdanz,  E. Rosta,  N. J. Russ,  H. F. Schaefer III,  
 M. W. Schmidt,  N. E. Schultz,  S. Sharma,  N. Shenvi,  C. D. Sherrill,  
 A. C. Simmonett,  A. Sodt,  T. Stein,  D. Stuck,  K. S. Thanthiriwatte,  
 V. Vanovschi,  L. Vogt,  Tao Wang,  A. Warshel,  M. A. Watson,  
 C. F. Williams,  Q. Wu,  X. Xu,  Jun Yang,  W. Zhang,  Yan Zhao

 Please cite Q-Chem as follows:
 Y. Shao et al., Mol. Phys. 113, 184-215 (2015)
 DOI: 10.1080/00268976.2014.952696

 Q-Chem 5.4.1 for Intel X86 EM64T Linux

 Parts of Q-Chem use Armadillo 9.800.1 (Horizon Scraper).
 http://arma.sourceforge.net/

 Q-Chem begins on Wed Mar 15 17:59:17 2023  

 Host: cpu121.yggdrasil
0

     Scratch files written to /srv/beegfs/scratch/users/f/fum/qchem95938//
 Processing $rem in /home/share/wesolowski/qc5.aug2021.FDE/config/preferences:
 Processing $rem in /home/fum/.qchemrc:

 Checking the input file for inconsistencies... 	...done.

--------------------------------------------------------------
User input:
--------------------------------------------------------------
$comment
generated from CCJob.Templates
$end

$rem
sym_ignore = true
method = adc(2)
ee_states = 10
basis = cc-pVDZ
mem_static = 1024
mem_total = 40000
adc_davidson_maxiter = 900
adc_davidson_conv = 6
adc_print = 3
adc_prop_es = true
adc_prop_es2es = true
adc_prop_tpa = true
molden_format = True
state_analysis = true
print_orbitals = 15
gen_scfman = false
fde_export_density = true
fde_details = 3
$end

$molecule
0 1
H -0.0348278765 -0.2442097827 0.0636489606
C -1.0765972949 -0.5242748755 -0.0023551776
H -1.313264467 -1.5767591607 -0.0757276926
C -2.043634118 0.3926884087 0.0061254933
H -1.8137616575 1.4859188338 0.0804456828
H -3.085977293 0.114931858 -0.0593381042                     
$end
--------------------------------------------------------------
 ----------------------------------------------------------------
             Standard Nuclear Orientation (Angstroms)
    I     Atom           X                Y                Z
 ----------------------------------------------------------------
    1      H      -0.0348278765    -0.2442097827     0.0636489606
    2      C      -1.0765972949    -0.5242748755    -0.0023551776
    3      H      -1.3132644670    -1.5767591607    -0.0757276926
    4      C      -2.0436341180     0.3926884087     0.0061254933
    5      H      -1.8137616575     1.4859188338     0.0804456828
    6      H      -3.0859772930     0.1149318580    -0.0593381042
 ----------------------------------------------------------------
 Nuclear Repulsion Energy =          33.28582288 hartrees
 There are        8 alpha and        8 beta electrons
 Requested basis set is cc-pVDZ
 There are 24 shells and 48 basis functions
 Total memory of 40000 MB is distributed as follows: 
   MEM_STATIC is set to 1024 MB
   QALLOC/CCMAN JOB total memory use is  38976 MB
 Warning: actual memory use might exceed 40000 MB

 Total QAlloc Memory Limit  40000 MB
 Mega-Array Size      1001 MB
 MEM_STATIC part      1024 MB

                       Distance Matrix (Angstroms)
             H (  1)   C (  2)   H (  3)   C (  4)   H (  5)
   C (  2)  1.080776
   H (  3)  1.851895  1.081258
   C (  4)  2.108139  1.332687  2.102109
   H (  5)  2.481579  2.142696  3.107231  1.119606
   H (  6)  3.074674  2.109370  2.450428  1.080700  1.875547

 A cutoff of  1.0D-11 yielded    300 shell pairs
 There are      1220 function pairs (      1329 Cartesian)
 Smallest overlap matrix eigenvalue = 4.80E-03

 Scale SEOQF with 1.000000e-01/1.000000e-01/1.000000e+00

 Standard Electronic Orientation quadrupole field applied
 Nucleus-field energy     =     0.0000000022 hartrees
 Guess from superposition of atomic densities
 Warning:  Energy on first SCF cycle will be non-variational
 SAD guess density has 16.000000 electrons
 A restricted Hartree-Fock SCF calculation will be
 performed using Pulay DIIS extrapolation
 SCF converges when DIIS error is below 1.0E-08
 using 10 threads for integral computing
 -------------------------------------------------------
 OpenMP Integral computing Module                
 Release: version 1.0, May 2013, Q-Chem Inc. Pittsburgh 
 -------------------------------------------------------
 ---------------------------------------
  Cycle       Energy         DIIS Error
 ---------------------------------------
    1     -78.4109234293      9.99E-02
    2     -78.0169369392      7.17E-03
    3     -78.0374898439      1.84E-03
    4     -78.0389745838      5.78E-04
    5     -78.0390978959      6.56E-05
    6     -78.0390999448      1.90E-05
    7     -78.0391001053      6.82E-06
    8     -78.0391001243      1.43E-06
    9     -78.0391001263      4.58E-07
   10     -78.0391001264      9.02E-08
   11     -78.0391001264      6.11E-09 Convergence criterion met
 ---------------------------------------
 SCF time:  CPU 2.07 s  wall 3.24 s
 SCF   energy in the final basis set = -78.03910013
 Total energy in the final basis set = -78.03910013
Exporting Density Matrix to file 'Densmat_SCF.txt'.
Export successful
================================================================================
|                                                                              |
|                                 A D C  M A N                                 |
|                                                                              |
 ------------------------------------------------------------------------------ 
|                                                                              |
| Components:                                                                  |
|                                                                              |
| - libvmm - 1.3-trunk                                                         |
|   Authors:                                                                   |
|   Evgeny Epifanovsky, Ilya Kaliman                                           |
|                                                                              |
| - libtensor - 2.5-trunk                                                      |
|   Authors:                                                                   |
|   Evgeny Epifanovsky, Michael Wormit, Dmitry Zuev, Sam Manzer,               |
|   Ilya Kaliman                                                               |
|                                                                              |
| - libwfa - 1.1-trunk                                                         |
|   Authors:                                                                   |
|   Felix Plasser, Stefanie Mewes (Baeppler), Benjamin Thomitzni,              |
|   Michael Wormit, Feng Chen, Anna I. Krylov, Pavel Pokhilko                  |
|                                                                              |
| - libadc - 1.1-trunk                                                         |
|   Authors:                                                                   |
|   Michael Wormit, Adrian L. Dempwolff, Philipp H. P. Harbach,                |
|   Caroline Krauter, Dirk Rehn, Matthias Schneider, Jan Wenzel                |
|                                                                              |
| - adcman - 2.6-trunk                                                         |
|   Authors:                                                                   |
|   Michael Wormit, Adrian L. Dempwolff, Philipp H. P. Harbach,                |
|   Caroline Krauter, Daniel Lefrancois, Jan-Michael Mewes, Dirk Rehn,         |
|   Matthias Schneider, Jan Wenzel, Andreas Dreuw                              |
|                                                                              |
| Authors of earlier versions of ADCMAN:                                       |
| Andreas Dreuw, Jan Hendrik Starcke, Dirk Rehn, Michael Wormit                |
|                                                                              |
================================================================================

 Created directory /srv/beegfs/scratch/users/f/fum/qchem95938/plots
  Import QC data ...  CPU 0.00 s  wall 0.01 s

 Alpha MOs, Restricted
 -- Occupied --                  
-11.239 -11.235  -1.031  -0.786  -0.638  -0.581  -0.501  -0.374
  1 A     2 A     3 A     4 A     5 A     6 A     7 A     8 A                  
 -- Virtual --                   
  0.168   0.203   0.231   0.238   0.303   0.462   0.578   0.613
  9 A    10 A    11 A    12 A    13 A    14 A    15 A    16 A                  
  0.689   0.705   0.779   0.808   0.860   0.931   0.971   1.007
 17 A    18 A    19 A    20 A    21 A    22 A    23 A    24 A                  
  1.129   1.236   1.250   1.265   1.292   1.594   1.721   1.743
 25 A    26 A    27 A    28 A    29 A    30 A    31 A    32 A                  
  1.814   1.855   1.861   1.912   1.964   1.977   2.220   2.251
 33 A    34 A    35 A    36 A    37 A    38 A    39 A    40 A                  
  2.364   2.432   2.492   2.618   2.693   2.807   3.119   3.376
 41 A    42 A    43 A    44 A    45 A    46 A    47 A    48 A                  

 Beta MOs, Restricted
 -- Occupied --                  
-11.239 -11.235  -1.031  -0.786  -0.638  -0.581  -0.501  -0.374
  1 A     2 A     3 A     4 A     5 A     6 A     7 A     8 A                  
 -- Virtual --                   
  0.168   0.203   0.231   0.238   0.303   0.462   0.578   0.613
  9 A    10 A    11 A    12 A    13 A    14 A    15 A    16 A                  
  0.689   0.705   0.779   0.808   0.860   0.931   0.971   1.007
 17 A    18 A    19 A    20 A    21 A    22 A    23 A    24 A                  
  1.129   1.236   1.250   1.265   1.292   1.594   1.721   1.743
 25 A    26 A    27 A    28 A    29 A    30 A    31 A    32 A                  
  1.814   1.855   1.861   1.912   1.964   1.977   2.220   2.251
 33 A    34 A    35 A    36 A    37 A    38 A    39 A    40 A                  
  2.364   2.432   2.492   2.618   2.693   2.807   3.119   3.376
 41 A    42 A    43 A    44 A    45 A    46 A    47 A    48 A                  
  Import AO data ...  CPU 0.01 s  wall 0.07 s
  Using point group: C1
  Irreducible representations in point group: A
  Molecular orbitals: 
  Occupied MOs:
  Block   0:   1 (  A) A   2 (  A) A   3 (  A) A   4 (  A) A   5 (  A) A
                  -11.24      -11.23      -1.031     -0.7864     -0.6378
               6 (  A) A   7 (  A) A   8 (  A) A
                 -0.5812     -0.5011     -0.3744
  Block   1:   1 (  A) B   2 (  A) B   3 (  A) B   4 (  A) B   5 (  A) B
                  -11.24      -11.23      -1.031     -0.7864     -0.6378
               6 (  A) B   7 (  A) B   8 (  A) B
                 -0.5812     -0.5011     -0.3744
  Virtual MOs:
  Block   0:   9 (  A) A  10 (  A) A  11 (  A) A  12 (  A) A  13 (  A) A
                  0.1683      0.2027      0.2311       0.238      0.3029
              14 (  A) A  15 (  A) A  16 (  A) A  17 (  A) A  18 (  A) A
                  0.4617      0.5781      0.6126      0.6887      0.7049
              19 (  A) A  20 (  A) A  21 (  A) A  22 (  A) A
                  0.7786      0.8076      0.8597      0.9308
  Block   1:  23 (  A) A  24 (  A) A  25 (  A) A  26 (  A) A  27 (  A) A
                  0.9711       1.007       1.129       1.236        1.25
              28 (  A) A  29 (  A) A  30 (  A) A  31 (  A) A  32 (  A) A
                   1.265       1.292       1.594       1.721       1.743
              33 (  A) A  34 (  A) A  35 (  A) A  36 (  A) A
                   1.814       1.855       1.861       1.912
  Block   2:  37 (  A) A  38 (  A) A  39 (  A) A  40 (  A) A  41 (  A) A
                   1.964       1.977        2.22       2.251       2.364
              42 (  A) A  43 (  A) A  44 (  A) A  45 (  A) A  46 (  A) A
                   2.432       2.492       2.618       2.693       2.807
              47 (  A) A  48 (  A) A
                   3.119       3.376
  Block   3:   9 (  A) B  10 (  A) B  11 (  A) B  12 (  A) B  13 (  A) B
                  0.1683      0.2027      0.2311       0.238      0.3029
              14 (  A) B  15 (  A) B  16 (  A) B  17 (  A) B  18 (  A) B
                  0.4617      0.5781      0.6126      0.6887      0.7049
              19 (  A) B  20 (  A) B  21 (  A) B  22 (  A) B
                  0.7786      0.8076      0.8597      0.9308
  Block   4:  23 (  A) B  24 (  A) B  25 (  A) B  26 (  A) B  27 (  A) B
                  0.9711       1.007       1.129       1.236        1.25
              28 (  A) B  29 (  A) B  30 (  A) B  31 (  A) B  32 (  A) B
                   1.265       1.292       1.594       1.721       1.743
              33 (  A) B  34 (  A) B  35 (  A) B  36 (  A) B
                   1.814       1.855       1.861       1.912
  Block   5:  37 (  A) B  38 (  A) B  39 (  A) B  40 (  A) B  41 (  A) B
                   1.964       1.977        2.22       2.251       2.364
              42 (  A) B  43 (  A) B  44 (  A) B  45 (  A) B  46 (  A) B
                   2.432       2.492       2.618       2.693       2.807
              47 (  A) B  48 (  A) B
                   3.119       3.376
  Import MO data ...  CPU 0.01 s  wall 0.02 s
  Import HF data ...  CPU 0.07 s  wall 0.03 s
  Import 2e integrals ...  CPU 0.87 s  wall 0.16 s

--------------------------------------------------------------------------------
                                   HF Summary                                   
--------------------------------------------------------------------------------
  Energy:                                                  -78.0391001264 a.u.
  Dip. moment [a.u.]:                  [  -0.001607,   -0.007267,   -0.000690]
  Total dipole [Debye]:                                               0.018999
  <r^2> [a.u.]:                        [ 175.329304,   35.340278,   11.662351]
  Total <r^2> [a.u.]:                                               222.331932
--------------------------------------------------------------------------------
  HF properties ...  CPU 0.01 s  wall 0.01 s
  MP(1) calculation ...  CPU 0.01 s  wall 0.01 s
  N^6 prerequesite intermediates ...  CPU 0.42 s  wall 0.08 s
  Difference density matrix of state mp2_gs printed to ASCII file 'State_mp2_gs_Difference.txt'
Exporting MP density matrix to file 'Densmat_MP.txt'.
Export successful
  Total density matrix of state mp2_gs printed to ASCII file 'State_mp2_gs_Total.txt'
Exporting MP density matrix to file 'Densmat_MP.txt'.
Export successful

--------------------------------------------------------------------------------
                                 MP(2) Summary                                  
--------------------------------------------------------------------------------
  MP energy contribution:                                   -0.2802493080 a.u.
  Total energy:                                            -78.3193494344 a.u.
  Dip. moment [a.u.]:                  [  -0.001087,   -0.006581,   -0.000623]
  Total dipole [Debye]:                                               0.017028
  <r^2> [a.u.]:                        [ 175.377479,   35.374778,   11.491323]
  Total <r^2> [a.u.]:                                               222.243579

  Density matrix analysis:
  ------------------------
  NOs
    Occupation of frontier NOs:
       0.0454   1.9381
    Number of electrons: 16.000000
    Number of unpaired electrons: n_u =  0.40607, n_u,nl =  0.04557
    NO participation ratio (PR_NO): 13.888652
  
  
  Mulliken Population Analysis
  Atom      Charge (e)              h+              e-           Del q
  --------------------------------------------------------------------
   1 H        0.051574        0.014050       -0.011229        0.002821
   2 C       -0.094810        0.092817       -0.098798       -0.005981
   3 H        0.051288        0.014090       -0.011200        0.002890
   4 C       -0.119088        0.095514       -0.100187       -0.004673
   5 H        0.059255        0.013625       -0.011381        0.002244
   6 H        0.051782        0.014010       -0.011311        0.002699
  --------------------------------------------------------------------
  Sum:        0.000000        0.244105       -0.244105        0.000000
  
  Multipole moment analysis of the density matrix
    Molecular charge:                      -0.000000
    Number of electrons:                   16.000000
      Center of electronic charge [Ang]: [ -1.560540,  -0.062885,   0.001999]
    Total nuclear charge:                  16.000000
      Center of nuclear charge [Ang]:    [ -1.560576,  -0.063102,   0.001978]
    Dipole moment [D]:                     0.017028
      Cartesian components [D]:          [ -0.002764,  -0.016728,  -0.001584]
    RMS size of the density [Ang]:         1.204332
      Cartesian components [Ang]:        [  0.796324,   0.784326,   0.448458]
  
  Exciton analysis of the difference density matrix
    <r_h> [Ang]:                  [ -1.562440,  -0.056904,   0.002291]
    <r_e> [Ang]:                  [ -1.563566,  -0.058391,   0.002145]
    |<r_e - r_h>| [Ang]:            0.001871
    Hole size [Ang]:                1.399010
      Cartesian components [Ang]: [  0.846469,   0.842758,   0.728338]
    Electron size [Ang]:            1.360949
      Cartesian components [Ang]: [  0.876502,   0.865822,   0.578170]
--------------------------------------------------------------------------------
  MP(2) calculation ...  CPU 0.11 s  wall 0.32 s
  Start ADC(2)-s ...  CPU 0.01 s  wall 0.00 s
  ADC(2) intermediates ...  CPU 0.02 s  wall 0.01 s
  Starting Davidson for singlet states of irrep A ... 
--------------------------------------------------------------------------------
   It NVec Conv  Avg. Norm  Max. Norm  Conv. states           Remark
--------------------------------------------------------------------------------
        10    0  1.329e-01  4.683e-01  0.4113 n n n n n n n n Guess.
    1   20    0  2.336e-02  1.121e-01  0.3264 n n n n n n n n 
    2   30    0  6.027e-03  2.845e-02  0.3216 n n n n n n n n 
    3   40    0  2.183e-03  1.565e-02  0.3212 n n n n n n n n 
    4   50    0  7.109e-04  5.461e-03  0.3212 n n n n n n n n 
    5   20    0  3.191e-04  2.437e-03  0.3212 n n n n n n n n Subspace collapsed.
    6   30    0  2.443e-04  2.083e-03  0.3212 n n n n n n n n 
    7   40    0  1.365e-04  9.661e-04  0.3212 n n n n n n n n 
    8   50    0  9.623e-05  7.964e-04  0.3212 n n n n n n n n 
    9   20    2  7.131e-05  6.634e-04  0.3212 n y n y n n n n Subspace collapsed.
   10   30    4  6.827e-05  6.396e-04  0.3212 n y y y y n n n 
   11   40    5  5.527e-05  5.136e-04  0.3212 n y y y y y n n 
   12   50    6  4.264e-05  4.156e-04  0.3212 y y y y y y n n 
   13   20    6  2.052e-05  1.997e-04  0.3212 y y y y y y n n Subspace collapsed.
   14   30    6  1.528e-05  1.484e-04  0.3212 y y y y y y n n 
   15   40    6  9.688e-06  9.223e-05  0.3212 y y y y y y n n 
   16   50    6  8.065e-06  7.845e-05  0.3212 y y y y y y n n 
   17   20    6  4.976e-06  4.841e-05  0.3212 y y y y y y n n Subspace collapsed.
   18   30    6  6.554e-06  6.482e-05  0.3212 y y y y y y n n 
   19   40    6  7.806e-06  7.788e-05  0.3212 y y y y y y n n 
   20   50    7  6.597e-06  6.592e-05  0.3212 y y y y y y n y 
   21   20    9  3.102e-06  3.099e-05  0.3212 y y y y y y y y Subspace collapsed.
   22   30    9  2.481e-06  2.479e-05  0.3212 y y y y y y y y 
   23   31    9  2.486e-06  2.484e-05  0.3212 y y y y y y y y 
   24   33    9  2.420e-06  2.419e-05  0.3212 y y y y y y y y 
   25   40    9  1.588e-06  1.587e-05  0.3212 y y y y y y y y 
   26   47    9  1.341e-06  1.341e-05  0.3212 y y y y y y y y 
   27   50    9  1.374e-06  1.374e-05  0.3212 y y y y y y y y 
   28   15    9  1.129e-06  1.129e-05  0.3212 y y y y y y y y Subspace collapsed.
   29   20    9  1.407e-06  1.407e-05  0.3212 y y y y y y y y 
   30   25    9  1.332e-06  1.332e-05  0.3212 y y y y y y y y 
   31   29    9  1.243e-06  1.243e-05  0.3212 y y y y y y y y 
   32   33    9  8.440e-07  8.439e-06  0.3212 y y y y y y y y 
   33   37    9  4.067e-07  4.067e-06  0.3212 y y y y y y y y 
   34   41    9  2.056e-07  2.055e-06  0.3212 y y y y y y y y 
   35   45    9  1.258e-07  1.258e-06  0.3212 y y y y y y y y 
   36   49   10  8.401e-08  8.400e-07  0.3212 y y y y y y y y Converged.
--------------------------------------------------------------------------------
  Davidson Summary: 
 ------------------------------------------------------------
  State  0: excitation energy =   0.3212 a.u.   (converged)
  State  1: excitation energy =   0.3304 a.u.   (converged)
  State  2: excitation energy =   0.3357 a.u.   (converged)
  State  3: excitation energy =   0.3588 a.u.   (converged)
  State  4: excitation energy =   0.3741 a.u.   (converged)
  State  5: excitation energy =   0.3865 a.u.   (converged)
  State  6: excitation energy =   0.4212 a.u.   (converged)
  State  7: excitation energy =   0.4453 a.u.   (converged)
  State  8: excitation energy =   0.4548 a.u.   (converged)
  State  9: excitation energy =   0.4600 a.u.   (converged)
 ------------------------------------------------------------

  Singlet states of irrep A ...  CPU 106.57 s  wall 27.25 s
  TDMs ...  CPU 0.60 s  wall 0.24 s
  SDMs ...  CPU 1.59 s  wall 0.48 s
  Starting TPA DIIS iterations ... 
------------------------------------ 
   It     Res. Norm  Remark
------------------------------------
                       Guess.
    1     4.404e+00  
    2     5.832e+00  
    3     1.074e+00  
    4     2.535e-01  
    5     6.489e-02  
    6     2.632e-02  
    7     8.268e-03  
    8     1.418e-03  
    9     5.261e-04  
   10     9.128e-05  
   11     2.745e-05  
   12     4.443e-06  
   13     1.513e-06  
   14     5.000e-07  Converged.
   ... Converged in 14 steps (norm: 4.99987e-07)
------------------------------------
  Starting TPA DIIS iterations ... 
------------------------------------ 
   It     Res. Norm  Remark
------------------------------------
                       Guess.
    1     4.163e+00  
    2     5.517e+00  
    3     1.041e+00  
    4     2.665e-01  
    5     6.596e-02  
    6     2.842e-02  
    7     8.329e-03  
    8     1.638e-03  
    9     6.117e-04  
   10     9.869e-05  
   11     3.313e-05  
   12     5.113e-06  
   13     1.715e-06  
   14     5.364e-07  Converged.
   ... Converged in 14 steps (norm: 5.36399e-07)
------------------------------------
  Starting TPA DIIS iterations ... 
------------------------------------ 
   It     Res. Norm  Remark
------------------------------------
                       Guess.
    1     6.888e-01  
    2     4.821e-01  
    3     1.692e-01  
    4     6.177e-02  
    5     1.875e-02  
    6     6.816e-03  
    7     1.169e-03  
    8     4.450e-04  
    9     1.757e-04  
   10     3.148e-05  
   11     2.119e-05  
   12     7.976e-06  
   13     4.210e-06  
   14     1.839e-06  
   15     5.423e-07  Converged.
   ... Converged in 15 steps (norm: 5.42305e-07)
------------------------------------
  Starting TPA DIIS iterations ... 
------------------------------------ 
   It     Res. Norm  Remark
------------------------------------
                       Guess.
    1     4.629e+00  
    2     6.235e+00  
    3     1.137e+00  
    4     2.755e-01  
    5     7.133e-02  
    6     2.912e-02  
    7     9.139e-03  
    8     1.564e-03  
    9     5.838e-04  
   10     1.018e-04  
   11     3.084e-05  
   12     5.036e-06  
   13     1.730e-06  
   14     5.769e-07  Converged.
   ... Converged in 14 steps (norm: 5.76894e-07)
------------------------------------
  Starting TPA DIIS iterations ... 
------------------------------------ 
   It     Res. Norm  Remark
------------------------------------
                       Guess.
    1     4.375e+00  
    2     5.898e+00  
    3     1.102e+00  
    4     2.896e-01  
    5     7.250e-02  
    6     3.151e-02  
    7     9.213e-03  
    8     1.813e-03  
    9     6.806e-04  
   10     1.102e-04  
   11     3.727e-05  
   12     5.800e-06  
   13     1.956e-06  
   14     6.160e-07  Converged.
   ... Converged in 14 steps (norm: 6.16034e-07)
------------------------------------
  Starting TPA DIIS iterations ... 
------------------------------------ 
   It     Res. Norm  Remark
------------------------------------
                       Guess.
    1     6.984e-01  
    2     4.957e-01  
    3     1.768e-01  
    4     6.809e-02  
    5     1.990e-02  
    6     7.306e-03  
    7     1.286e-03  
    8     4.945e-04  
    9     1.967e-04  
   10     3.717e-05  
   11     2.433e-05  
   12     9.233e-06  
   13     5.018e-06  
   14     2.252e-06  
   15     6.493e-07  Converged.
   ... Converged in 15 steps (norm: 6.49251e-07)
------------------------------------
  Starting TPA DIIS iterations ... 
------------------------------------ 
   It     Res. Norm  Remark
------------------------------------
                       Guess.
    1     4.767e+00  
    2     6.485e+00  
    3     1.176e+00  
    4     2.893e-01  
    5     7.539e-02  
    6     3.090e-02  
    7     9.688e-03  
    8     1.656e-03  
    9     6.204e-04  
   10     1.085e-04  
   11     3.301e-05  
   12     5.417e-06  
   13     1.871e-06  
   14     6.273e-07  Converged.
   ... Converged in 14 steps (norm: 6.27335e-07)
------------------------------------
  Starting TPA DIIS iterations ... 
------------------------------------ 
   It     Res. Norm  Remark
------------------------------------
                       Guess.
    1     4.505e+00  
    2     6.134e+00  
    3     1.140e+00  
    4     3.041e-01  
    5     7.663e-02  
    6     3.346e-02  
    7     9.771e-03  
    8     1.924e-03  
    9     7.243e-04  
   10     1.176e-04  
   11     3.991e-05  
   12     6.242e-06  
   13     2.112e-06  
   14     6.681e-07  Converged.
   ... Converged in 14 steps (norm: 6.68056e-07)
------------------------------------
  Starting TPA DIIS iterations ... 
------------------------------------ 
   It     Res. Norm  Remark
------------------------------------
                       Guess.
    1     7.040e-01  
    2     5.038e-01  
    3     1.815e-01  
    4     7.213e-02  
    5     2.059e-02  
    6     7.614e-03  
    7     1.361e-03  
    8     5.256e-04  
    9     2.101e-04  
   10     4.102e-05  
   11     2.639e-05  
   12     1.007e-05  
   13     5.565e-06  
   14     2.535e-06  
   15     7.174e-07  Converged.
   ... Converged in 15 steps (norm: 7.17409e-07)
------------------------------------
  Starting TPA DIIS iterations ... 
------------------------------------ 
   It     Res. Norm  Remark
------------------------------------
                       Guess.
    1     5.451e+00  
    2     7.757e+00  
    3     1.368e+00  
    4     3.619e-01  
    5     9.667e-02  
    6     4.031e-02  
    7     1.257e-02  
    8     2.137e-03  
    9     8.136e-04  
   10     1.441e-04  
   11     4.476e-05  
   12     7.492e-06  
   13     2.661e-06  
   14     9.163e-07  Converged.
   ... Converged in 14 steps (norm: 9.1628e-07)
------------------------------------
  Starting TPA DIIS iterations ... 
------------------------------------ 
   It     Res. Norm  Remark
------------------------------------
                       Guess.
    1     5.150e+00  
    2     7.335e+00  
    3     1.324e+00  
    4     3.803e-01  
    5     9.826e-02  
    6     4.383e-02  
    7     1.271e-02  
    8     2.506e-03  
    9     9.559e-04  
   10     1.565e-04  
   11     5.419e-05  
   12     8.649e-06  
   13     2.977e-06  
   14     9.642e-07  Converged.
   ... Converged in 14 steps (norm: 9.6424e-07)
------------------------------------
  Starting TPA DIIS iterations ... 
------------------------------------ 
   It     Res. Norm  Remark
------------------------------------
                       Guess.
    1     7.295e-01  
    2     5.422e-01  
    3     2.040e-01  
    4     9.394e-02  
    5     2.399e-02  
    6     9.224e-03  
    7     1.764e-03  
    8     6.840e-04  
    9     2.802e-04  
   10     6.406e-05  
   11     3.802e-05  
   12     1.506e-05  
   13     8.930e-06  
   14     4.273e-06  
   15     1.084e-06  
   16     4.493e-07  Converged.
   ... Converged in 16 steps (norm: 4.49302e-07)
------------------------------------
  Starting TPA DIIS iterations ... 
------------------------------------ 
   It     Res. Norm  Remark
------------------------------------
                       Guess.
    1     6.000e+00  
    2     8.812e+00  
    3     1.520e+00  
    4     4.246e-01  
    5     1.150e-01  
    6     4.854e-02  
    7     1.507e-02  
    8     2.549e-03  
    9     9.820e-04  
   10     1.752e-04  
   11     5.527e-05  
   12     9.366e-06  
   13     3.405e-06  
   14     1.198e-06  
   15     5.159e-07  Converged.
   ... Converged in 15 steps (norm: 5.15881e-07)
------------------------------------
  Starting TPA DIIS iterations ... 
------------------------------------ 
   It     Res. Norm  Remark
------------------------------------
                       Guess.
    1     5.667e+00  
    2     8.332e+00  
    3     1.471e+00  
    4     4.461e-01  
    5     1.169e-01  
    6     5.293e-02  
    7     1.525e-02  
    8     3.010e-03  
    9     1.159e-03  
   10     1.906e-04  
   11     6.687e-05  
   12     1.082e-05  
   13     3.767e-06  
   14     1.253e-06  
   15     3.455e-07  Converged.
   ... Converged in 15 steps (norm: 3.45533e-07)
------------------------------------
  Starting TPA DIIS iterations ... 
------------------------------------ 
   It     Res. Norm  Remark
------------------------------------
                       Guess.
    1     7.474e-01  
    2     5.709e-01  
    3     2.213e-01  
    4     1.134e-01  
    5     2.674e-02  
    6     1.061e-02  
    7     2.125e-03  
    8     8.096e-04  
    9     3.401e-04  
   10     8.687e-05  
   11     4.912e-05  
   12     2.015e-05  
   13     1.258e-05  
   14     6.044e-06  
   15     1.441e-06  
   16     5.991e-07  Converged.
   ... Converged in 16 steps (norm: 5.99081e-07)
------------------------------------
  Starting TPA DIIS iterations ... 
------------------------------------ 
   It     Res. Norm  Remark
------------------------------------
                       Guess.
    1     6.514e+00  
    2     9.826e+00  
    3     1.663e+00  
    4     4.865e-01  
    5     1.332e-01  
    6     5.674e-02  
    7     1.753e-02  
    8     2.955e-03  
    9     1.150e-03  
   10     2.062e-04  
   11     6.588e-05  
   12     1.127e-05  
   13     4.189e-06  
   14     1.507e-06  
   15     6.699e-07  Converged.
   ... Converged in 15 steps (norm: 6.69903e-07)
------------------------------------
  Starting TPA DIIS iterations ... 
------------------------------------ 
   It     Res. Norm  Remark
------------------------------------
                       Guess.
    1     6.151e+00  
    2     9.290e+00  
    3     1.608e+00  
    4     5.111e-01  
    5     1.354e-01  
    6     6.202e-02  
    7     1.776e-02  
    8     3.508e-03  
    9     1.361e-03  
   10     2.247e-04  
   11     7.959e-05  
   12     1.303e-05  
   13     4.572e-06  
   14     1.569e-06  
   15     4.318e-07  Converged.
   ... Converged in 15 steps (norm: 4.3176e-07)
------------------------------------
  Starting TPA DIIS iterations ... 
------------------------------------ 
   It     Res. Norm  Remark
------------------------------------
                       Guess.
    1     7.626e-01  
    2     5.964e-01  
    3     2.372e-01  
    4     1.330e-01  
    5     2.938e-02  
    6     1.198e-02  
    7     2.492e-03  
    8     9.207e-04  
    9     3.984e-04  
   10     1.113e-04  
   11     6.099e-05  
   12     2.584e-05  
   13     1.691e-05  
   14     7.978e-06  
   15     1.865e-06  
   16     7.717e-07  Converged.
   ... Converged in 16 steps (norm: 7.71711e-07)
------------------------------------
  Starting TPA DIIS iterations ... 
------------------------------------ 
   It     Res. Norm  Remark
------------------------------------
                       Guess.
    1     8.401e+00  
    2     1.375e+01  
    3     2.176e+00  
    4     7.366e-01  
    5     2.066e-01  
    6     9.058e-02  
    7     2.751e-02  
    8     4.584e-03  
    9     1.838e-03  
   10     3.338e-04  
   11     1.097e-04  
   12     1.936e-05  
   13     7.739e-06  
   14     3.063e-06  
   15     1.457e-06  
   16     5.800e-07  Converged.
   ... Converged in 16 steps (norm: 5.80024e-07)
------------------------------------
  Starting TPA DIIS iterations ... 
------------------------------------ 
   It     Res. Norm  Remark
------------------------------------
                       Guess.
    1     7.929e+00  
    2     1.300e+01  
    3     2.101e+00  
    4     7.736e-01  
    5     2.101e-01  
    6     9.966e-02  
    7     2.797e-02  
    8     5.533e-03  
    9     2.195e-03  
   10     3.650e-04  
   11     1.311e-04  
   12     2.255e-05  
   13     7.879e-06  
   14     3.182e-06  
   15     8.943e-07  Converged.
   ... Converged in 15 steps (norm: 8.94272e-07)
------------------------------------
  Starting TPA DIIS iterations ... 
------------------------------------ 
   It     Res. Norm  Remark
------------------------------------
                       Guess.
    1     8.089e-01  
    2     6.808e-01  
    3     2.921e-01  
    4     2.128e-01  
    5     3.973e-02  
    6     1.746e-02  
    7     4.045e-03  
    8     1.255e-03  
    9     6.259e-04  
   10     2.219e-04  
   11     1.165e-04  
   12     5.428e-05  
   13     4.050e-05  
   14     1.712e-05  
   15     4.479e-06  
   16     1.624e-06  
   17     5.744e-07  Converged.
   ... Converged in 17 steps (norm: 5.74357e-07)
------------------------------------
  Starting TPA DIIS iterations ... 
------------------------------------ 
   It     Res. Norm  Remark
------------------------------------
                       Guess.
    1     1.028e+01  
    2     1.795e+01  
    3     2.677e+00  
    4     1.015e+00  
    5     2.890e-01  
    6     1.294e-01  
    7     3.871e-02  
    8     6.390e-03  
    9     2.624e-03  
   10     4.787e-04  
   11     1.582e-04  
   12     2.892e-05  
   13     1.229e-05  
   14     5.380e-06  
   15     2.621e-06  
   16     1.027e-06  
   17     4.764e-07  Converged.
   ... Converged in 17 steps (norm: 4.76431e-07)
------------------------------------
  Starting TPA DIIS iterations ... 
------------------------------------ 
   It     Res. Norm  Remark
------------------------------------
                       Guess.
    1     9.707e+00  
    2     1.697e+01  
    3     2.581e+00  
    4     1.065e+00  
    5     2.941e-01  
    6     1.431e-01  
    7     3.945e-02  
    8     7.812e-03  
    9     3.150e-03  
   10     5.247e-04  
   11     1.869e-04  
   12     3.451e-05  
   13     1.166e-05  
   14     5.566e-06  
   15     1.778e-06  
   16     1.238e-06  
   17     6.866e-07  Converged.
   ... Converged in 17 steps (norm: 6.86555e-07)
------------------------------------
  Starting TPA DIIS iterations ... 
------------------------------------ 
   It     Res. Norm  Remark
------------------------------------
                       Guess.
    1     8.449e-01  
    2     7.551e-01  
    3     3.430e-01  
    4     2.971e-01  
    5     5.095e-02  
    6     2.326e-02  
    7     5.828e-03  
    8     1.522e-03  
    9     8.702e-04  
   10     3.562e-04  
   11     1.892e-04  
   12     9.240e-05  
   13     7.076e-05  
   14     2.919e-05  
   15     8.911e-06  
   16     2.846e-06  
   17     9.183e-07  Converged.
   ... Converged in 17 steps (norm: 9.18285e-07)
------------------------------------
  Starting TPA DIIS iterations ... 
------------------------------------ 
   It     Res. Norm  Remark
------------------------------------
                       Guess.
    1     1.122e+01  
    2     2.014e+01  
    3     2.922e+00  
    4     1.162e+00  
    5     3.329e-01  
    6     1.504e-01  
    7     4.467e-02  
    8     7.348e-03  
    9     3.047e-03  
   10     5.563e-04  
   11     1.833e-04  
   12     3.424e-05  
   13     1.497e-05  
   14     6.860e-06  
   15     3.367e-06  
   16     1.298e-06  
   17     6.351e-07  Converged.
   ... Converged in 17 steps (norm: 6.35072e-07)
------------------------------------
  Starting TPA DIIS iterations ... 
------------------------------------ 
   It     Res. Norm  Remark
------------------------------------
                       Guess.
    1     1.059e+01  
    2     1.904e+01  
    3     2.816e+00  
    4     1.218e+00  
    5     3.388e-01  
    6     1.666e-01  
    7     4.558e-02  
    8     9.031e-03  
    9     3.666e-03  
   10     6.104e-04  
   11     2.158e-04  
   12     4.153e-05  
   13     1.385e-05  
   14     7.033e-06  
   15     2.446e-06  
   16     1.687e-06  
   17     9.206e-07  Converged.
   ... Converged in 17 steps (norm: 9.2062e-07)
------------------------------------
  Starting TPA DIIS iterations ... 
------------------------------------ 
   It     Res. Norm  Remark
------------------------------------
                       Guess.
    1     8.603e-01  
    2     7.894e-01  
    3     3.671e-01  
    4     3.378e-01  
    5     5.678e-02  
    6     2.612e-02  
    7     6.771e-03  
    8     1.660e-03  
    9     9.977e-04  
   10     4.294e-04  
   11     2.312e-04  
   12     1.141e-04  
   13     8.547e-05  
   14     3.623e-05  
   15     1.179e-05  
   16     3.642e-06  
   17     1.146e-06  
   18     6.637e-07  Converged.
   ... Converged in 18 steps (norm: 6.63672e-07)
------------------------------------
  Starting TPA DIIS iterations ... 
------------------------------------ 
   It     Res. Norm  Remark
------------------------------------
                       Guess.
    1     1.179e+01  
    2     2.150e+01  
    3     3.069e+00  
    4     1.253e+00  
    5     3.604e-01  
    6     1.637e-01  
    7     4.840e-02  
    8     7.944e-03  
    9     3.313e-03  
   10     6.049e-04  
   11     1.988e-04  
   12     3.763e-05  
   13     1.675e-05  
   14     7.869e-06  
   15     3.880e-06  
   16     1.478e-06  
   17     7.564e-07  Converged.
   ... Converged in 17 steps (norm: 7.56377e-07)
------------------------------------
  Starting TPA DIIS iterations ... 
------------------------------------ 
   It     Res. Norm  Remark
------------------------------------
                       Guess.
    1     1.113e+01  
    2     2.032e+01  
    3     2.957e+00  
    4     1.313e+00  
    5     3.668e-01  
    6     1.814e-01  
    7     4.941e-02  
    8     9.793e-03  
    9     3.990e-03  
   10     6.640e-04  
   11     2.338e-04  
   12     4.615e-05  
   13     1.530e-05  
   14     8.009e-06  
   15     2.929e-06  
   16     2.007e-06  
   17     1.075e-06  
   18     5.743e-07  Converged.
   ... Converged in 18 steps (norm: 5.74298e-07)
------------------------------------
  Starting TPA DIIS iterations ... 
------------------------------------ 
   It     Res. Norm  Remark
------------------------------------
                       Guess.
    1     8.690e-01  
    2     8.094e-01  
    3     3.814e-01  
    4     3.615e-01  
    5     6.038e-02  
    6     2.782e-02  
    7     7.355e-03  
    8     1.751e-03  
    9     1.077e-03  
   10     4.753e-04  
   11     2.584e-04  
   12     1.280e-04  
   13     9.364e-05  
   14     4.082e-05  
   15     1.375e-05  
   16     4.204e-06  
   17     1.313e-06  
   18     8.060e-07  Converged.
   ... Converged in 18 steps (norm: 8.06006e-07)
------------------------------------
  Two-photon absorbption ...  CPU 107.92 s  wall 19.99 s
  Transition density matrix of state singlet_A_1 printed to ASCII file 'State_singlet_A_1_Transition.txt'
  Transition density matrix of state singlet_A_2 printed to ASCII file 'State_singlet_A_2_Transition.txt'
  Transition density matrix of state singlet_A_3 printed to ASCII file 'State_singlet_A_3_Transition.txt'
  Transition density matrix of state singlet_A_4 printed to ASCII file 'State_singlet_A_4_Transition.txt'
  Transition density matrix of state singlet_A_5 printed to ASCII file 'State_singlet_A_5_Transition.txt'
  Transition density matrix of state singlet_A_6 printed to ASCII file 'State_singlet_A_6_Transition.txt'
  Transition density matrix of state singlet_A_7 printed to ASCII file 'State_singlet_A_7_Transition.txt'
  Transition density matrix of state singlet_A_8 printed to ASCII file 'State_singlet_A_8_Transition.txt'
  Transition density matrix of state singlet_A_9 printed to ASCII file 'State_singlet_A_9_Transition.txt'
  Transition density matrix of state singlet_A_10 printed to ASCII file 'State_singlet_A_10_Transition.txt'
  Transition properties ...  CPU 0.14 s  wall 0.83 s
  Difference density matrix of state singlet_A_1 printed to ASCII file 'State_singlet_A_1_Difference.txt'
  Total density matrix of state singlet_A_1 printed to ASCII file 'State_singlet_A_1_Total.txt'
  Difference density matrix of state singlet_A_2 printed to ASCII file 'State_singlet_A_2_Difference.txt'
  Total density matrix of state singlet_A_2 printed to ASCII file 'State_singlet_A_2_Total.txt'
  Difference density matrix of state singlet_A_3 printed to ASCII file 'State_singlet_A_3_Difference.txt'
  Total density matrix of state singlet_A_3 printed to ASCII file 'State_singlet_A_3_Total.txt'
  Difference density matrix of state singlet_A_4 printed to ASCII file 'State_singlet_A_4_Difference.txt'
  Total density matrix of state singlet_A_4 printed to ASCII file 'State_singlet_A_4_Total.txt'
  Difference density matrix of state singlet_A_5 printed to ASCII file 'State_singlet_A_5_Difference.txt'
  Total density matrix of state singlet_A_5 printed to ASCII file 'State_singlet_A_5_Total.txt'
  Difference density matrix of state singlet_A_6 printed to ASCII file 'State_singlet_A_6_Difference.txt'
  Total density matrix of state singlet_A_6 printed to ASCII file 'State_singlet_A_6_Total.txt'
  Difference density matrix of state singlet_A_7 printed to ASCII file 'State_singlet_A_7_Difference.txt'
  Total density matrix of state singlet_A_7 printed to ASCII file 'State_singlet_A_7_Total.txt'
  Difference density matrix of state singlet_A_8 printed to ASCII file 'State_singlet_A_8_Difference.txt'
  Total density matrix of state singlet_A_8 printed to ASCII file 'State_singlet_A_8_Total.txt'
  Difference density matrix of state singlet_A_9 printed to ASCII file 'State_singlet_A_9_Difference.txt'
  Total density matrix of state singlet_A_9 printed to ASCII file 'State_singlet_A_9_Total.txt'
  Difference density matrix of state singlet_A_10 printed to ASCII file 'State_singlet_A_10_Difference.txt'
  Total density matrix of state singlet_A_10 printed to ASCII file 'State_singlet_A_10_Total.txt'
  Properties ...  CPU 0.26 s  wall 1.13 s
  ISR TDMS ...  CPU 8.38 s  wall 2.73 s
  ISR transition properties ...  CPU 0.15 s  wall 0.07 s
  Sum-over-states TPA ...  CPU 0.00 s  wall 0.00 s

--------------------------------------------------------------------------------
                   State-averaged natural transition orbitals
--------------------------------------------------------------------------------
--------------------------------------------------------------------------------
  SA-NTO decomposition ...  CPU 0.01 s  wall 0.05 s

--------------------------------------------------------------------------------
                             Excited State Summary
--------------------------------------------------------------------------------
--------------------------------------------------------------------------------

  Excited state 1 (singlet, A)                                     [converged]
  ----------------------------------------------------------------------------
  Term symbol:  2 (1) A                                     R^2 =  4.43806e-13

  Total energy:                                            -77.9981845659 a.u.
  Excitation energy:                                               8.739341 eV

  Osc. strength:                                                      0.446557
  Trans. dip. moment [a.u.]:           [   1.042297,   -0.999580,   -0.009890]
  <i|r^2|0> [a.u.]:                    [   6.137938,   -0.212766,    0.002111]
  Two-photon absorption cross-section (SoS) [a.u.]:                   0.029759
  Two-photon absorption matrix (SoS) [a.u.]:
                                       |    0.012016    0.049829    0.005777 |
                                       |    0.049829    0.028039    0.006647 |
                                       |    0.005777    0.006647   -0.037206 |
  Two-photon absorption cross-section [a.u.]:                         0.022860
  Two-photon absorption matrix [a.u.]:
                                       |   -0.016639    0.028642    0.000603 |
                                       |    0.028642    0.003794   -0.000276 |
                                       |    0.000603   -0.000276   -0.045567 |

  Dip. moment [a.u.]:                  [  -0.000790,   -0.006303,   -0.000564]
  Total dipole [Debye]:                                               0.016210
  <r^2> [a.u.]:                        [ 176.133247,   36.058886,   11.902118]
  Total <r^2> [a.u.]:                                               224.094251

  V1^2 = 0.9713, V2^2 = 0.0287

  Important amplitudes:
      occ i     occ j     vir a      vir b          v   
    -----------------------------------------------------
     8 (A) A              9 (A) A                 0.6809
     6 (A) A             14 (A) A                 0.0618
     4 (A) A             10 (A) A                 0.0614
     7 (A) A             16 (A) A                 0.0568
     5 (A) A             13 (A) A                 0.0521
     6 (A) A             23 (A) A                 0.0484
     8 (A) A             20 (A) A                -0.0350
     6 (A) A             19 (A) A                -0.0301
     3 (A) A             12 (A) A                -0.0278
     5 (A) A             22 (A) A                -0.0214
     7 (A) A             11 (A) A                -0.0197
     4 (A) A             24 (A) A                 0.0188
     3 (A) A             26 (A) A                -0.0186
     8 (A) A   8 (A) B   17 (A) A   20 (A) B      0.0184
     8 (A) A   8 (A) B    9 (A) A   28 (A) B     -0.0168
     6 (A) A             26 (A) A                 0.0162
     7 (A) A             21 (A) A                 0.0154
     3 (A) A             14 (A) A                -0.0141
     6 (A) A             12 (A) A                -0.0136
     3 (A) A   4 (A) B    9 (A) A    9 (A) B     -0.0129
     3 (A) A             19 (A) A                 0.0119
     8 (A) A   8 (A) B   18 (A) A   19 (A) B     -0.0110
     7 (A) A             32 (A) A                 0.0095
     7 (A) A             36 (A) A                 0.0084
     3 (A) A             23 (A) A                -0.0082
     8 (A) A   8 (A) B   25 (A) A   29 (A) B      0.0076
     6 (A) A             40 (A) A                 0.0067
     3 (A) A   6 (A) B    9 (A) A   28 (A) B      0.0065
     7 (A) A   8 (A) B   13 (A) A   20 (A) B      0.0060
     5 (A) A   7 (A) B    9 (A) A    9 (A) B     -0.0060
     6 (A) A   8 (A) A   19 (A) A   28 (A) A     -0.0060
     5 (A) A   8 (A) B   11 (A) A    9 (A) B     -0.0059
     5 (A) A   8 (A) B   16 (A) A    9 (A) B     -0.0059
     5 (A) A   8 (A) B   11 (A) A   20 (A) B     -0.0059
     3 (A) A   5 (A) B    9 (A) A   25 (A) B     -0.0058
     5 (A) A             27 (A) A                 0.0058
     7 (A) A   8 (A) B   22 (A) A   20 (A) B     -0.0057
     3 (A) A             40 (A) A                -0.0057
     3 (A) A             11 (A) A                -0.0056
     6 (A) A   8 (A) A    9 (A) A   18 (A) A      0.0056
    -----------------------------------------------------

  Density matrix analysis:
  ------------------------
  NOs
    Occupation of frontier NOs:
       0.9491   1.0220
    Number of electrons: 16.000000
    Number of unpaired electrons: n_u =  2.31578, n_u,nl =  2.03312
    NO participation ratio (PR_NO):  2.871767
  
  
  Mulliken Population Analysis
  Atom      Charge (e)              h+              e-           Del q
  --------------------------------------------------------------------
   1 H        0.059353        0.020276       -0.012497        0.007780
   2 C       -0.109846        0.490757       -0.505792       -0.015036
   3 H        0.059027        0.020394       -0.012655        0.007739
   4 C       -0.135388        0.490711       -0.507010       -0.016300
   5 H        0.067437        0.020597       -0.012415        0.008182
   6 H        0.059416        0.020133       -0.012499        0.007634
  --------------------------------------------------------------------
  Sum:        0.000000        1.062868       -1.062868        0.000000
  
  Multipole moment analysis of the density matrix
    Molecular charge:                      0.000000
    Number of electrons:                   16.000000
      Center of electronic charge [Ang]: [ -1.560550,  -0.062894,   0.001997]
    Total nuclear charge:                  16.000000
      Center of nuclear charge [Ang]:    [ -1.560576,  -0.063102,   0.001978]
    Dipole moment [D]:                     0.016210
      Cartesian components [D]:          [ -0.002007,  -0.016021,  -0.001432]
    RMS size of the density [Ang]:         1.217691
      Cartesian components [Ang]:        [  0.804568,   0.791921,   0.456404]
  
  Exciton analysis of the difference density matrix
    <r_h> [Ang]:                  [ -1.560313,  -0.064824,   0.002031]
    <r_e> [Ang]:                  [ -1.560461,  -0.064963,   0.002002]
    |<r_e - r_h>| [Ang]:            0.000205
    Hole size [Ang]:                1.286543
      Cartesian components [Ang]: [  0.728278,   0.715157,   0.783168]
    Electron size [Ang]:            1.463659
      Cartesian components [Ang]: [  0.853841,   0.831667,   0.849460]

  Transition density matrix analysis:
  -----------------------------------
  
  CT numbers (Mulliken)
    omega =     0.9533
    <Phe> =    -0.1601
  
  Exciton analysis of the transition density matrix
    Trans. dipole moment [D]:             1.835363
      Cartesian components [D]:         [  1.324628,  -1.270339,  -0.012569]
    <r_h> [Ang]:                        [ -1.559870,  -0.065967,   0.001962]
    <r_e> [Ang]:                        [ -1.560474,  -0.064701,   0.002023]
    |<r_e - r_h>| [Ang]:                  0.001404
    Hole size [Ang]:                      1.214166
      Cartesian components [Ang]:       [  0.649398,   0.637027,   0.804162]
    Electron size [Ang]:                  1.486535
      Cartesian components [Ang]:       [  0.864309,   0.840529,   0.869636]
    RMS electron-hole separation [Ang]:   1.936546
      Cartesian components [Ang]:       [  1.106571,   1.075267,   1.170261]
    Covariance(r_h, r_e) [Ang^2]:        -0.033111
    Correlation coefficient:             -0.018345
    Center-of-mass size [Ang]:            0.951021
      Cartesian components [Ang]:       [  0.527493,   0.516814,   0.599245]

  Decomposition into state-averaged NTOs
    H- 0 -> L+ 0: -0.6697 ( 89.7%)
    H- 2 -> L+ 5: -0.0832 (  1.4%)
                   omega =  95.3%
  ----------------------------------------------------------------------------


  Excited state 2 (singlet, A)                                     [converged]
  ----------------------------------------------------------------------------
  Term symbol:  3 (1) A                                     R^2 =  4.39055e-13

  Total energy:                                            -77.9889296716 a.u.
  Excitation energy:                                               8.991179 eV

  Osc. strength:                                                      0.000436
  Trans. dip. moment [a.u.]:           [   0.005110,   -0.009605,    0.043130]
  <i|r^2|0> [a.u.]:                    [   0.089363,    0.087799,   -0.149429]
  Two-photon absorption cross-section (SoS) [a.u.]:                   5.404340
  Two-photon absorption matrix (SoS) [a.u.]:
                                       |    0.048928    0.060015   -0.494844 |
                                       |    0.060015    0.076240   -0.644499 |
                                       |   -0.494844   -0.644499   -0.123180 |
  Two-photon absorption cross-section [a.u.]:                         0.200124
  Two-photon absorption matrix [a.u.]:
                                       |   -0.003170   -0.008620    0.019696 |
                                       |   -0.008620   -0.016301    0.155614 |
                                       |    0.019696    0.155614    0.019977 |

  Dip. moment [a.u.]:                  [  -0.085549,   -0.011360,   -0.005168]
  Total dipole [Debye]:                                               0.219745
  <r^2> [a.u.]:                        [ 174.212074,   34.412751,   13.158109]
  Total <r^2> [a.u.]:                                               221.782934

  V1^2 = 0.9542, V2^2 = 0.0458

  Important amplitudes:
      occ i     occ j     vir a      vir b          v   
    -----------------------------------------------------
     7 (A) A              9 (A) A                -0.6627
     8 (A) A             11 (A) A                 0.1535
     8 (A) A             10 (A) A                -0.0823
     7 (A) A             20 (A) A                 0.0751
     5 (A) A   8 (A) B    9 (A) A    9 (A) B      0.0311
     8 (A) A             16 (A) A                 0.0287
     8 (A) A             21 (A) A                -0.0184
     8 (A) A             12 (A) A                -0.0181
     5 (A) A             28 (A) A                 0.0148
     4 (A) A   7 (A) B    9 (A) A   19 (A) B      0.0133
     5 (A) A   7 (A) B    9 (A) A   16 (A) B     -0.0132
     7 (A) A   8 (A) B   20 (A) A   17 (A) B     -0.0105
     7 (A) A   8 (A) A    9 (A) A   28 (A) A     -0.0097
     5 (A) A   8 (A) B    9 (A) A   20 (A) B     -0.0094
     4 (A) A   6 (A) B    9 (A) A   16 (A) B     -0.0090
     5 (A) A   6 (A) A    9 (A) A   23 (A) A     -0.0089
     5 (A) A   6 (A) A    9 (A) A   14 (A) A     -0.0087
     8 (A) A   7 (A) B    9 (A) A   28 (A) B      0.0085
     4 (A) A   5 (A) A    9 (A) A   10 (A) A      0.0084
     5 (A) A   6 (A) B    9 (A) A   19 (A) B      0.0084
     6 (A) A   7 (A) B    9 (A) A   18 (A) B     -0.0083
     5 (A) A   6 (A) B    9 (A) A   23 (A) B     -0.0079
     3 (A) A   7 (A) B    9 (A) A   18 (A) B     -0.0078
     5 (A) A   7 (A) A    9 (A) A   16 (A) A     -0.0077
     4 (A) A   8 (A) B    9 (A) A   25 (A) B      0.0076
     7 (A) A   8 (A) B   17 (A) A   20 (A) B     -0.0073
     4 (A) A   7 (A) B   19 (A) A    9 (A) B      0.0073
     5 (A) A   5 (A) B    9 (A) A   13 (A) B     -0.0071
     7 (A) A   8 (A) B   19 (A) A   18 (A) B      0.0070
     5 (A) A   8 (A) A    9 (A) A   20 (A) A     -0.0068
     4 (A) A   5 (A) B    9 (A) A   18 (A) B     -0.0067
     7 (A) A   7 (A) B   20 (A) A   22 (A) B      0.0064
     7 (A) A   8 (A) B   17 (A) A    9 (A) B      0.0064
     5 (A) A   6 (A) B    9 (A) A   14 (A) B     -0.0062
     4 (A) A   5 (A) B   10 (A) A    9 (A) B     -0.0060
     4 (A) A   7 (A) A    9 (A) A   19 (A) A      0.0060
     5 (A) A   7 (A) B   11 (A) A   20 (A) B      0.0060
     4 (A) A   7 (A) B    9 (A) A   14 (A) B      0.0059
     4 (A) A   8 (A) A    9 (A) A   25 (A) A      0.0056
     6 (A) A   7 (A) A   19 (A) A   28 (A) A      0.0055
    -----------------------------------------------------

  Density matrix analysis:
  ------------------------
  NOs
    Occupation of frontier NOs:
       0.9398   1.0710
    Number of electrons: 16.000000
    Number of unpaired electrons: n_u =  2.35735, n_u,nl =  2.07639
    NO participation ratio (PR_NO):  3.136577
  
  
  Mulliken Population Analysis
  Atom      Charge (e)              h+              e-           Del q
  --------------------------------------------------------------------
   1 H        0.127471        0.114354       -0.038457        0.075897
   2 C       -0.287513        0.262944       -0.455646       -0.192702
   3 H        0.155475        0.119743       -0.015556        0.104187
   4 C       -0.305824        0.282171       -0.468907       -0.186736
   5 H        0.154901        0.141894       -0.046248        0.095646
   6 H        0.155490        0.116561       -0.012853        0.103708
  --------------------------------------------------------------------
  Sum:        0.000000        1.037668       -1.037668       -0.000000
  
  Multipole moment analysis of the density matrix
    Molecular charge:                      0.000000
    Number of electrons:                   16.000000
      Center of electronic charge [Ang]: [ -1.557747,  -0.062727,   0.002149]
    Total nuclear charge:                  16.000000
      Center of nuclear charge [Ang]:    [ -1.560576,  -0.063102,   0.001978]
    Dipole moment [D]:                     0.219745
      Cartesian components [D]:          [ -0.217444,  -0.028875,  -0.013137]
    RMS size of the density [Ang]:         1.204609
      Cartesian components [Ang]:        [  0.788953,   0.773531,   0.479881]
  
  Exciton analysis of the difference density matrix
    <r_h> [Ang]:                  [ -1.575906,  -0.015888,   0.003950]
    <r_e> [Ang]:                  [ -1.532834,  -0.013451,   0.006268]
    |<r_e - r_h>| [Ang]:            0.043204
    Hole size [Ang]:                1.491858
      Cartesian components [Ang]: [  0.981442,   1.022584,   0.465547]
    Electron size [Ang]:            1.495085
      Cartesian components [Ang]: [  0.884664,   0.886642,   0.816404]

  Transition density matrix analysis:
  -----------------------------------
  
  CT numbers (Mulliken)
    omega =     0.9215
    <Phe> =    -0.0113
  
  Exciton analysis of the transition density matrix
    Trans. dipole moment [D]:             0.056529
      Cartesian components [D]:         [  0.006494,  -0.012207,   0.054812]
    <r_h> [Ang]:                        [ -1.580144,  -0.011796,   0.003959]
    <r_e> [Ang]:                        [ -1.527656,  -0.014516,   0.006489]
    |<r_e - r_h>| [Ang]:                  0.052620
    Hole size [Ang]:                      1.517224
      Cartesian components [Ang]:       [  1.000058,   1.045860,   0.456103]
    Electron size [Ang]:                  1.492211
      Cartesian components [Ang]:       [  0.875893,   0.877356,   0.830513]
    RMS electron-hole separation [Ang]:   2.110130
      Cartesian components [Ang]:       [  1.314428,   1.352266,   0.946733]
    Covariance(r_h, r_e) [Ang^2]:         0.039393
    Correlation coefficient:              0.017400
    Center-of-mass size [Ang]:            1.073249
      Cartesian components [Ang]:       [  0.672615,   0.688938,   0.474149]

  Decomposition into state-averaged NTOs
    H- 1 -> L+ 0: -0.6550 ( 85.8%)
    H- 0 -> L+ 2:  0.1639 (  5.4%)
                   omega =  92.2%
  ----------------------------------------------------------------------------


  Excited state 3 (singlet, A)                                     [converged]
  ----------------------------------------------------------------------------
  Term symbol:  4 (1) A                                     R^2 =  5.66569e-13

  Total energy:                                            -77.9836111128 a.u.
  Excitation energy:                                               9.135904 eV

  Osc. strength:                                                      0.022950
  Trans. dip. moment [a.u.]:           [   0.016644,    0.017139,   -0.319317]
  <i|r^2|0> [a.u.]:                    [   0.102829,    0.016276,   -0.014085]
  Two-photon absorption cross-section (SoS) [a.u.]:                   0.019689
  Two-photon absorption matrix (SoS) [a.u.]:
                                       |   -0.020228   -0.002131   -0.006981 |
                                       |   -0.002131    0.016350    0.045437 |
                                       |   -0.006981    0.045437    0.003115 |
  Two-photon absorption cross-section [a.u.]:                         0.067012
  Two-photon absorption matrix [a.u.]:
                                       |   -0.018315   -0.005680    0.022097 |
                                       |   -0.005680    0.004679    0.087241 |
                                       |    0.022097    0.087241    0.011415 |

  Dip. moment [a.u.]:                  [  -0.002309,   -0.238863,   -0.013872]
  Total dipole [Debye]:                                               0.608180
  <r^2> [a.u.]:                        [ 180.643732,   40.965861,   11.072726]
  Total <r^2> [a.u.]:                                               232.682318

  V1^2 = 0.9582, V2^2 = 0.0418

  Important amplitudes:
      occ i     occ j     vir a      vir b          v   
    -----------------------------------------------------
     8 (A) A             10 (A) A                 0.6833
     7 (A) A              9 (A) A                -0.0861
     8 (A) A             24 (A) A                 0.0500
     8 (A) A             18 (A) A                -0.0325
     4 (A) A              9 (A) A                 0.0247
     8 (A) A   8 (A) B    9 (A) A   12 (A) B     -0.0214
     8 (A) A   8 (A) B   10 (A) A   17 (A) B      0.0170
     5 (A) A   8 (A) B   11 (A) A   10 (A) B     -0.0163
     8 (A) A             15 (A) A                 0.0158
     7 (A) A   8 (A) B   13 (A) A   10 (A) B      0.0141
     6 (A) A   8 (A) A   10 (A) A   15 (A) A      0.0110
     4 (A) A   8 (A) B   12 (A) A   10 (A) B     -0.0109
     6 (A) A   8 (A) B   15 (A) A   10 (A) B     -0.0107
     7 (A) A   8 (A) B   22 (A) A   10 (A) B     -0.0107
     4 (A) A   8 (A) A   10 (A) A   12 (A) A      0.0104
     7 (A) A   8 (A) A   10 (A) A   22 (A) A      0.0097
     7 (A) A   8 (A) A   10 (A) A   13 (A) A     -0.0097
     7 (A) A             20 (A) A                 0.0095
     5 (A) A   8 (A) A   10 (A) A   11 (A) A      0.0094
     5 (A) A   8 (A) B   21 (A) A   10 (A) B      0.0092
     6 (A) A   8 (A) B   10 (A) A   10 (A) B      0.0088
     6 (A) A   8 (A) A   10 (A) A   18 (A) A      0.0087
     7 (A) A   8 (A) A   12 (A) A   16 (A) A     -0.0079
     3 (A) A   4 (A) B   10 (A) A    9 (A) B     -0.0079
     8 (A) A             11 (A) A                -0.0079
     5 (A) A   8 (A) A   10 (A) A   21 (A) A     -0.0078
     4 (A) A   8 (A) B   19 (A) A   10 (A) B      0.0074
     8 (A) A   8 (A) B    9 (A) A   23 (A) B      0.0074
     8 (A) A   8 (A) B   10 (A) A   28 (A) B     -0.0073
     3 (A) A   8 (A) B   10 (A) A   10 (A) B      0.0071
     3 (A) A   8 (A) A   10 (A) A   24 (A) A     -0.0070
     5 (A) A   8 (A) B   10 (A) A   11 (A) B     -0.0070
     8 (A) A   8 (A) B    9 (A) A   19 (A) B      0.0069
     7 (A) A   8 (A) B   16 (A) A   12 (A) B      0.0068
     3 (A) A   8 (A) B   10 (A) A   18 (A) B     -0.0067
     6 (A) A   8 (A) B   18 (A) A   10 (A) B     -0.0066
     3 (A) A   6 (A) B   10 (A) A   28 (A) B      0.0061
     6 (A) A             28 (A) A                -0.0057
     5 (A) A   8 (A) A   10 (A) A   16 (A) A      0.0056
     3 (A) A   5 (A) B   10 (A) A   25 (A) B     -0.0056
    -----------------------------------------------------

  Density matrix analysis:
  ------------------------
  NOs
    Occupation of frontier NOs:
       0.9694   0.9966
    Number of electrons: 16.000000
    Number of unpaired electrons: n_u =  2.31922, n_u,nl =  2.03261
    NO participation ratio (PR_NO):  2.769998
  
  
  Mulliken Population Analysis
  Atom      Charge (e)              h+              e-           Del q
  --------------------------------------------------------------------
   1 H       -0.153364        0.053930       -0.258868       -0.204937
   2 C        0.306737        0.513964       -0.112417        0.401547
   3 H       -0.120035        0.056785       -0.228109       -0.171323
   4 C        0.297069        0.533083       -0.116925        0.416157
   5 H       -0.181866        0.054462       -0.295583       -0.241121
   6 H       -0.148542        0.055860       -0.256183       -0.200323
  --------------------------------------------------------------------
  Sum:        0.000000        1.268084       -1.268084        0.000000
  
  Multipole moment analysis of the density matrix
    Molecular charge:                      0.000000
    Number of electrons:                   16.000000
      Center of electronic charge [Ang]: [ -1.560500,  -0.055202,   0.002437]
    Total nuclear charge:                  16.000000
      Center of nuclear charge [Ang]:    [ -1.560576,  -0.063102,   0.001978]
    Dipole moment [D]:                     0.608180
      Cartesian components [D]:          [ -0.005868,  -0.607128,  -0.035260]
    RMS size of the density [Ang]:         1.278336
      Cartesian components [Ang]:        [  0.852307,   0.844943,   0.440212]
  
  Exciton analysis of the difference density matrix
    <r_h> [Ang]:                  [ -1.568155,  -0.056386,   0.002074]
    <r_e> [Ang]:                  [ -1.567646,   0.040546,   0.007602]
    |<r_e - r_h>| [Ang]:            0.097091
    Hole size [Ang]:                1.416537
      Cartesian components [Ang]: [  0.837463,   0.828313,   0.786847]
    Electron size [Ang]:            2.077215
      Cartesian components [Ang]: [  1.365972,   1.386472,   0.725697]

  Transition density matrix analysis:
  -----------------------------------
  
  CT numbers (Mulliken)
    omega =     0.9252
    <Phe> =    -0.0113
  
  Exciton analysis of the transition density matrix
    Trans. dipole moment [D]:             0.406945
      Cartesian components [D]:         [  0.021152,   0.021781,  -0.405811]
    <r_h> [Ang]:                        [ -1.565053,  -0.069420,   0.001508]
    <r_e> [Ang]:                        [ -1.569304,   0.071943,   0.009319]
    |<r_e - r_h>| [Ang]:                  0.141642
    Hole size [Ang]:                      1.218275
      Cartesian components [Ang]:       [  0.645285,   0.631470,   0.817953]
    Electron size [Ang]:                  2.280643
      Cartesian components [Ang]:       [  1.497938,   1.523060,   0.798625]
    RMS electron-hole separation [Ang]:   2.579171
      Cartesian components [Ang]:       [  1.623313,   1.647336,   1.141606]
    Covariance(r_h, r_e) [Ang^2]:         0.026733
    Correlation coefficient:              0.009622
    Center-of-mass size [Ang]:            1.297979
      Cartesian components [Ang]:       [  0.819344,   0.828131,   0.572384]

  Decomposition into state-averaged NTOs
    H- 0 -> L+ 1: -0.6642 ( 88.2%)
    H- 0 -> L+ 2: -0.1150 (  2.6%)
    H- 1 -> L+ 0: -0.0852 (  1.5%)
                   omega =  92.5%
  ----------------------------------------------------------------------------


  Excited state 4 (singlet, A)                                     [converged]
  ----------------------------------------------------------------------------
  Term symbol:  5 (1) A                                     R^2 =  6.61384e-13

  Total energy:                                            -77.9605658325 a.u.
  Excitation energy:                                               9.762998 eV

  Osc. strength:                                                      0.000395
  Trans. dip. moment [a.u.]:           [   0.000564,   -0.004921,    0.040324]
  <i|r^2|0> [a.u.]:                    [  -0.006026,   -0.024536,    0.032565]
  Two-photon absorption cross-section (SoS) [a.u.]:                 134.975086
  Two-photon absorption matrix (SoS) [a.u.]:
                                       |   -0.231540   -0.298307    2.494858 |
                                       |   -0.298307   -0.384038    3.204453 |
                                       |    2.494858    3.204453    0.615652 |
  Two-photon absorption cross-section [a.u.]:                        83.204753
  Two-photon absorption matrix [a.u.]:
                                       |   -0.174364   -0.232888    1.897589 |
                                       |   -0.232888   -0.308925    2.562410 |
                                       |    1.897589    2.562410    0.483014 |

  Dip. moment [a.u.]:                  [   0.232299,    0.196473,    0.022898]
  Total dipole [Debye]:                                               0.775500
  <r^2> [a.u.]:                        [ 181.033417,   42.497384,   10.792757]
  Total <r^2> [a.u.]:                                               234.323559

  V1^2 = 0.9632, V2^2 = 0.0368

  Important amplitudes:
      occ i     occ j     vir a      vir b          v   
    -----------------------------------------------------
     8 (A) A             11 (A) A                -0.6654
     7 (A) A              9 (A) A                -0.1544
     8 (A) A             21 (A) A                 0.0767
     8 (A) A             16 (A) A                -0.0655
     8 (A) A             12 (A) A                 0.0571
     8 (A) A             10 (A) A                -0.0278
     8 (A) A   8 (A) B    9 (A) A   13 (A) B      0.0165
     6 (A) A              9 (A) A                 0.0164
     5 (A) A   8 (A) B   11 (A) A   11 (A) B      0.0156
     7 (A) A             20 (A) A                 0.0142
     8 (A) A   8 (A) B   11 (A) A   17 (A) B     -0.0138
     7 (A) A   8 (A) B   13 (A) A   11 (A) B     -0.0127
     5 (A) A   8 (A) A   11 (A) A   21 (A) A      0.0108
     8 (A) A   8 (A) B    9 (A) A   22 (A) B     -0.0107
     4 (A) A   8 (A) B   12 (A) A   11 (A) B      0.0106
     7 (A) A   8 (A) A   11 (A) A   22 (A) A     -0.0095
     8 (A) A             19 (A) A                 0.0090
     6 (A) A   8 (A) B   10 (A) A   11 (A) B     -0.0089
     6 (A) A   8 (A) B   15 (A) A   11 (A) B      0.0089
     7 (A) A   8 (A) B   22 (A) A   11 (A) B      0.0088
     3 (A) A   4 (A) B   11 (A) A    9 (A) B      0.0083
     6 (A) A   8 (A) A   11 (A) A   15 (A) A     -0.0079
     3 (A) A   8 (A) B   11 (A) A   18 (A) B      0.0079
     7 (A) A   8 (A) A   13 (A) A   16 (A) A      0.0078
     7 (A) A   8 (A) A   11 (A) A   13 (A) A      0.0075
     4 (A) A   8 (A) B   19 (A) A   11 (A) B     -0.0069
     5 (A) A   8 (A) B   21 (A) A   11 (A) B     -0.0069
     5 (A) A   8 (A) B    9 (A) A    9 (A) B      0.0069
     8 (A) A             13 (A) A                 0.0063
     4 (A) A   8 (A) A   11 (A) A   12 (A) A     -0.0062
     6 (A) A   8 (A) A   11 (A) A   18 (A) A     -0.0061
     3 (A) A   6 (A) B   11 (A) A   28 (A) B     -0.0060
     6 (A) A   8 (A) B   18 (A) A   11 (A) B      0.0059
     7 (A) A   8 (A) B   16 (A) A   13 (A) B     -0.0056
     3 (A) A   8 (A) B   11 (A) A   30 (A) B      0.0055
     3 (A) A   8 (A) A   11 (A) A   18 (A) A      0.0055
     5 (A) A   8 (A) B   10 (A) A   10 (A) B      0.0054
     3 (A) A   5 (A) B   11 (A) A   25 (A) B      0.0054
     8 (A) A   8 (A) B   20 (A) A   22 (A) B      0.0053
     6 (A) A   8 (A) B   11 (A) A   10 (A) B     -0.0053
    -----------------------------------------------------

  Density matrix analysis:
  ------------------------
  NOs
    Occupation of frontier NOs:
       0.9376   1.0306
    Number of electrons: 16.000000
    Number of unpaired electrons: n_u =  2.32163, n_u,nl =  2.05174
    NO participation ratio (PR_NO):  2.937103
  
  
  Mulliken Population Analysis
  Atom      Charge (e)              h+              e-           Del q
  --------------------------------------------------------------------
   1 H       -0.040083        0.047144       -0.138801       -0.091657
   2 C        0.274147        0.493416       -0.124459        0.368957
   3 H       -0.222639        0.045816       -0.319743       -0.273926
   4 C        0.243292        0.497299       -0.134919        0.362380
   5 H       -0.131540        0.045522       -0.236317       -0.190795
   6 H       -0.123177        0.047987       -0.222946       -0.174959
  --------------------------------------------------------------------
  Sum:        0.000000        1.177185       -1.177185        0.000000
  
  Multipole moment analysis of the density matrix
    Molecular charge:                      0.000000
    Number of electrons:                   16.000000
      Center of electronic charge [Ang]: [ -1.568259,  -0.069600,   0.001221]
    Total nuclear charge:                  16.000000
      Center of nuclear charge [Ang]:    [ -1.560576,  -0.063102,   0.001978]
    Dipole moment [D]:                     0.775499
      Cartesian components [D]:          [  0.590446,   0.499385,   0.058200]
    RMS size of the density [Ang]:         1.279374
      Cartesian components [Ang]:        [  0.842004,   0.859614,   0.434616]
  
  Exciton analysis of the difference density matrix
    <r_h> [Ang]:                  [ -1.567841,  -0.068887,   0.001361]
    <r_e> [Ang]:                  [ -1.672755,  -0.160165,  -0.009213]
    |<r_e - r_h>| [Ang]:            0.139465
    Hole size [Ang]:                1.396145
      Cartesian components [Ang]: [  0.816680,   0.811556,   0.789703]
    Electron size [Ang]:            2.112305
      Cartesian components [Ang]: [  1.293220,   1.527102,   0.676294]

  Transition density matrix analysis:
  -----------------------------------
  
  CT numbers (Mulliken)
    omega =     0.9293
    <Phe> =    -0.0143
  
  Exciton analysis of the transition density matrix
    Trans. dipole moment [D]:             0.051632
      Cartesian components [D]:         [  0.000717,  -0.006254,   0.051247]
    <r_h> [Ang]:                        [ -1.560925,  -0.063830,   0.002031]
    <r_e> [Ang]:                        [ -1.695452,  -0.176294,  -0.011277]
    |<r_e - r_h>| [Ang]:                  0.175849
    Hole size [Ang]:                      1.229180
      Cartesian components [Ang]:       [  0.665077,   0.646690,   0.806441]
    Electron size [Ang]:                  2.246097
      Cartesian components [Ang]:       [  1.367397,   1.631037,   0.717561]
    RMS electron-hole separation [Ang]:   2.555433
      Cartesian components [Ang]:       [  1.518641,   1.749176,   1.079050]
    Covariance(r_h, r_e) [Ang^2]:         0.028261
    Correlation coefficient:              0.010236
    Center-of-mass size [Ang]:            1.285725
      Cartesian components [Ang]:       [  0.764204,   0.881762,   0.539979]

  Decomposition into state-averaged NTOs
    H- 0 -> L+ 2: -0.6462 ( 83.5%)
    H- 1 -> L+ 0: -0.1523 (  4.6%)
    H- 0 -> L+ 1:  0.1321 (  3.5%)
                   omega =  92.9%
  ----------------------------------------------------------------------------


  Excited state 5 (singlet, A)                                     [converged]
  ----------------------------------------------------------------------------
  Term symbol:  6 (1) A                                     R^2 =  3.34611e-13

  Total energy:                                            -77.9452495511 a.u.
  Excitation energy:                                              10.179776 eV

  Osc. strength:                                                      0.000052
  Trans. dip. moment [a.u.]:           [  -0.001091,   -0.001159,    0.014391]
  <i|r^2|0> [a.u.]:                    [   0.081513,   -0.093699,    0.005185]
  Two-photon absorption cross-section (SoS) [a.u.]:                 194.981615
  Two-photon absorption matrix (SoS) [a.u.]:
                                       |    0.370654    0.096236   -3.957120 |
                                       |    0.096236   -0.347000    2.928364 |
                                       |   -3.957120    2.928364   -0.029086 |
  Two-photon absorption cross-section [a.u.]:                        91.665571
  Two-photon absorption matrix [a.u.]:
[...]
    16   -1.361301812543e-03
    17   -1.713015025806e-03
    18    9.206709079491e-04
    19   -2.619136835833e-03
    20    6.592719676059e-03
    21    8.643146757437e-01
    22   -8.138546197383e-04
    23    1.328919563392e-02
    24    7.434197210671e-04
    25    7.359855989328e-02
    26   -5.671601430108e-02
    27   -1.409704745635e+00
    28    9.290347402395e-02
    29   -1.057545016642e-01
    30   -1.651338252666e-03
    31    3.762617579909e-01
    32   -3.930440978378e-01
    33   -4.694080428912e-03
    34    1.509614512401e-02
    35   -1.486779035820e-03
    36   -1.625898727665e-03
    37   -8.999998726477e-04
    38   -3.420084171869e-03
    39    1.556235116012e-02
    40    9.748972981203e-01
    41    2.378066206736e-04
    42   -1.369519590089e-02
    43   -7.780590882013e-04
    44    1.182833521664e-02
    45    9.307717818680e-01
    46    1.397717072754e-02
    47    8.478007652363e-05
    48    6.676931230768e-04
Sym=X
Ene= 0.231104
Spin=Alpha
Occup=0
     1   -2.472433129562e-02
     2   -9.075047646312e-01
     3    9.242763589517e-03
     4    1.724664587454e-03
     5    5.510668157223e-04
     6    1.995278997424e-02
     7   -1.863995024249e-02
     8   -3.623206809278e-01
     9    1.333202062195e-01
    10    1.682954575644e-01
    11    1.640538212463e-02
    12    4.615450405303e-01
    13    6.026698090731e-01
    14    5.809328761951e-02
    15    5.199067508358e-03
    16   -6.551095472601e-04
    17   -5.863564571651e-04
    18   -1.544352944322e-03
    19   -2.924035498445e-03
    20    3.218732879936e-02
    21    1.402763432892e+00
    22    4.430788102976e-03
    23    1.705388776604e-02
    24    1.222874801101e-03
    25   -1.446655715390e-02
    26    1.522756303273e-02
    27    2.034786909836e-01
    28    1.441249050542e-01
    29    1.724813060942e-01
    30    1.668674309029e-02
    31    4.978621369442e-01
    32    5.815688613976e-01
    33    5.671010135261e-02
    34   -2.106192469095e-03
    35    2.506517428562e-04
    36    2.491398965394e-04
    37    6.210309828082e-05
    38    1.257160129109e-03
    39   -3.513406996197e-02
    40   -1.293081610888e+00
    41    3.914737806067e-03
    42    1.441436533549e-02
    43    1.015483284043e-03
    44    1.985213041910e-02
    45    9.965141900498e-01
    46    1.128015479122e-02
    47    2.246872743422e-03
    48    6.527317385019e-04
Sym=X
Ene= 0.237956
Spin=Alpha
Occup=0
     1    1.955065239115e-02
     2    1.339953744381e+00
     3   -1.987814699820e-02
     4   -9.641590538294e-03
     5   -1.509098541788e-03
     6    8.692386961924e-02
     7   -8.119712094043e-02
     8   -1.588311506883e+00
     9   -9.015695505202e-02
    10    2.254922456754e-02
    11   -2.930578320155e-03
    12   -3.544691919407e-01
    13    1.041914325211e-01
    14   -1.058407170567e-02
    15    2.230024691228e-02
    16   -2.623460952306e-03
    17   -2.878491002435e-03
    18   -5.415915324353e-04
    19   -1.289516394016e-02
    20    1.358004978190e-02
    21    8.390852745377e-01
    22    7.868108590870e-03
    23    1.406312326632e-02
    24    1.201361494784e-03
    25   -8.347748435564e-02
    26    7.789010971422e-02
    27    1.492297601194e+00
    28   -8.324425091357e-02
    29    2.572587269840e-02
    30   -2.508543463507e-03
    31   -3.204887297696e-01
    32    1.057325485654e-01
    33   -9.215179413975e-03
    34   -2.048480778786e-02
    35    2.416242980098e-03
    36    2.662465099861e-03
    37    1.392269301668e-04
    38    1.228830657877e-02
    39   -1.506175395238e-02
    40   -7.875563711098e-01
    41    7.829362727620e-03
    42    1.244039451576e-02
    43    1.091429996142e-03
    44   -2.304139272776e-02
    45   -1.269418588895e+00
    46   -1.859228330389e-02
    47   -9.448239651591e-03
    48   -1.436618308102e-03
Sym=X
Ene= 0.302915
Spin=Alpha
Occup=0
     1    2.358483531383e-02
     2   -1.691755540186e+00
     3    2.303757802998e-02
     4   -4.741080582669e-04
     5    1.061983781080e-03
     6    6.289515084470e-04
     7    1.102444785462e-03
     8   -2.956138231759e-02
     9    1.351024949054e-01
    10    1.426815359685e-01
    11    1.486895978709e-02
    12    1.154557767125e+00
    13    1.191739698235e+00
    14    1.248731725767e-01
    15    3.094318923412e-04
    16    1.672924600345e-03
    17   -1.978643588985e-03
    18    3.413885728223e-02
    19    1.530222125287e-03
    20   -2.241784281741e-02
    21    1.708695213645e+00
    22   -1.380397201929e-03
    23    2.368046968985e-02
    24    1.339614604657e-03
    25   -1.264366679518e-03
    26   -2.720676870182e-04
    27    1.010526157881e-01
    28   -1.339391057268e-01
    29   -1.415107297224e-01
    30   -1.450978096925e-02
    31   -1.116610479429e+00
    32   -1.179113521534e+00
    33   -1.215718356661e-01
    34   -2.196821273820e-03
    35    1.881833880466e-03
    36   -1.472671293372e-03
    37    3.185326088817e-02
    38    3.193690155098e-03
    39   -1.468270650632e-02
    40    1.592538896983e+00
    41    1.765264368879e-03
    42   -2.223871010325e-02
    43   -1.212537841480e-03
    44    2.184917250580e-02
    45   -1.684982912018e+00
    46   -2.349404525470e-02
    47   -3.229777977831e-04
    48   -1.120431601335e-03
Sym=X
Ene= 0.461737
Spin=Alpha
Occup=0
     1   -1.164163887634e-01
     2   -7.002883549699e-01
     3   -1.585274860042e-02
     4   -1.057480639316e-02
     5   -1.382534324553e-03
     6    6.089017358459e-02
     7    1.906207790572e-02
     8   -3.595185705387e+00
     9    1.007528645683e-01
    10   -9.631261093659e-02
    11   -8.633224280413e-04
    12    2.421319280657e+00
    13   -2.317428222797e+00
    14   -2.260934179458e-02
    15    5.383849189176e-02
    16   -3.473226350898e-03
    17   -4.622082648038e-03
    18   -1.270798823104e-03
    19    1.782678879911e-02
    20   -1.227562272083e-01
    21   -7.067482660229e-01
    22    8.945002561884e-03
    23    1.613441554684e-02
    24    1.382660756001e-03
    25   -6.205028135910e-02
    26   -1.608053165512e-02
    27    3.638186226541e+00
    28    1.078727856532e-01
    29   -1.014626337530e-01
    30   -7.368430563557e-04
    31    2.437674996507e+00
    32   -2.260060902136e+00
    33   -1.808051695481e-02
    34   -5.313652398156e-02
    35    3.060798097767e-03
    36    4.449277886640e-03
    37   -6.740168996502e-04
    38   -2.092649212728e-02
    39    1.194767132246e-01
    40    6.402590169757e-01
    41    9.152666995887e-03
    42    1.582404184231e-02
    43    1.351736146020e-03
    44    1.091735848005e-01
    45    7.386045410168e-01
    46   -1.485240355371e-02
    47   -9.936798799355e-03
    48   -1.267940006824e-03
Sym=X
Ene= 0.578129
Spin=Alpha
Occup=0
     1    2.262162642347e-01
     2    4.582520444377e-02
     3   -2.120825399085e-02
     4    2.671537881794e-02
     5    5.727773573596e-04
     6   -3.955192574315e-03
     7   -1.602370366041e-01
     8   -5.027617483233e-01
     9    3.010722084089e-01
    10   -2.917588764228e-01
    11   -2.986034543074e-03
    12   -6.943427674867e-01
    13    6.725212334269e-01
    14    6.730368121578e-03
    15   -4.216314762459e-03
    16    3.455221069207e-03
    17    3.807700950929e-03
    18   -8.993477515578e-03
    19    5.983503195121e-02
    20    2.689357963693e-01
    21    1.199274219577e-02
    22   -2.442090555006e-02
    23    1.504951949684e-02
    24   -2.684608338741e-04
    25   -7.229951561359e-03
    26   -1.636354592593e-01
    27   -3.422799551205e-01
    28   -3.016331840138e-01
    29    2.818709922918e-01
    30    2.401253146443e-03
    31    8.177760744478e-01
    32   -7.167511965379e-01
    33   -3.451748754296e-03
    34   -5.325552050142e-03
    35    3.984657905415e-03
    36    3.425216825084e-03
    37   -2.780601651612e-04
    38    6.033088561557e-02
    39    2.229320754313e-01
    40    4.043462914005e-02
    41    3.227731357820e-02
    42   -2.310925079769e-02
    43    1.709535536794e-04
    44    2.643760128210e-01
    45    6.824305082439e-02
    46    1.756151893578e-02
    47   -2.476577482613e-02
    48   -6.180715257272e-04
Sym=X
Ene= 0.612642
Spin=Alpha
Occup=0
     1   -5.316144534838e-01
     2    1.788162586846e-01
     3   -5.977184826700e-02
     4    3.527488725802e-02
     5   -7.279349632350e-04
     6   -3.692732395707e-04
     7   -1.988613895183e-03
     8    4.655917574785e-03
     9   -4.730707065785e-02
    10   -3.471804762123e-02
    11   -4.198515213619e-03
    12    3.502569461032e-01
    13    2.557658505360e-01
    14    3.204297965244e-02
    15    3.274837395913e-03
    16   -7.752164400648e-03
    17    7.747087660584e-03
    18   -1.455989514713e-01
    19   -1.053795569459e-02
    20    4.887709910447e-01
    21   -2.067917459495e-01
    22    4.276287966088e-02
    23   -5.754436033103e-02
    24   -1.353149472012e-03
    25   -8.463001230649e-04
    26    1.321502051401e-02
    27    4.465903351256e-03
    28   -2.604481314690e-02
    29   -3.607625535502e-02
    30   -3.418265724480e-03
    31    2.501652757102e-01
    32    2.446598529878e-01
    33    2.569991850521e-02
    34    7.065712427725e-03
    35    6.815726573653e-03
    36   -9.550474008492e-03
    37    1.531592063658e-01
    38    2.231164349981e-03
    39   -5.635225649547e-01
    40    3.210386918314e-01
    41    3.871140785024e-02
    42   -6.013942447404e-02
    43   -1.703052503734e-03
    44    4.890693672843e-01
    45   -2.193924449439e-01
    46   -6.026848339953e-02
    47    4.003962408505e-02
    48   -5.231194032919e-04
Sym=X
Ene= 0.688685
Spin=Alpha
Occup=0
     1   -1.858494378577e-04
     2   -3.257719645601e-04
     3    9.866250508814e-04
     4    1.239835211315e-03
     5   -2.095858319281e-02
     6   -1.553042118552e-05
     7   -9.066236176804e-05
     8   -1.187810292825e-04
     9    3.183354658558e-02
    10    3.951277095177e-02
    11   -6.694449744856e-01
    12   -2.885183125500e-02
    13   -3.670554511172e-02
    14    6.134949758712e-01
    15   -1.168093601897e-03
    16    8.315841336050e-02
    17   -7.841011995074e-02
    18   -8.452900829642e-03
    19   -1.246923867503e-03
    20   -2.870354717291e-04
    21    7.915982788319e-05
    22    1.040553504715e-03
    23    1.268470432733e-03
    24   -2.077145211737e-02
    25   -1.945324818887e-06
    26   -2.213326910886e-04
    27    3.325321626736e-04
    28    3.143666075485e-02
    29    3.927124463105e-02
    30   -6.714311090701e-01
    31   -2.816080009949e-02
    32   -3.610525152669e-02
    33    6.122986813023e-01
    34    1.229783541195e-03
    35   -8.277100751001e-02
    36    7.761114808126e-02
    37    8.536469866728e-03
    38    1.228092015859e-03
    39   -5.905597007819e-05
    40    5.082409700070e-04
    41    6.582561322009e-04
    42    7.747198212371e-04
    43   -1.444563334745e-02
    44    4.011821466336e-05
    45    1.119153091398e-04
    46    1.046447281953e-03
    47    1.217496973700e-03
    48   -2.140726133654e-02
Sym=X
Ene= 0.704942
Spin=Alpha
Occup=0
     1   -4.249141117280e-01
     2    1.121425117626e-01
     3   -7.121286385426e-02
     4   -4.535899563160e-02
     5   -6.029724434856e-03
     6   -4.285171302855e-02
     7   -3.227825615698e-01
     8    4.700596966545e-01
     9    2.044533824262e-01
    10   -1.947176477022e-01
    11   -1.605669766297e-03
    12   -6.951961684576e-02
    13    5.106085574207e-02
    14   -2.353970092928e-04
    15    1.815944860670e-01
    16   -1.903508870972e-02
    17   -2.282919229444e-02
    18    9.195217435081e-03
    19   -7.596577565631e-02
    20   -4.749972379518e-01
    21    1.335311435814e-01
    22    3.719369497810e-02
    23    7.889122237902e-02
    24    6.444053584305e-03
    25   -4.968863569628e-02
    26   -2.901356557522e-01
    27    4.466894836178e-01
    28   -1.831509708905e-01
    29    2.040352090623e-01
    30    3.539515638539e-03
    31    3.089713930869e-02
    32   -1.426761125626e-01
    33   -7.398370023122e-03
    34    2.005982626292e-01
    35   -2.083949222394e-02
    36   -2.414348804798e-02
    37    1.155612311017e-03
    38   -7.627672504184e-02
    39   -5.056457887288e-01
    40    2.611835607455e-01
    41   -4.173205550887e-02
    42   -8.445834641939e-02
    43   -6.912275849085e-03
    44   -5.153999202023e-01
    45    1.409985538061e-01
    46    8.383076176707e-02
    47    4.307942585214e-02
    48    6.447294348056e-03
Sym=X
Ene= 0.778587
Spin=Alpha
Occup=0
     1   -5.696737285258e-01
     2    4.763559265155e-01
     3   -1.152606688183e-01
     4   -2.497644243825e-02
     5   -6.940716278938e-03
     6   -9.292690356994e-02
     7    1.819218020686e-01
     8    6.915338276924e-01
     9   -9.578598630999e-02
    10    8.797661484745e-02
    11    9.489782959175e-04
    12   -3.266012608749e-01
    13    3.118346773309e-01
    14    2.516733931703e-03
    15    2.165131941970e-01
    16   -1.881628057819e-02
    17   -2.312215122703e-02
    18    8.168105867895e-04
    19   -1.574217311824e-02
    20   -5.401482522620e-01
    21    4.779628402129e-01
    22    2.680998343261e-02
    23    1.139408373485e-01
    24    8.015176514286e-03
    25    8.621929872093e-02
    26   -2.621468439188e-01
    27   -5.689960442156e-01
    28   -1.502874763514e-01
    29    6.788970192827e-02
    30   -3.214506808775e-03
    31   -2.340602551811e-01
    32    4.067922084576e-01
    33    1.326943813700e-02
    34   -1.890434181018e-01
    35    1.534214439325e-02
    36    1.995227111260e-02
    37   -9.396610356690e-03
    38    5.510965791907e-03
    39    5.275824565444e-01
    40   -5.922186782553e-01
    41    2.132887548916e-02
    42    1.117685222879e-01
    43    7.522296521096e-03
    44    5.045807658321e-01
    45   -3.940174016648e-01
    46   -9.579239674240e-02
    47   -2.211848311968e-02
    48   -5.779705190910e-03
Sym=X
Ene= 0.807629
Spin=Alpha
Occup=0
     1    1.795387513753e-04
     2   -7.255310725736e-04
     3   -1.512875967884e-03
     4   -1.957557738958e-03
     5    3.394813661828e-02
     6    3.522291126858e-05
     7   -1.650481044042e-04
     8    2.692569239620e-05
     9   -3.625823732947e-02
    10   -4.539771850795e-02
    11    7.637884447604e-01
    12    5.370923871291e-02
    13    6.686995866583e-02
    14   -1.126757397439e+00
    15   -1.019077608859e-03
    16    6.584862274194e-02
    17   -6.170430181333e-02
    18   -6.574705001072e-03
    19   -9.941802933807e-04
    20    1.322840694439e-04
    21    3.997418051093e-04
    22   -1.588613137604e-03
    23   -2.004308708773e-03
    24    3.455796352669e-02
    25   -2.193249456849e-05
    26   -5.345983008357e-05
    27    5.093843237701e-05
    28    3.574906879988e-02
    29    4.442609642904e-02
    30   -7.639435721877e-01
    31   -5.231748764228e-02
    32   -6.553184816161e-02
    33    1.124540742957e+00
    34   -8.686978103250e-04
    35    6.565436211081e-02
    36   -6.189809839096e-02
    37   -6.880440747084e-03
    38   -9.374893298123e-04
    39   -1.273439158457e-04
    40   -3.093314919596e-04
    41    1.318747093827e-03
    42    1.541801457854e-03
    43   -2.665039303158e-02
    44   -1.409414924123e-04
    45    7.813031063460e-04
    46    1.761957962088e-03
    47    2.039117912410e-03
    48   -3.440170239301e-02
Sym=X
Ene= 0.859676
Spin=Alpha
Occup=0
     1    1.529754197851e-02
     2   -1.070466284597e+00
     3    1.450596382814e-01
     4    5.687875323259e-02
     5    1.024682362913e-02
     6    3.989218096612e-03
     7   -2.824557346116e-02
     8    3.842213785689e-02
     9   -3.761669741462e-01
    10   -4.190272866235e-01
    11   -4.299290852143e-02
    12    9.030092654632e-01
    13    9.564851275092e-01
    14    1.001957952076e-01
    15   -9.487951120477e-03
    16    1.174482042215e-02
    17   -1.220014403744e-02
    18    2.274956780318e-01
    19    3.783161413438e-03
    20    1.666289092585e-02
    21    1.036125460214e+00
    22    5.242521580403e-02
    23    1.374424260928e-01
    24    1.057137114114e-02
    25   -5.983613261674e-03
    26   -1.980909933615e-02
    27    1.477215314632e-03
    28   -4.116443460491e-01
    29   -4.737435347595e-01
    30   -4.661150394177e-02
    31    9.513006242160e-01
    32    1.049593470685e+00
    33    1.051304071689e-01
    34    2.055200283351e-02
    35   -1.324056521643e-02
    36    1.113423257794e-02
    37   -2.330134566703e-01
    38   -9.335494908308e-03
    39    2.885164051506e-03
    40   -1.092006239324e+00
    41    4.959362708625e-02
    42    1.492817716854e-01
    43    1.101792288897e-02
    44   -4.636033833760e-02
    45    1.117689314353e+00
    46    1.588896774564e-01
    47    5.571022334878e-02
    48    1.076179619666e-02
Sym=X
Ene= 0.930796
Spin=Alpha
Occup=0
     1    1.223717805818e-01
     2   -1.309045471330e+00
     3    1.843699056523e-01
     4   -4.007862871165e-04
     5    8.693878976146e-03
     6   -3.846094020927e-03
     7    5.582591005441e-02
     8   -1.450869205009e-01
     9   -5.172354838408e-01
    10   -4.835853103900e-01
    11   -5.302240949243e-02
    12    1.526723629223e+00
    13    1.467163704221e+00
    14    1.587960343718e-01
    15    9.257785095693e-03
    16    6.889089415048e-03
    17   -8.222704166361e-03
    18    1.369365978421e-01
    19    1.974128570309e-02
    20   -1.435334169385e-01
    21    1.308076844982e+00
    22   -1.453249783792e-02
    23    1.945079205779e-01
    24    1.085126850732e-02
    25    6.959861146087e-03
    26    7.291447052006e-02
    27   -4.759439853431e-02
    28    4.110260293846e-01
    29    5.233291100719e-01
    30    4.994715026178e-02
    31   -1.251458598532e+00
    32   -1.533148578379e+00
    33   -1.485815646232e-01
    34   -2.372255426419e-02
    35    5.990619835080e-03
    36   -4.261053283319e-03
    37    1.045576925267e-01
    38   -1.367408119144e-02
    39   -1.142066006025e-01
    40    1.237303711048e+00
    41    7.969066319938e-03
    42   -1.762302878521e-01
    43   -9.907137752992e-03
    44    1.418516995582e-01
    45   -1.116014344107e+00
    46   -1.686098570984e-01
    47    1.365267024471e-02
    48   -7.088912040900e-03
Sym=X
Ene= 0.971129
Spin=Alpha
Occup=0
     1   -5.539083659568e-02
     2    7.961942573545e-01
     3   -7.281958037064e-02
     4   -9.541249969605e-02
     5   -9.070382088830e-03
     6    2.597809809069e-02
     7    2.009674585763e-01
     8    5.968767372528e-01
     9    4.448121313846e-01
    10   -4.769925926331e-01
    11   -7.156623598535e-03
    12   -1.353004796833e+00
    13    1.481059136143e+00
    14    2.357910818098e-02
    15   -5.536556779302e-02
    16   -1.212156362825e-02
    17   -9.288885327831e-03
    18    1.703822843255e-02
    19   -2.950367021483e-01
    20   -5.763000783237e-02
    21    9.431454621487e-01
    22    9.141036071295e-02
    23    9.574931027356e-02
    24    9.944409228749e-03
    25   -2.716934188754e-02
    26   -2.925025381057e-01
    27   -4.482432077534e-01
    28    5.265679147613e-01
    29   -4.240581708062e-01
    30    2.597785849953e-05
    31   -1.628730933158e+00
    32    1.269028900386e+00
    33   -2.482702632957e-03
    34    5.981421992464e-02
    35    1.317163696403e-02
    36    7.955881630414e-03
    37    3.579530897313e-03
    38    3.021964400346e-01
    39    5.812256876803e-02
    40   -7.837086994878e-01
    41    9.234026382316e-02
    42    7.791815028988e-02
    43    8.857375203478e-03
    44    6.774675819580e-02
    45   -1.062361456636e+00
    46   -1.096052704714e-01
    47   -1.003376072088e-01
    48   -1.110463201251e-02
[5D]

======= END OF MOLDEN-FORMATTED INPUT FILE =======


        *************************************************************
        *                                                           *
        *  Thank you very much for using Q-Chem.  Have a nice day.  *
        *                                                           *
        *************************************************************


