                  Welcome to Q-Chem
     A Quantum Leap Into The Future Of Chemistry


 Q-Chem 5.4 (devel), Q-Chem, Inc., Pleasanton, CA (2021)

 E. Epifanovsky,  A. T. B. Gilbert,  Xintian Feng,  Joonho Lee,  Yuezhi Mao,  
 N. Mardirossian,  P. Pokhilko,  A. White,  M. Wormit,  M. P. Coons,  
 A. L. Dempwolff,  Zhengting Gan,  D. Hait,  P. R. Horn,  L. D. Jacobson,  
 I. Kaliman,  J. Kussmann,  A. W. Lange,  Ka Un Lao,  D. S. Levine,  Jie Liu,  
 S. C. McKenzie,  A. F. Morrison,  K. Nanda,  F. Plasser,  D. R. Rehn,  
 M. L. Vidal,  Zhi-Qiang You,  Ying Zhu,  B. Alam,  B. Albrecht,  
 A. Aldossary,  E. Alguire,  J. H. Andersen,  D. Barton,  K. Begam,  A. Behn,  
 Y. A. Bernard,  E. J. Berquist,  H. Burton,  A. Carreras,  K. Carter-Fenk,  
 R. Chakraborty,  A. D. Chien,  K. D. Closser,  V. Cofer-Shabica,  
 S. Dasgupta,  Jia Deng,  M. de Wergifosse,  M. Diedenhofen,  Hainam Do,  
 S. Ehlert,  Po-Tung Fang,  S. Fatehi,  Qingguo Feng,  T. Friedhoff,  
 J. Gayvert,  Qinghui Ge,  G. Gidofalvi,  M. Goldey,  J. Gomes,  
 C. Gonzalez-Espinoza,  S. Gulania,  A. Gunina,  M. W. D. Hanson-Heine,  
 P. H. P. Harbach,  A. W. Hauser,  M. F. Herbst,  M. Hernandez Vera,  
 M. Hodecker,  Z. C. Holden,  S. Houck,  Xunkun Huang,  Kerwin Hui,  
 B. C. Huynh,  M. Ivanov,  Hyunjun Ji,  Hanjie Jiang,  B. Kaduk,  S. Kaehler,  
 K. Khistyaev,  Jaehoon Kim,  P. Klunzinger,  Z. Koczor-Benda,  
 Joong Hoon Koh,  D. Kosenkov,  L. Koulias,  T. Kowalczyk,  C. M. Krauter,  
 K. Kue,  A. Kunitsa,  T. Kus,  A. Landau,  K. V. Lawler,  D. Lefrancois,  
 S. Lehtola,  Rain Li,  Yi-Pei Li,  Jiashu Liang,  M. Liebenthal,  
 Hung-Hsuan Lin,  You-Sheng Lin,  Fenglai Liu,  Kuan-Yu Liu,  
 M. Loipersberger,  A. Luenser,  A. Manjanath,  P. Manohar,  E. Mansoor,  
 S. F. Manzer,  Shan-Ping Mao,  A. V. Marenich,  T. Markovich,  S. Mason,  
 S. A. Maurer,  P. F. McLaughlin,  M. F. S. J. Menger,  J.-M. Mewes,  
 S. A. Mewes,  P. Morgante,  J. W. Mullinax,  K. J. Oosterbaan,  G. Paran,  
 Alexander C. Paul,  Suranjan K. Paul,  F. Pavosevic,  Zheng Pei,  S. Prager,  
 E. I. Proynov,  E. Ramos,  B. Rana,  A. E. Rask,  A. Rettig,  R. M. Richard,  
 F. Rob,  E. Rossomme,  T. Scheele,  M. Scheurer,  M. Schneider,  
 N. Sergueev,  S. M. Sharada,  W. Skomorowski,  D. W. Small,  C. J. Stein,  
 Yu-Chuan Su,  E. J. Sundstrom,  Zhen Tao,  J. Thirman,  T. Tsuchimochi,  
 N. M. Tubman,  S. P. Veccham,  O. Vydrov,  J. Wenzel,  J. Witte,  A. Yamada,  
 Kun Yao,  S. Yeganeh,  S. R. Yost,  A. Zech,  Igor Ying Zhang,  Xing Zhang,  
 Yu Zhang,  D. Zuev,  A. Aspuru-Guzik,  A. T. Bell,  N. A. Besley,  
 K. B. Bravaya,  B. R. Brooks,  D. Casanova,  Jeng-Da Chai,  S. Coriani,  
 C. J. Cramer,  A. E. DePrince, III,  R. A. DiStasio Jr.,  A. Dreuw,  
 B. D. Dunietz,  T. R. Furlani,  W. A. Goddard III,  S. Grimme,  
 S. Hammes-Schiffer,  T. Head-Gordon,  W. J. Hehre,  Chao-Ping Hsu,  
 T.-C. Jagau,  Yousung Jung,  A. Klamt,  Jing Kong,  D. S. Lambrecht,  
 WanZhen Liang,  N. J. Mayhall,  C. W. McCurdy,  J. B. Neaton,  
 C. Ochsenfeld,  J. A. Parkhill,  R. Peverati,  V. A. Rassolov,  Yihan Shao,  
 L. V. Slipchenko,  T. Stauch,  R. P. Steele,  J. E. Subotnik,  
 A. J. W. Thom,  A. Tkatchenko,  D. G. Truhlar,  T. Van Voorhis,  
 T. A. Wesolowski,  K. B. Whaley,  H. L. Woodcock III,  P. M. Zimmerman,  
 S. Faraji,  P. M. W. Gill,  M. Head-Gordon,  J. M. Herbert,  A. I. Krylov

 Additional authors for Version 5.4.1: 
 S. Kotaru,  Shaozhi Li,  Xiangyuan Li,  F. Matz,  A. Molle,  Haisheng Ren,  
 Yingli Su,  Hung-Yi Tsai,  C. Utku,  Fang Wang

 Contributors to earlier versions of Q-Chem not listed above: 
 R. D. Adamson,  B. Austin,  R. Baer,  J. Baker,  G. J. O. Beran,  
 K. Brandhorst,  S. T. Brown,  E. F. C. Byrd,  A. K. Chakraborty,  
 G. K. L. Chan,  Chun-Min Chang,  Yunqing Chen,  C.-L. Cheng,  
 Siu Hung Chien,  D. M. Chipman,  D. L. Crittenden,  H. Dachsel,  
 R. J. Doerksen,  A. D. Dutoi,  R. G. Edgar,  J. Fosso-Tande,  
 L. Fusti-Molnar,  D. Ghosh,  A. Ghysels,  A. Golubeva-Zadorozhnaya,  
 J. Gonthier,  M. S. Gordon,  S. R. Gwaltney,  G. Hawkins,  J. E. Herr,  
 A. Heyden,  S. Hirata,  E. G. Hohenstein,  G. Kedziora,  F. J. Keil,  
 C. Kelley,  Jihan Kim,  R. A. King,  R. Z. Khaliullin,  P. P. Korambath,  
 W. Kurlancheek,  A. Laurent,  A. M. Lee,  M. S. Lee,  S. V. Levchenko,  
 Ching Yeh Lin,  D. Liotard,  E. Livshits,  R. C. Lochan,  I. Lotan,  
 L. A. Martinez-Martinez,  P. E. Maslen,  N. Nair,  D. P. O'Neill,  
 D. Neuhauser,  E. Neuscamman,  C. M. Oana,  R. Olivares-Amaya,  R. Olson,  
 T. M. Perrine,  B. Peters,  P. A. Pieniazek,  A. Prociuk,  Y. M. Rhee,  
 J. Ritchie,  M. A. Rohrdanz,  E. Rosta,  N. J. Russ,  H. F. Schaefer III,  
 M. W. Schmidt,  N. E. Schultz,  S. Sharma,  N. Shenvi,  C. D. Sherrill,  
 A. C. Simmonett,  A. Sodt,  T. Stein,  D. Stuck,  K. S. Thanthiriwatte,  
 V. Vanovschi,  L. Vogt,  Tao Wang,  A. Warshel,  M. A. Watson,  
 C. F. Williams,  Q. Wu,  X. Xu,  Jun Yang,  W. Zhang,  Yan Zhao

 Please cite Q-Chem as follows:
 Y. Shao et al., Mol. Phys. 113, 184-215 (2015)
 DOI: 10.1080/00268976.2014.952696

 Q-Chem 5.4.1 for Intel X86 EM64T Linux

 Parts of Q-Chem use Armadillo 9.800.1 (Horizon Scraper).
 http://arma.sourceforge.net/

 Q-Chem begins on Mon Mar 20 18:21:58 2023  

 Host: cpu186.baobab
0

     Scratch files written to /scratch/fum/qchem74617//
 Processing $rem in /home/share/wesolowski/qc5.aug2021.FDE/config/preferences:
 Processing $rem in /home/fum/.qchemrc:

 Checking the input file for inconsistencies... 	...done.

--------------------------------------------------------------
User input:
--------------------------------------------------------------
$comment
generated from CCJob.Templates
$end

$rem
sym_ignore = true
method = adc(2)
ee_states = 10
basis = cc-pVDZ
mem_static = 1024
mem_total = 40000
adc_davidson_maxiter = 900
adc_davidson_conv = 6
adc_print = 3
adc_prop_es = true
adc_prop_es2es = true
adc_prop_tpa = true
molden_format = True
state_analysis = true
print_orbitals = 15
gen_scfman = false
fde_export_density = true
fde_details = 3
$end

$molecule
0 1
H 0.015058350315012025 -0.23765362439349894 0.06745018567541658
C -1.090676908862781 -0.5378260974664695 -0.003785180629805468
H -1.2937578194970536 -1.5561006662307069 -0.0751115380823893
C -2.057510282860351 0.3804507162359737 0.005190199670582346
H -1.8140731266986176 1.4993764072624027 0.08450348441702898
H -3.0645725091919815 0.12572367690467834 -0.0584834276254366                     
$end
--------------------------------------------------------------
 ----------------------------------------------------------------
             Standard Nuclear Orientation (Angstroms)
    I     Atom           X                Y                Z
 ----------------------------------------------------------------
    1      H       0.0150583503    -0.2376536244     0.0674501857
    2      C      -1.0906769089    -0.5378260975    -0.0037851806
    3      H      -1.2937578195    -1.5561006662    -0.0751115381
    4      C      -2.0575102829     0.3804507162     0.0051901997
    5      H      -1.8140731267     1.4993764073     0.0845034844
    6      H      -3.0645725092     0.1257236769    -0.0584834276
 ----------------------------------------------------------------
 Nuclear Repulsion Energy =          33.23863816 hartrees
 There are        8 alpha and        8 beta electrons
 Requested basis set is cc-pVDZ
 There are 24 shells and 48 basis functions
 Total memory of 40000 MB is distributed as follows: 
   MEM_STATIC is set to 1024 MB
   QALLOC/CCMAN JOB total memory use is  38976 MB
 Warning: actual memory use might exceed 40000 MB

 Total QAlloc Memory Limit  40000 MB
 Mega-Array Size      1001 MB
 MEM_STATIC part      1024 MB

                       Distance Matrix (Angstroms)
             H (  1)   C (  2)   H (  3)   C (  4)   H (  5)
   C (  2)  1.147967
   H (  3)  1.863230  1.040775
   C (  4)  2.163670  1.333447  2.083266
   H (  5)  2.522555  2.163629  3.103570  1.147844
   H (  6)  3.103551  2.083160  2.442252  1.040728  1.863093

 A cutoff of  1.0D-11 yielded    300 shell pairs
 There are      1220 function pairs (      1329 Cartesian)
 Smallest overlap matrix eigenvalue = 4.82E-03

 Scale SEOQF with 1.000000e-01/1.000000e-01/1.000000e+00

 Standard Electronic Orientation quadrupole field applied
 Nucleus-field energy     =     0.0000000022 hartrees
 Guess from superposition of atomic densities
 Warning:  Energy on first SCF cycle will be non-variational
 SAD guess density has 16.000000 electrons
 A restricted Hartree-Fock SCF calculation will be
 performed using Pulay DIIS extrapolation
 SCF converges when DIIS error is below 1.0E-08
 using 10 threads for integral computing
 -------------------------------------------------------
 OpenMP Integral computing Module                
 Release: version 1.0, May 2013, Q-Chem Inc. Pittsburgh 
 -------------------------------------------------------
 ---------------------------------------
  Cycle       Energy         DIIS Error
 ---------------------------------------
    1     -78.3984614044      9.97E-02
    2     -78.0096997392      7.16E-03
    3     -78.0303717830      1.84E-03
    4     -78.0318739527      5.72E-04
    5     -78.0319957940      5.93E-05
    6     -78.0319977391      9.42E-06
    7     -78.0319978022      1.97E-06
    8     -78.0319978049      1.92E-07
    9     -78.0319978050      6.26E-08
   10     -78.0319978050      1.46E-08
   11     -78.0319978050      3.13E-09 Convergence criterion met
 ---------------------------------------
 SCF time:  CPU 2.18 s  wall 2.85 s
 SCF   energy in the final basis set = -78.03199780
 Total energy in the final basis set = -78.03199780
Exporting Density Matrix to file 'Densmat_SCF.txt'.
Export successful
================================================================================
|                                                                              |
|                                 A D C  M A N                                 |
|                                                                              |
 ------------------------------------------------------------------------------ 
|                                                                              |
| Components:                                                                  |
|                                                                              |
| - libvmm - 1.3-trunk                                                         |
|   Authors:                                                                   |
|   Evgeny Epifanovsky, Ilya Kaliman                                           |
|                                                                              |
| - libtensor - 2.5-trunk                                                      |
|   Authors:                                                                   |
|   Evgeny Epifanovsky, Michael Wormit, Dmitry Zuev, Sam Manzer,               |
|   Ilya Kaliman                                                               |
|                                                                              |
| - libwfa - 1.1-trunk                                                         |
|   Authors:                                                                   |
|   Felix Plasser, Stefanie Mewes (Baeppler), Benjamin Thomitzni,              |
|   Michael Wormit, Feng Chen, Anna I. Krylov, Pavel Pokhilko                  |
|                                                                              |
| - libadc - 1.1-trunk                                                         |
|   Authors:                                                                   |
|   Michael Wormit, Adrian L. Dempwolff, Philipp H. P. Harbach,                |
|   Caroline Krauter, Dirk Rehn, Matthias Schneider, Jan Wenzel                |
|                                                                              |
| - adcman - 2.6-trunk                                                         |
|   Authors:                                                                   |
|   Michael Wormit, Adrian L. Dempwolff, Philipp H. P. Harbach,                |
|   Caroline Krauter, Daniel Lefrancois, Jan-Michael Mewes, Dirk Rehn,         |
|   Matthias Schneider, Jan Wenzel, Andreas Dreuw                              |
|                                                                              |
| Authors of earlier versions of ADCMAN:                                       |
| Andreas Dreuw, Jan Hendrik Starcke, Dirk Rehn, Michael Wormit                |
|                                                                              |
================================================================================

 Created directory /scratch/fum/qchem74617/plots
  Import QC data ...  CPU 0.00 s  wall 0.00 s

 Alpha MOs, Restricted
 -- Occupied --                  
-11.239 -11.237  -1.031  -0.789  -0.639  -0.579  -0.498  -0.375
  1 A     2 A     3 A     4 A     5 A     6 A     7 A     8 A                  
 -- Virtual --                   
  0.168   0.200   0.232   0.236   0.302   0.463   0.579   0.609
  9 A    10 A    11 A    12 A    13 A    14 A    15 A    16 A                  
  0.688   0.706   0.771   0.807   0.859   0.927   0.978   1.009
 17 A    18 A    19 A    20 A    21 A    22 A    23 A    24 A                  
  1.131   1.230   1.248   1.263   1.292   1.584   1.727   1.751
 25 A    26 A    27 A    28 A    29 A    30 A    31 A    32 A                  
  1.811   1.852   1.854   1.901   1.933   2.004   2.214   2.241
 33 A    34 A    35 A    36 A    37 A    38 A    39 A    40 A                  
  2.367   2.426   2.494   2.620   2.625   2.887   3.104   3.404
 41 A    42 A    43 A    44 A    45 A    46 A    47 A    48 A                  

 Beta MOs, Restricted
 -- Occupied --                  
-11.239 -11.237  -1.031  -0.789  -0.639  -0.579  -0.498  -0.375
  1 A     2 A     3 A     4 A     5 A     6 A     7 A     8 A                  
 -- Virtual --                   
  0.168   0.200   0.232   0.236   0.302   0.463   0.579   0.609
  9 A    10 A    11 A    12 A    13 A    14 A    15 A    16 A                  
  0.688   0.706   0.771   0.807   0.859   0.927   0.978   1.009
 17 A    18 A    19 A    20 A    21 A    22 A    23 A    24 A                  
  1.131   1.230   1.248   1.263   1.292   1.584   1.727   1.751
 25 A    26 A    27 A    28 A    29 A    30 A    31 A    32 A                  
  1.811   1.852   1.854   1.901   1.933   2.004   2.214   2.241
 33 A    34 A    35 A    36 A    37 A    38 A    39 A    40 A                  
  2.367   2.426   2.494   2.620   2.625   2.887   3.104   3.404
 41 A    42 A    43 A    44 A    45 A    46 A    47 A    48 A                  
  Import AO data ...  CPU 0.00 s  wall 0.00 s
  Using point group: C1
  Irreducible representations in point group: A
  Molecular orbitals: 
  Occupied MOs:
  Block   0:   1 (  A) A   2 (  A) A   3 (  A) A   4 (  A) A   5 (  A) A
                  -11.24      -11.24      -1.031     -0.7889     -0.6387
               6 (  A) A   7 (  A) A   8 (  A) A
                 -0.5793      -0.498     -0.3748
  Block   1:   1 (  A) B   2 (  A) B   3 (  A) B   4 (  A) B   5 (  A) B
                  -11.24      -11.24      -1.031     -0.7889     -0.6387
               6 (  A) B   7 (  A) B   8 (  A) B
                 -0.5793      -0.498     -0.3748
  Virtual MOs:
  Block   0:   9 (  A) A  10 (  A) A  11 (  A) A  12 (  A) A  13 (  A) A
                  0.1677      0.2005      0.2316      0.2363      0.3022
              14 (  A) A  15 (  A) A  16 (  A) A  17 (  A) A  18 (  A) A
                  0.4631      0.5791      0.6085      0.6881      0.7065
              19 (  A) A  20 (  A) A  21 (  A) A  22 (  A) A
                  0.7713      0.8068       0.859       0.927
  Block   1:  23 (  A) A  24 (  A) A  25 (  A) A  26 (  A) A  27 (  A) A
                  0.9776       1.009       1.131        1.23       1.248
              28 (  A) A  29 (  A) A  30 (  A) A  31 (  A) A  32 (  A) A
                   1.263       1.292       1.584       1.727       1.751
              33 (  A) A  34 (  A) A  35 (  A) A  36 (  A) A
                   1.811       1.852       1.854       1.901
  Block   2:  37 (  A) A  38 (  A) A  39 (  A) A  40 (  A) A  41 (  A) A
                   1.933       2.004       2.214       2.241       2.367
              42 (  A) A  43 (  A) A  44 (  A) A  45 (  A) A  46 (  A) A
                   2.426       2.494        2.62       2.625       2.887
              47 (  A) A  48 (  A) A
                   3.104       3.404
  Block   3:   9 (  A) B  10 (  A) B  11 (  A) B  12 (  A) B  13 (  A) B
                  0.1677      0.2005      0.2316      0.2363      0.3022
              14 (  A) B  15 (  A) B  16 (  A) B  17 (  A) B  18 (  A) B
                  0.4631      0.5791      0.6085      0.6881      0.7065
              19 (  A) B  20 (  A) B  21 (  A) B  22 (  A) B
                  0.7713      0.8068       0.859       0.927
  Block   4:  23 (  A) B  24 (  A) B  25 (  A) B  26 (  A) B  27 (  A) B
                  0.9776       1.009       1.131        1.23       1.248
              28 (  A) B  29 (  A) B  30 (  A) B  31 (  A) B  32 (  A) B
                   1.263       1.292       1.584       1.727       1.751
              33 (  A) B  34 (  A) B  35 (  A) B  36 (  A) B
                   1.811       1.852       1.854       1.901
  Block   5:  37 (  A) B  38 (  A) B  39 (  A) B  40 (  A) B  41 (  A) B
                   1.933       2.004       2.214       2.241       2.367
              42 (  A) B  43 (  A) B  44 (  A) B  45 (  A) B  46 (  A) B
                   2.426       2.494        2.62       2.625       2.887
              47 (  A) B  48 (  A) B
                   3.104       3.404
  Import MO data ...  CPU 0.05 s  wall 0.02 s
  Import HF data ...  CPU 0.37 s  wall 0.14 s
  Import 2e integrals ...  CPU 2.22 s  wall 0.35 s

--------------------------------------------------------------------------------
                                   HF Summary                                   
--------------------------------------------------------------------------------
  Energy:                                                  -78.0319978050 a.u.
  Dip. moment [a.u.]:                  [  -0.022411,   -0.023527,   -0.002485]
  Total dipole [Debye]:                                               0.082829
  <r^2> [a.u.]:                        [ 176.438152,   35.345208,   11.678742]
  Total <r^2> [a.u.]:                                               223.462101
--------------------------------------------------------------------------------
  HF properties ...  CPU 0.18 s  wall 0.06 s
  MP(1) calculation ...  CPU 0.01 s  wall 0.01 s
  N^6 prerequesite intermediates ...  CPU 0.60 s  wall 0.11 s
  Difference density matrix of state mp2_gs printed to ASCII file 'State_mp2_gs_Difference.txt'
Exporting MP density matrix to file 'Densmat_MP.txt'.
Export successful
  Total density matrix of state mp2_gs printed to ASCII file 'State_mp2_gs_Total.txt'
Exporting MP density matrix to file 'Densmat_MP.txt'.
Export successful

--------------------------------------------------------------------------------
                                 MP(2) Summary                                  
--------------------------------------------------------------------------------
  MP energy contribution:                                   -0.2804550607 a.u.
  Total energy:                                            -78.3124528657 a.u.
  Dip. moment [a.u.]:                  [  -0.018316,   -0.019223,   -0.002029]
  Total dipole [Debye]:                                               0.067685
  <r^2> [a.u.]:                        [ 176.500396,   35.379999,   11.505298]
  Total <r^2> [a.u.]:                                               223.385693

  Density matrix analysis:
  ------------------------
  NOs
    Occupation of frontier NOs:
       0.0455   1.9380
    Number of electrons: 16.000000
    Number of unpaired electrons: n_u =  0.40765, n_u,nl =  0.04596
    NO participation ratio (PR_NO): 13.875135
  
  
  Mulliken Population Analysis
  Atom      Charge (e)              h+              e-           Del q
  --------------------------------------------------------------------
   1 H        0.063458        0.013521       -0.011436        0.002085
   2 C       -0.105388        0.094616       -0.100104       -0.005487
   3 H        0.041899        0.014620       -0.011216        0.003404
   4 C       -0.105295        0.094603       -0.100098       -0.005495
   5 H        0.063448        0.013521       -0.011435        0.002086
   6 H        0.041878        0.014622       -0.011215        0.003407
  --------------------------------------------------------------------
  Sum:        0.000000        0.245503       -0.245503       -0.000000
  
  Multipole moment analysis of the density matrix
    Molecular charge:                      -0.000000
    Number of electrons:                   16.000000
      Center of electronic charge [Ang]: [ -1.564798,  -0.068921,   0.001741]
    Total nuclear charge:                  16.000000
      Center of nuclear charge [Ang]:    [ -1.565404,  -0.069557,   0.001674]
    Dipole moment [D]:                     0.067685
      Cartesian components [D]:          [ -0.046554,  -0.048861,  -0.005156]
    RMS size of the density [Ang]:         1.206773
      Cartesian components [Ang]:        [  0.800298,   0.783877,   0.448732]
  
  Exciton analysis of the difference density matrix
    <r_h> [Ang]:                  [ -1.552576,  -0.056107,   0.003101]
    <r_e> [Ang]:                  [ -1.561402,  -0.065384,   0.002117]
    |<r_e - r_h>| [Ang]:            0.012843
    Hole size [Ang]:                1.404255
      Cartesian components [Ang]: [  0.854973,   0.842162,   0.729189]
    Electron size [Ang]:            1.362414
      Cartesian components [Ang]: [  0.880052,   0.864750,   0.577829]
--------------------------------------------------------------------------------
  MP(2) calculation ...  CPU 0.28 s  wall 0.19 s
  Start ADC(2)-s ...  CPU 0.02 s  wall 0.01 s
  ADC(2) intermediates ...  CPU 0.16 s  wall 0.03 s
  Starting Davidson for singlet states of irrep A ... 
--------------------------------------------------------------------------------
   It NVec Conv  Avg. Norm  Max. Norm  Conv. states           Remark
--------------------------------------------------------------------------------
        10    0  1.329e-01  4.674e-01  0.4077 n n n n n n n n Guess.
    1   20    0  2.326e-02  1.111e-01  0.3262 n n n n n n n n 
    2   30    0  6.015e-03  2.540e-02  0.3213 n n n n n n n n 
    3   40    0  2.067e-03  1.084e-02  0.3209 n n n n n n n n 
    4   50    0  5.782e-04  3.863e-03  0.3209 n n n n n n n n 
    5   20    0  2.793e-04  1.712e-03  0.3209 n n n n n n n n Subspace collapsed.
    6   30    0  1.452e-04  8.995e-04  0.3209 n n n n n n n n 
    7   40    0  8.116e-05  4.548e-04  0.3209 n n n n n n n n 
    8   50    0  6.762e-05  4.429e-04  0.3209 n n n n n n n n 
    9   20    0  3.101e-05  1.855e-04  0.3209 n n n n n n n n Subspace collapsed.
   10   30    1  2.344e-05  1.343e-04  0.3209 n y n n n n n n 
   11   40    5  1.313e-05  9.038e-05  0.3209 n y y y y y n n 
   12   50    6  1.356e-05  1.122e-04  0.3209 y y y y y y n n 
   13   20    6  7.205e-06  6.075e-05  0.3209 y y y y y y n n Subspace collapsed.
   14   30    6  7.306e-06  6.335e-05  0.3209 y y y y y y n n 
   15   40    6  6.699e-06  6.150e-05  0.3209 y y y y y y n n 
   16   50    6  6.174e-06  5.842e-05  0.3209 y y y y y y n n 
   17   20    7  2.548e-06  2.416e-05  0.3209 y y y y y y y n Subspace collapsed.
   18   30    8  2.195e-06  2.079e-05  0.3209 y y y y y y y n 
   19   40    8  1.196e-06  1.138e-05  0.3209 y y y y y y y n 
   20   50    8  1.381e-06  1.339e-05  0.3209 y y y y y y y n 
   21   20    8  7.110e-07  6.900e-06  0.3209 y y y y y y y n Subspace collapsed.
   22   30    8  1.140e-06  1.118e-05  0.3209 y y y y y y y n 
   23   40    8  8.763e-07  8.661e-06  0.3209 y y y y y y y n 
   24   49    8  8.837e-07  8.763e-06  0.3209 y y y y y y y n 
   25   50    8  8.411e-07  8.343e-06  0.3209 y y y y y y y n 
   26   16    9  3.123e-07  3.098e-06  0.3209 y y y y y y y y Subspace collapsed.
   27   22    9  3.319e-07  3.294e-06  0.3209 y y y y y y y y 
   28   28    9  1.766e-07  1.755e-06  0.3209 y y y y y y y y 
   29   34    9  1.831e-07  1.823e-06  0.3209 y y y y y y y y 
   30   35    9  1.725e-07  1.717e-06  0.3209 y y y y y y y y 
   31   40    9  1.520e-07  1.516e-06  0.3209 y y y y y y y y 
   32   44    9  1.335e-07  1.333e-06  0.3209 y y y y y y y y 
   33   48   10  6.703e-08  6.691e-07  0.3209 y y y y y y y y Converged.
--------------------------------------------------------------------------------
  Davidson Summary: 
 ------------------------------------------------------------
  State  0: excitation energy =   0.3209 a.u.   (converged)
  State  1: excitation energy =   0.3259 a.u.   (converged)
  State  2: excitation energy =   0.3331 a.u.   (converged)
  State  3: excitation energy =   0.3617 a.u.   (converged)
  State  4: excitation energy =   0.3726 a.u.   (converged)
  State  5: excitation energy =   0.3860 a.u.   (converged)
  State  6: excitation energy =   0.4163 a.u.   (converged)
  State  7: excitation energy =   0.4439 a.u.   (converged)
  State  8: excitation energy =   0.4535 a.u.   (converged)
  State  9: excitation energy =   0.4599 a.u.   (converged)
 ------------------------------------------------------------

  Singlet states of irrep A ...  CPU 206.47 s  wall 66.14 s
  TDMs ...  CPU 2.59 s  wall 0.90 s
  SDMs ...  CPU 4.77 s  wall 1.48 s
  Starting TPA DIIS iterations ... 
------------------------------------ 
   It     Res. Norm  Remark
------------------------------------
                       Guess.
    1     4.395e+00  
    2     5.832e+00  
    3     1.088e+00  
    4     2.611e-01  
    5     6.472e-02  
    6     2.735e-02  
    7     8.451e-03  
    8     1.618e-03  
    9     6.533e-04  
   10     1.050e-04  
   11     3.689e-05  
   12     6.632e-06  
   13     2.392e-06  
   14     8.784e-07  Converged.
   ... Converged in 14 steps (norm: 8.7843e-07)
------------------------------------
  Starting TPA DIIS iterations ... 
------------------------------------ 
   It     Res. Norm  Remark
------------------------------------
                       Guess.
    1     4.186e+00  
    2     5.544e+00  
    3     1.039e+00  
    4     2.594e-01  
    5     6.453e-02  
    6     2.735e-02  
    7     8.304e-03  
    8     1.627e-03  
    9     6.521e-04  
   10     1.035e-04  
   11     3.670e-05  
   12     6.490e-06  
   13     2.455e-06  
   14     8.749e-07  Converged.
   ... Converged in 14 steps (norm: 8.74866e-07)
------------------------------------
  Starting TPA DIIS iterations ... 
------------------------------------ 
   It     Res. Norm  Remark
------------------------------------
                       Guess.
    1     6.963e-01  
    2     4.978e-01  
    3     1.726e-01  
    4     6.760e-02  
    5     1.936e-02  
    6     8.540e-03  
    7     2.442e-03  
    8     8.166e-04  
    9     4.831e-04  
   10     1.363e-04  
   11     6.270e-05  
   12     1.466e-05  
   13     9.648e-06  
   14     3.342e-06  
   15     1.169e-06  
   16     2.742e-07  Converged.
   ... Converged in 16 steps (norm: 2.74214e-07)
------------------------------------
  Starting TPA DIIS iterations ... 
------------------------------------ 
   It     Res. Norm  Remark
------------------------------------
                       Guess.
    1     4.514e+00  
    2     6.045e+00  
    3     1.122e+00  
    4     2.730e-01  
    5     6.809e-02  
    6     2.890e-02  
    7     8.925e-03  
    8     1.711e-03  
    9     6.936e-04  
   10     1.117e-04  
   11     3.943e-05  
   12     7.128e-06  
   13     2.589e-06  
   14     9.504e-07  Converged.
   ... Converged in 14 steps (norm: 9.5036e-07)
------------------------------------
  Starting TPA DIIS iterations ... 
------------------------------------ 
   It     Res. Norm  Remark
------------------------------------
                       Guess.
    1     4.298e+00  
    2     5.746e+00  
    3     1.071e+00  
    4     2.712e-01  
    5     6.790e-02  
    6     2.890e-02  
    7     8.771e-03  
    8     1.721e-03  
    9     6.923e-04  
   10     1.101e-04  
   11     3.922e-05  
   12     6.973e-06  
   13     2.660e-06  
   14     9.471e-07  Converged.
   ... Converged in 14 steps (norm: 9.47084e-07)
------------------------------------
  Starting TPA DIIS iterations ... 
------------------------------------ 
   It     Res. Norm  Remark
------------------------------------
                       Guess.
    1     7.017e-01  
    2     5.055e-01  
    3     1.768e-01  
    4     7.099e-02  
    5     2.014e-02  
    6     8.855e-03  
    7     2.574e-03  
    8     8.709e-04  
    9     5.128e-04  
   10     1.470e-04  
   11     6.762e-05  
   12     1.599e-05  
   13     1.070e-05  
   14     3.744e-06  
   15     1.307e-06  
   16     2.991e-07  Converged.
   ... Converged in 16 steps (norm: 2.99057e-07)
------------------------------------
  Starting TPA DIIS iterations ... 
------------------------------------ 
   It     Res. Norm  Remark
------------------------------------
                       Guess.
    1     4.695e+00  
    2     6.372e+00  
    3     1.174e+00  
    4     2.916e-01  
    5     7.335e-02  
    6     3.133e-02  
    7     9.667e-03  
    8     1.856e-03  
    9     7.571e-04  
   10     1.223e-04  
   11     4.347e-05  
   12     7.921e-06  
   13     2.909e-06  
   14     1.066e-06  
   15     3.753e-07  Converged.
   ... Converged in 15 steps (norm: 3.75321e-07)
------------------------------------
  Starting TPA DIIS iterations ... 
------------------------------------ 
   It     Res. Norm  Remark
------------------------------------
                       Guess.
    1     4.470e+00  
    2     6.056e+00  
    3     1.120e+00  
    4     2.895e-01  
    5     7.315e-02  
    6     3.135e-02  
    7     9.501e-03  
    8     1.868e-03  
    9     7.556e-04  
   10     1.204e-04  
   11     4.322e-05  
   12     7.743e-06  
   13     2.994e-06  
   14     1.064e-06  
   15     4.238e-07  Converged.
   ... Converged in 15 steps (norm: 4.23829e-07)
------------------------------------
  Starting TPA DIIS iterations ... 
------------------------------------ 
   It     Res. Norm  Remark
------------------------------------
                       Guess.
    1     7.095e-01  
    2     5.171e-01  
    3     1.831e-01  
    4     7.633e-02  
    5     2.135e-02  
    6     9.334e-03  
    7     2.781e-03  
    8     9.571e-04  
    9     5.594e-04  
   10     1.642e-04  
   11     7.557e-05  
   12     1.818e-05  
   13     1.246e-05  
   14     4.410e-06  
   15     1.537e-06  
   16     3.388e-07  Converged.
   ... Converged in 16 steps (norm: 3.38789e-07)
------------------------------------
  Starting TPA DIIS iterations ... 
------------------------------------ 
   It     Res. Norm  Remark
------------------------------------
                       Guess.
    1     5.547e+00  
    2     7.961e+00  
    3     1.415e+00  
    4     3.858e-01  
    5     9.998e-02  
    6     4.381e-02  
    7     1.344e-02  
    8     2.601e-03  
    9     1.087e-03  
   10     1.769e-04  
   11     6.501e-05  
   12     1.219e-05  
   13     4.719e-06  
   14     1.711e-06  
   15     6.830e-07  Converged.
   ... Converged in 15 steps (norm: 6.82986e-07)
------------------------------------
  Starting TPA DIIS iterations ... 
------------------------------------ 
   It     Res. Norm  Remark
------------------------------------
                       Guess.
    1     5.279e+00  
    2     7.566e+00  
    3     1.350e+00  
    4     3.822e-01  
    5     9.974e-02  
    6     4.390e-02  
    7     1.321e-02  
    8     2.621e-03  
    9     1.084e-03  
   10     1.741e-04  
   11     6.454e-05  
   12     1.188e-05  
   13     4.895e-06  
   14     1.720e-06  
   15     7.836e-07  Converged.
   ... Converged in 15 steps (norm: 7.83619e-07)
------------------------------------
  Starting TPA DIIS iterations ... 
------------------------------------ 
   It     Res. Norm  Remark
------------------------------------
                       Guess.
    1     7.423e-01  
    2     5.682e-01  
    3     2.122e-01  
    4     1.039e-01  
    5     2.712e-02  
    6     1.156e-02  
    7     3.814e-03  
    8     1.413e-03  
    9     8.015e-04  
   10     2.600e-04  
   11     1.207e-04  
   12     3.123e-05  
   13     2.391e-05  
   14     8.497e-06  
   15     2.919e-06  
   16     5.537e-07  Converged.
   ... Converged in 16 steps (norm: 5.53689e-07)
------------------------------------
  Starting TPA DIIS iterations ... 
------------------------------------ 
   It     Res. Norm  Remark
------------------------------------
                       Guess.
    1     5.940e+00  
    2     8.719e+00  
    3     1.526e+00  
    4     4.327e-01  
    5     1.132e-01  
    6     5.010e-02  
    7     1.532e-02  
    8     2.976e-03  
    9     1.255e-03  
   10     2.047e-04  
   11     7.627e-05  
   12     1.444e-05  
   13     5.724e-06  
   14     2.065e-06  
   15     8.704e-07  Converged.
   ... Converged in 15 steps (norm: 8.70441e-07)
------------------------------------
  Starting TPA DIIS iterations ... 
------------------------------------ 
   It     Res. Norm  Remark
------------------------------------
                       Guess.
    1     5.652e+00  
    2     8.286e+00  
    3     1.455e+00  
    4     4.282e-01  
    5     1.129e-01  
    6     5.023e-02  
    7     1.506e-02  
    8     2.999e-03  
    9     1.251e-03  
   10     2.015e-04  
   11     7.566e-05  
   12     1.405e-05  
   13     5.961e-06  
   14     2.087e-06  
   15     1.004e-06  
   16     3.772e-07  Converged.
   ... Converged in 16 steps (norm: 3.77209e-07)
------------------------------------
  Starting TPA DIIS iterations ... 
------------------------------------ 
   It     Res. Norm  Remark
------------------------------------
                       Guess.
    1     7.557e-01  
    2     5.902e-01  
    3     2.251e-01  
    4     1.179e-01  
    5     2.985e-02  
    6     1.257e-02  
    7     4.319e-03  
    8     1.650e-03  
    9     9.249e-04  
   10     3.126e-04  
   11     1.459e-04  
   12     3.917e-05  
   13     3.131e-05  
   14     1.091e-05  
   15     3.727e-06  
   16     6.802e-07  Converged.
   ... Converged in 16 steps (norm: 6.8024e-07)
------------------------------------
  Starting TPA DIIS iterations ... 
------------------------------------ 
   It     Res. Norm  Remark
------------------------------------
                       Guess.
    1     6.492e+00  
    2     9.809e+00  
    3     1.680e+00  
    4     5.019e-01  
    5     1.327e-01  
    6     5.946e-02  
    7     1.810e-02  
    8     3.532e-03  
    9     1.508e-03  
   10     2.464e-04  
   11     9.334e-05  
   12     1.787e-05  
   13     7.314e-06  
   14     2.627e-06  
   15     1.188e-06  
   16     4.582e-07  Converged.
   ... Converged in 16 steps (norm: 4.58201e-07)
------------------------------------
  Starting TPA DIIS iterations ... 
------------------------------------ 
   It     Res. Norm  Remark
------------------------------------
                       Guess.
    1     6.175e+00  
    2     9.320e+00  
    3     1.602e+00  
    4     4.959e-01  
    5     1.324e-01  
    6     5.966e-02  
    7     1.780e-02  
    8     3.561e-03  
    9     1.503e-03  
   10     2.423e-04  
   11     9.251e-05  
   12     1.736e-05  
   13     7.661e-06  
   14     2.678e-06  
   15     1.377e-06  
   16     5.398e-07  Converged.
   ... Converged in 16 steps (norm: 5.39807e-07)
------------------------------------
  Starting TPA DIIS iterations ... 
------------------------------------ 
   It     Res. Norm  Remark
------------------------------------
                       Guess.
    1     7.729e-01  
    2     6.197e-01  
    3     2.429e-01  
    4     1.387e-01  
    5     3.375e-02  
    6     1.397e-02  
    7     5.055e-03  
    8     2.007e-03  
    9     1.110e-03  
   10     3.954e-04  
   11     1.862e-04  
   12     5.299e-05  
   13     4.440e-05  
   14     1.483e-05  
   15     5.037e-06  
   16     9.160e-07  Converged.
   ... Converged in 16 steps (norm: 9.1599e-07)
------------------------------------
  Starting TPA DIIS iterations ... 
------------------------------------ 
   It     Res. Norm  Remark
------------------------------------
                       Guess.
    1     8.087e+00  
    2     1.311e+01  
    3     2.120e+00  
    4     7.211e-01  
    5     1.944e-01  
    6     8.973e-02  
    7     2.695e-02  
    8     5.325e-03  
    9     2.338e-03  
   10     3.821e-04  
   11     1.496e-04  
   12     2.933e-05  
   13     1.303e-05  
   14     4.724e-06  
   15     2.527e-06  
   16     1.095e-06  
   17     6.887e-07  Converged.
   ... Converged in 17 steps (norm: 6.88671e-07)
------------------------------------
  Starting TPA DIIS iterations ... 
------------------------------------ 
   It     Res. Norm  Remark
------------------------------------
                       Guess.
    1     7.690e+00  
    2     1.246e+01  
    3     2.020e+00  
    4     7.101e-01  
    5     1.941e-01  
    6     9.018e-02  
    7     2.651e-02  
    8     5.372e-03  
    9     2.325e-03  
   10     3.752e-04  
   11     1.480e-04  
   12     2.835e-05  
   13     1.392e-05  
   14     5.001e-06  
   15     2.943e-06  
   16     1.273e-06  
   17     7.172e-07  Converged.
   ... Converged in 17 steps (norm: 7.17196e-07)
------------------------------------
  Starting TPA DIIS iterations ... 
------------------------------------ 
   It     Res. Norm  Remark
------------------------------------
                       Guess.
    1     8.148e-01  
    2     6.975e-01  
    3     2.916e-01  
    4     2.047e-01  
    5     4.552e-02  
    6     1.789e-02  
    7     7.320e-03  
    8     3.185e-03  
    9     1.719e-03  
   10     6.938e-04  
   11     3.333e-04  
   12     1.146e-04  
   13     1.019e-04  
   14     2.946e-05  
   15     9.807e-06  
   16     2.142e-06  
   17     6.837e-07  Converged.
   ... Converged in 17 steps (norm: 6.83702e-07)
------------------------------------
  Starting TPA DIIS iterations ... 
------------------------------------ 
   It     Res. Norm  Remark
------------------------------------
                       Guess.
    1     1.017e+01  
    2     1.773e+01  
    3     2.680e+00  
    4     1.041e+00  
    5     2.850e-01  
    6     1.353e-01  
    7     4.001e-02  
    8     8.025e-03  
    9     3.614e-03  
   10     5.876e-04  
   11     2.335e-04  
   12     4.732e-05  
   13     2.288e-05  
   14     8.806e-06  
   15     5.455e-06  
   16     2.620e-06  
   17     1.470e-06  
   18     5.692e-07  Converged.
   ... Converged in 18 steps (norm: 5.6923e-07)
------------------------------------
  Starting TPA DIIS iterations ... 
------------------------------------ 
   It     Res. Norm  Remark
------------------------------------
                       Guess.
    1     9.664e+00  
    2     1.684e+01  
    3     2.551e+00  
    4     1.021e+00  
    5     2.845e-01  
    6     1.362e-01  
    7     3.935e-02  
    8     8.099e-03  
    9     3.588e-03  
   10     5.756e-04  
   11     2.315e-04  
   12     4.546e-05  
   13     2.511e-05  
   14     9.903e-06  
   15     6.331e-06  
   16     2.900e-06  
   17     1.426e-06  
   18     5.700e-07  Converged.
   ... Converged in 18 steps (norm: 5.70032e-07)
------------------------------------
  Starting TPA DIIS iterations ... 
------------------------------------ 
   It     Res. Norm  Remark
------------------------------------
                       Guess.
    1     8.579e-01  
    2     7.869e-01  
    3     3.506e-01  
    4     2.962e-01  
    5     6.172e-02  
    6     2.282e-02  
    7     1.049e-02  
    8     4.989e-03  
    9     2.659e-03  
   10     1.201e-03  
   11     5.891e-04  
   12     2.453e-04  
   13     2.180e-04  
   14     5.518e-05  
   15     1.803e-05  
   16     4.957e-06  
   17     1.414e-06  
   18     4.279e-07  Converged.
   ... Converged in 18 steps (norm: 4.27862e-07)
------------------------------------
  Starting TPA DIIS iterations ... 
------------------------------------ 
   It     Res. Norm  Remark
------------------------------------
                       Guess.
    1     1.110e+01  
    2     1.990e+01  
    3     2.925e+00  
    4     1.193e+00  
    5     3.287e-01  
    6     1.577e-01  
    7     4.633e-02  
    8     9.352e-03  
    9     4.247e-03  
   10     6.884e-04  
   11     2.740e-04  
   12     5.646e-05  
   13     2.826e-05  
   14     1.127e-05  
   15     7.312e-06  
   16     3.618e-06  
   17     1.891e-06  
   18     7.156e-07  Converged.
   ... Converged in 18 steps (norm: 7.15629e-07)
------------------------------------
  Starting TPA DIIS iterations ... 
------------------------------------ 
   It     Res. Norm  Remark
------------------------------------
                       Guess.
    1     1.055e+01  
    2     1.890e+01  
    3     2.784e+00  
    4     1.169e+00  
    5     3.282e-01  
    6     1.588e-01  
    7     4.557e-02  
    8     9.439e-03  
    9     4.213e-03  
   10     6.737e-04  
   11     2.720e-04  
   12     5.409e-05  
   13     3.130e-05  
   14     1.296e-05  
   15     8.454e-06  
   16     3.932e-06  
   17     1.811e-06  
   18     6.544e-07  Converged.
   ... Converged in 18 steps (norm: 6.5444e-07)
------------------------------------
  Starting TPA DIIS iterations ... 
------------------------------------ 
   It     Res. Norm  Remark
------------------------------------
                       Guess.
    1     8.742e-01  
    2     8.238e-01  
    3     3.756e-01  
    4     3.363e-01  
    5     6.921e-02  
    6     2.501e-02  
    7     1.196e-02  
    8     5.877e-03  
    9     3.129e-03  
   10     1.463e-03  
   11     7.253e-04  
   12     3.197e-04  
   13     2.824e-04  
   14     6.880e-05  
   15     2.248e-05  
   16     6.581e-06  
   17     1.888e-06  
   18     5.567e-07  Converged.
   ... Converged in 18 steps (norm: 5.56671e-07)
------------------------------------
  Starting TPA DIIS iterations ... 
------------------------------------ 
   It     Res. Norm  Remark
------------------------------------
                       Guess.
    1     1.180e+01  
    2     2.157e+01  
    3     3.108e+00  
    4     1.311e+00  
    5     3.628e-01  
    6     1.753e-01  
    7     5.127e-02  
    8     1.040e-02  
    9     4.749e-03  
   10     7.676e-04  
   11     3.058e-04  
   12     6.382e-05  
   13     3.277e-05  
   14     1.344e-05  
   15     8.965e-06  
   16     4.526e-06  
   17     2.238e-06  
   18     8.124e-07  Converged.
   ... Converged in 18 steps (norm: 8.12429e-07)
------------------------------------
  Starting TPA DIIS iterations ... 
------------------------------------ 
   It     Res. Norm  Remark
------------------------------------
                       Guess.
    1     1.121e+01  
    2     2.049e+01  
    3     2.958e+00  
    4     1.283e+00  
    5     3.622e-01  
    6     1.766e-01  
    7     5.044e-02  
    8     1.050e-02  
    9     4.709e-03  
   10     7.507e-04  
   11     3.040e-04  
   12     6.101e-05  
   13     3.648e-05  
   14     1.564e-05  
   15     1.033e-05  
   16     4.867e-06  
   17     2.143e-06  
   18     6.913e-07  Converged.
   ... Converged in 18 steps (norm: 6.91279e-07)
------------------------------------
  Starting TPA DIIS iterations ... 
------------------------------------ 
   It     Res. Norm  Remark
------------------------------------
                       Guess.
    1     8.856e-01  
    2     8.505e-01  
    3     3.939e-01  
    4     3.656e-01  
    5     7.493e-02  
    6     2.668e-02  
    7     1.309e-02  
    8     6.576e-03  
    9     3.502e-03  
   10     1.673e-03  
   11     8.366e-04  
   12     3.814e-04  
   13     3.352e-04  
   14     7.985e-05  
   15     2.611e-05  
   16     7.923e-06  
   17     2.318e-06  
   18     6.759e-07  Converged.
   ... Converged in 18 steps (norm: 6.75923e-07)
------------------------------------
  Two-photon absorbption ...  CPU 191.87 s  wall 50.95 s
  Transition density matrix of state singlet_A_1 printed to ASCII file 'State_singlet_A_1_Transition.txt'
  Transition density matrix of state singlet_A_2 printed to ASCII file 'State_singlet_A_2_Transition.txt'
  Transition density matrix of state singlet_A_3 printed to ASCII file 'State_singlet_A_3_Transition.txt'
  Transition density matrix of state singlet_A_4 printed to ASCII file 'State_singlet_A_4_Transition.txt'
  Transition density matrix of state singlet_A_5 printed to ASCII file 'State_singlet_A_5_Transition.txt'
  Transition density matrix of state singlet_A_6 printed to ASCII file 'State_singlet_A_6_Transition.txt'
  Transition density matrix of state singlet_A_7 printed to ASCII file 'State_singlet_A_7_Transition.txt'
  Transition density matrix of state singlet_A_8 printed to ASCII file 'State_singlet_A_8_Transition.txt'
  Transition density matrix of state singlet_A_9 printed to ASCII file 'State_singlet_A_9_Transition.txt'
  Transition density matrix of state singlet_A_10 printed to ASCII file 'State_singlet_A_10_Transition.txt'
  Transition properties ...  CPU 0.37 s  wall 1.00 s
  Difference density matrix of state singlet_A_1 printed to ASCII file 'State_singlet_A_1_Difference.txt'
  Total density matrix of state singlet_A_1 printed to ASCII file 'State_singlet_A_1_Total.txt'
  Difference density matrix of state singlet_A_2 printed to ASCII file 'State_singlet_A_2_Difference.txt'
  Total density matrix of state singlet_A_2 printed to ASCII file 'State_singlet_A_2_Total.txt'
  Difference density matrix of state singlet_A_3 printed to ASCII file 'State_singlet_A_3_Difference.txt'
  Total density matrix of state singlet_A_3 printed to ASCII file 'State_singlet_A_3_Total.txt'
  Difference density matrix of state singlet_A_4 printed to ASCII file 'State_singlet_A_4_Difference.txt'
  Total density matrix of state singlet_A_4 printed to ASCII file 'State_singlet_A_4_Total.txt'
  Difference density matrix of state singlet_A_5 printed to ASCII file 'State_singlet_A_5_Difference.txt'
  Total density matrix of state singlet_A_5 printed to ASCII file 'State_singlet_A_5_Total.txt'
  Difference density matrix of state singlet_A_6 printed to ASCII file 'State_singlet_A_6_Difference.txt'
  Total density matrix of state singlet_A_6 printed to ASCII file 'State_singlet_A_6_Total.txt'
  Difference density matrix of state singlet_A_7 printed to ASCII file 'State_singlet_A_7_Difference.txt'
  Total density matrix of state singlet_A_7 printed to ASCII file 'State_singlet_A_7_Total.txt'
  Difference density matrix of state singlet_A_8 printed to ASCII file 'State_singlet_A_8_Difference.txt'
  Total density matrix of state singlet_A_8 printed to ASCII file 'State_singlet_A_8_Total.txt'
  Difference density matrix of state singlet_A_9 printed to ASCII file 'State_singlet_A_9_Difference.txt'
  Total density matrix of state singlet_A_9 printed to ASCII file 'State_singlet_A_9_Total.txt'
  Difference density matrix of state singlet_A_10 printed to ASCII file 'State_singlet_A_10_Difference.txt'
  Total density matrix of state singlet_A_10 printed to ASCII file 'State_singlet_A_10_Total.txt'
  Properties ...  CPU 0.68 s  wall 1.00 s
  ISR TDMS ...  CPU 31.95 s  wall 9.77 s
  ISR transition properties ...  CPU 0.68 s  wall 0.30 s
  Sum-over-states TPA ...  CPU 0.00 s  wall 0.00 s

--------------------------------------------------------------------------------
                   State-averaged natural transition orbitals
--------------------------------------------------------------------------------
--------------------------------------------------------------------------------
  SA-NTO decomposition ...  CPU 0.01 s  wall 0.03 s

--------------------------------------------------------------------------------
                             Excited State Summary
--------------------------------------------------------------------------------
--------------------------------------------------------------------------------

  Excited state 1 (singlet, A)                                     [converged]
  ----------------------------------------------------------------------------
  Term symbol:  2 (1) A                                     R^2 =  3.21247e-13

  Total energy:                                            -77.9915233043 a.u.
  Excitation energy:                                               8.732938 eV

  Osc. strength:                                                      0.448552
  Trans. dip. moment [a.u.]:           [  -1.049876,    0.997077,    0.009831]
  <i|r^2|0> [a.u.]:                    [  -6.111723,    0.162747,   -0.000305]
  Two-photon absorption cross-section (SoS) [a.u.]:                   0.111285
  Two-photon absorption matrix (SoS) [a.u.]:
                                       |    0.117632    0.006293    0.005728 |
                                       |    0.006293   -0.117209   -0.007119 |
                                       |    0.005728   -0.007119   -0.000371 |
  Two-photon absorption cross-section [a.u.]:                         0.126019
  Two-photon absorption matrix [a.u.]:
                                       |    0.125007    0.006521    0.006692 |
                                       |    0.006521   -0.124924   -0.006968 |
                                       |    0.006692   -0.006968   -0.000277 |

  Dip. moment [a.u.]:                  [  -0.015485,   -0.016248,   -0.001710]
  Total dipole [Debye]:                                               0.057216
  <r^2> [a.u.]:                        [ 177.264457,   36.067919,   11.915227]
  Total <r^2> [a.u.]:                                               225.247604

  V1^2 = 0.9713, V2^2 = 0.0287

  Important amplitudes:
      occ i     occ j     vir a      vir b          v   
    -----------------------------------------------------
     8 (A) A              9 (A) A                 0.6807
     4 (A) A             10 (A) A                 0.0600
     6 (A) A             14 (A) A                -0.0597
     7 (A) A             16 (A) A                 0.0556
     5 (A) A             13 (A) A                 0.0502
     6 (A) A             23 (A) A                -0.0396
     8 (A) A             20 (A) A                -0.0349
     3 (A) A             12 (A) A                -0.0283
     6 (A) A             22 (A) A                 0.0278
     6 (A) A             19 (A) A                 0.0267
     5 (A) A             23 (A) A                 0.0185
     4 (A) A             24 (A) A                 0.0184
     8 (A) A   8 (A) B   17 (A) A   20 (A) B      0.0184
     6 (A) A             13 (A) A                 0.0179
     7 (A) A             11 (A) A                -0.0171
     8 (A) A   8 (A) B    9 (A) A   28 (A) B     -0.0168
     6 (A) A             12 (A) A                -0.0164
     5 (A) A             14 (A) A                 0.0155
     7 (A) A             21 (A) A                 0.0152
     3 (A) A             26 (A) A                 0.0150
     7 (A) A             10 (A) A                 0.0149
     3 (A) A             14 (A) A                 0.0142
     6 (A) A             26 (A) A                -0.0142
     5 (A) A             22 (A) A                 0.0130
     3 (A) A   4 (A) B    9 (A) A    9 (A) B     -0.0129
     5 (A) A             19 (A) A                -0.0128
     3 (A) A             19 (A) A                -0.0116
     7 (A) A             15 (A) A                 0.0113
     4 (A) A             11 (A) A                 0.0112
     3 (A) A             27 (A) A                -0.0110
     8 (A) A   8 (A) B   18 (A) A   19 (A) B      0.0107
     7 (A) A             18 (A) A                -0.0092
     7 (A) A             32 (A) A                 0.0091
     7 (A) A             36 (A) A                -0.0086
     8 (A) A   8 (A) B   25 (A) A   29 (A) B      0.0076
     5 (A) A             27 (A) A                -0.0074
     6 (A) A             27 (A) A                 0.0071
     3 (A) A             23 (A) A                 0.0067
     6 (A) A             35 (A) A                 0.0067
     5 (A) A             12 (A) A                -0.0066
    -----------------------------------------------------

  Density matrix analysis:
  ------------------------
  NOs
    Occupation of frontier NOs:
       0.9485   1.0225
    Number of electrons: 16.000000
    Number of unpaired electrons: n_u =  2.31697, n_u,nl =  2.03355
    NO participation ratio (PR_NO):  2.877629
  
  
  Mulliken Population Analysis
  Atom      Charge (e)              h+              e-           Del q
  --------------------------------------------------------------------
   1 H        0.072072        0.020943       -0.012328        0.008614
   2 C       -0.121133        0.490443       -0.506188       -0.015744
   3 H        0.049028        0.019905       -0.012776        0.007129
   4 C       -0.121037        0.490442       -0.506184       -0.015742
   5 H        0.072064        0.020943       -0.012328        0.008616
   6 H        0.049005        0.019904       -0.012777        0.007127
  --------------------------------------------------------------------
  Sum:        0.000000        1.062580       -1.062580       -0.000000
  
  Multipole moment analysis of the density matrix
    Molecular charge:                      0.000000
    Number of electrons:                   16.000000
      Center of electronic charge [Ang]: [ -1.564892,  -0.069019,   0.001731]
    Total nuclear charge:                  16.000000
      Center of nuclear charge [Ang]:    [ -1.565404,  -0.069557,   0.001674]
    Dipole moment [D]:                     0.057216
      Cartesian components [D]:          [ -0.039359,  -0.041299,  -0.004347]
    RMS size of the density [Ang]:         1.220074
      Cartesian components [Ang]:        [  0.808428,   0.791511,   0.456656]
  
  Exciton analysis of the difference density matrix
    <r_h> [Ang]:                  [ -1.570650,  -0.075070,   0.001083]
    <r_e> [Ang]:                  [ -1.572060,  -0.076552,   0.000924]
    |<r_e - r_h>| [Ang]:            0.002051
    Hole size [Ang]:                1.287247
      Cartesian components [Ang]: [  0.730301,   0.714905,   0.782673]
    Electron size [Ang]:            1.463910
      Cartesian components [Ang]: [  0.854556,   0.831959,   0.848887]

  Transition density matrix analysis:
  -----------------------------------
  
  CT numbers (Mulliken)
    omega =     0.9531
    <Phe> =    -0.1601
  
  Exciton analysis of the transition density matrix
    Trans. dipole moment [D]:             1.840134
      Cartesian components [D]:         [ -1.334259,   1.267158,   0.012494]
    <r_h> [Ang]:                        [ -1.572900,  -0.077433,   0.000833]
    <r_e> [Ang]:                        [ -1.571291,  -0.075745,   0.001009]
    |<r_e - r_h>| [Ang]:                  0.002339
    Hole size [Ang]:                      1.214458
      Cartesian components [Ang]:       [  0.650227,   0.637363,   0.803667]
    Electron size [Ang]:                  1.486788
      Cartesian components [Ang]:       [  0.865070,   0.840898,   0.868954]
    RMS electron-hole separation [Ang]:   1.936372
      Cartesian components [Ang]:       [  1.106354,   1.075904,   1.169594]
    Covariance(r_h, r_e) [Ang^2]:        -0.032044
    Correlation coefficient:             -0.017747
    Center-of-mass size [Ang]:            0.951493
      Cartesian components [Ang]:       [  0.528740,   0.516990,   0.598744]

  Decomposition into state-averaged NTOs
    H- 0 -> L+ 0:  0.6695 ( 89.6%)
    H- 2 -> L+ 5: -0.0821 (  1.3%)
                   omega =  95.3%
  ----------------------------------------------------------------------------


  Excited state 2 (singlet, A)                                     [converged]
  ----------------------------------------------------------------------------
  Term symbol:  3 (1) A                                     R^2 =  3.16711e-13

  Total energy:                                            -77.9865379318 a.u.
  Excitation energy:                                               8.868596 eV

  Osc. strength:                                                      0.007793
  Trans. dip. moment [a.u.]:           [   0.008090,    0.012326,   -0.188809]
  <i|r^2|0> [a.u.]:                    [  -0.007175,   -0.069141,    0.128610]
  Two-photon absorption cross-section (SoS) [a.u.]:                   6.225161
  Two-photon absorption matrix (SoS) [a.u.]:
                                       |   -0.059066   -0.067106    0.600818 |
                                       |   -0.067106   -0.075713    0.631628 |
                                       |    0.600818    0.631628    0.134866 |
  Two-photon absorption cross-section [a.u.]:                         0.010966
  Two-photon absorption matrix [a.u.]:
                                       |    0.001219    0.002725   -0.025498 |
                                       |    0.002725    0.004522   -0.026198 |
                                       |   -0.025498   -0.026198   -0.005633 |

  Dip. moment [a.u.]:                  [  -0.391036,   -0.411162,   -0.043606]
  Total dipole [Debye]:                                               1.446486
  <r^2> [a.u.]:                        [ 175.641205,   36.632197,   12.338586]
  Total <r^2> [a.u.]:                                               224.611989

  V1^2 = 0.9553, V2^2 = 0.0447

  Important amplitudes:
      occ i     occ j     vir a      vir b          v   
    -----------------------------------------------------
     7 (A) A              9 (A) A                 0.5355
     8 (A) A             10 (A) A                 0.3961
     8 (A) A             11 (A) A                -0.1629
     7 (A) A             20 (A) A                -0.0612
     8 (A) A             16 (A) A                -0.0410
     8 (A) A             21 (A) A                 0.0302
     5 (A) A   8 (A) B    9 (A) A    9 (A) B     -0.0238
     8 (A) A             24 (A) A                 0.0222
     8 (A) A             18 (A) A                -0.0188
     8 (A) A   8 (A) B    9 (A) A   12 (A) B     -0.0120
     5 (A) A             28 (A) A                -0.0109
     4 (A) A   7 (A) B    9 (A) A   19 (A) B      0.0106
     5 (A) A   7 (A) B    9 (A) A   16 (A) B      0.0097
     8 (A) A   8 (A) B   10 (A) A   17 (A) B      0.0092
     6 (A) A   8 (A) B    9 (A) A    9 (A) B     -0.0090
     7 (A) A   8 (A) B   20 (A) A   17 (A) B      0.0084
     7 (A) A   8 (A) B   13 (A) A   10 (A) B      0.0083
     5 (A) A   8 (A) B   11 (A) A   10 (A) B     -0.0080
     7 (A) A   8 (A) A    9 (A) A   28 (A) A      0.0078
     5 (A) A   8 (A) B    9 (A) A   20 (A) B      0.0073
     8 (A) A   8 (A) B    9 (A) A   13 (A) B      0.0071
     4 (A) A   6 (A) B    9 (A) A   16 (A) B      0.0071
     5 (A) A   6 (A) A    9 (A) A   14 (A) A     -0.0071
     6 (A) A   8 (A) B   10 (A) A   10 (A) B      0.0069
     8 (A) A   7 (A) B    9 (A) A   28 (A) B     -0.0068
     5 (A) A   6 (A) A    9 (A) A   23 (A) A     -0.0065
     4 (A) A   5 (A) A    9 (A) A   10 (A) A     -0.0065
     4 (A) A   8 (A) B    9 (A) A   25 (A) B     -0.0063
     6 (A) A   7 (A) B    9 (A) A   18 (A) B      0.0063
     3 (A) A   7 (A) B    9 (A) A   18 (A) B      0.0062
     7 (A) A   8 (A) B   19 (A) A   18 (A) B      0.0062
     4 (A) A   8 (A) B   12 (A) A   10 (A) B     -0.0060
     6 (A) A             28 (A) A                -0.0059
     7 (A) A   8 (A) B   17 (A) A   20 (A) B      0.0059
     5 (A) A   6 (A) B    9 (A) A   19 (A) B      0.0059
     6 (A) A   8 (A) A   10 (A) A   15 (A) A      0.0058
     4 (A) A   7 (A) B   19 (A) A    9 (A) B      0.0058
     5 (A) A   7 (A) A    9 (A) A   16 (A) A      0.0056
     4 (A) A   8 (A) A   10 (A) A   12 (A) A      0.0056
     7 (A) A   8 (A) A   10 (A) A   22 (A) A     -0.0054
    -----------------------------------------------------

  Density matrix analysis:
  ------------------------
  NOs
    Occupation of frontier NOs:
       0.6213   1.3803
    Number of electrons: 16.000000
    Number of unpaired electrons: n_u =  2.35391, n_u,nl =  2.34157
    NO participation ratio (PR_NO):  4.973583
  
  
  Mulliken Population Analysis
  Atom      Charge (e)              h+              e-           Del q
  --------------------------------------------------------------------
   1 H       -0.008640        0.111591       -0.183689       -0.072098
   2 C       -0.098710        0.325040       -0.318362        0.006678
   3 H        0.107314        0.077391       -0.011977        0.065414
   4 C       -0.098655        0.324968       -0.318329        0.006639
   5 H       -0.008632        0.111493       -0.183574       -0.072080
   6 H        0.107324        0.077413       -0.011966        0.065446
  --------------------------------------------------------------------
  Sum:        0.000000        1.027896       -1.027896       -0.000000
  
  Multipole moment analysis of the density matrix
    Molecular charge:                      0.000000
    Number of electrons:                   16.000000
      Center of electronic charge [Ang]: [ -1.552471,  -0.055958,   0.003117]
    Total nuclear charge:                  16.000000
      Center of nuclear charge [Ang]:    [ -1.565404,  -0.069557,   0.001674]
    Dipole moment [D]:                     1.446485
      Cartesian components [D]:          [ -0.993914,  -1.045069,  -0.110836]
    RMS size of the density [Ang]:         1.231991
      Cartesian components [Ang]:        [  0.814780,   0.798747,   0.464691]
  
  Exciton analysis of the difference density matrix
    <r_h> [Ang]:                  [ -1.497227,   0.001931,   0.009266]
    <r_e> [Ang]:                  [ -1.305345,   0.203707,   0.030671]
    |<r_e - r_h>| [Ang]:            0.279268
    Hole size [Ang]:                1.476647
      Cartesian components [Ang]: [  0.951721,   0.938507,   0.627630]
    Electron size [Ang]:            1.734930
      Cartesian components [Ang]: [  1.099758,   1.086479,   0.787449]

  Transition density matrix analysis:
  -----------------------------------
  
  CT numbers (Mulliken)
    omega =     0.9220
    <Phe> =    -0.0062
  
  Exciton analysis of the transition density matrix
    Trans. dipole moment [D]:             0.240683
      Cartesian components [D]:         [  0.010281,   0.015664,  -0.239952]
    <r_h> [Ang]:                        [ -1.507679,  -0.009075,   0.008100]
    <r_e> [Ang]:                        [ -1.292454,   0.217255,   0.032108]
    |<r_e - r_h>| [Ang]:                  0.313247
    Hole size [Ang]:                      1.422871
      Cartesian components [Ang]:       [  0.915341,   0.902560,   0.609998]
    Electron size [Ang]:                  1.750057
      Cartesian components [Ang]:       [  1.107580,   1.093904,   0.799587]
    RMS electron-hole separation [Ang]:   2.279381
      Cartesian components [Ang]:       [  1.453847,   1.439367,   1.005051]
    Covariance(r_h, r_e) [Ang^2]:        -0.005096
    Correlation coefficient:             -0.002047
    Center-of-mass size [Ang]:            1.126617
      Cartesian components [Ang]:       [  0.717951,   0.707448,   0.503320]

  Decomposition into state-averaged NTOs
    H- 1 -> L+ 0:  0.5292 ( 56.0%)
    H- 0 -> L+ 2:  0.3446 ( 23.7%)
    H- 0 -> L+ 1:  0.2471 ( 12.2%)
                   omega =  92.2%
  ----------------------------------------------------------------------------


  Excited state 3 (singlet, A)                                     [converged]
  ----------------------------------------------------------------------------
  Term symbol:  4 (1) A                                     R^2 =  4.38770e-13

  Total energy:                                            -77.9793361975 a.u.
  Excitation energy:                                               9.064566 eV

  Osc. strength:                                                      0.009158
  Trans. dip. moment [a.u.]:           [  -0.010026,   -0.011951,    0.202465]
  <i|r^2|0> [a.u.]:                    [  -0.093851,   -0.049207,    0.079332]
  Two-photon absorption cross-section (SoS) [a.u.]:                   1.187614
  Two-photon absorption matrix (SoS) [a.u.]:
                                       |    0.026966    0.029353   -0.262543 |
                                       |    0.029353    0.031881   -0.275772 |
                                       |   -0.262543   -0.275772   -0.058976 |
  Two-photon absorption cross-section [a.u.]:                         2.206345
  Two-photon absorption matrix [a.u.]:
                                       |    0.035689    0.039977   -0.357924 |
                                       |    0.039977    0.044480   -0.375811 |
                                       |   -0.357924   -0.375811   -0.080320 |

  Dip. moment [a.u.]:                  [  -0.402864,   -0.423276,   -0.044918]
  Total dipole [Debye]:                                               1.489645
  <r^2> [a.u.]:                        [ 177.253750,   38.372043,   11.845446]
  Total <r^2> [a.u.]:                                               227.471239

  V1^2 = 0.9569, V2^2 = 0.0431

  Important amplitudes:
      occ i     occ j     vir a      vir b          v   
    -----------------------------------------------------
     8 (A) A             10 (A) A                -0.5491
     7 (A) A              9 (A) A                 0.4126
     7 (A) A             20 (A) A                -0.0453
     8 (A) A             24 (A) A                -0.0375
     8 (A) A             11 (A) A                 0.0291
     4 (A) A              9 (A) A                -0.0278
     8 (A) A             18 (A) A                 0.0241
     8 (A) A             21 (A) A                -0.0205
     5 (A) A   8 (A) B    9 (A) A    9 (A) B     -0.0188
     8 (A) A   8 (A) B    9 (A) A   12 (A) B      0.0172
     8 (A) A             16 (A) A                 0.0171
     8 (A) A   8 (A) B   10 (A) A   17 (A) B     -0.0133
     5 (A) A   8 (A) B   11 (A) A   10 (A) B      0.0118
     7 (A) A   8 (A) B   13 (A) A   10 (A) B     -0.0112
     5 (A) A             28 (A) A                -0.0102
     8 (A) A             15 (A) A                -0.0092
     6 (A) A   8 (A) B   10 (A) A   10 (A) B     -0.0090
     4 (A) A   8 (A) B   12 (A) A   10 (A) B      0.0086
     6 (A) A   8 (A) A   10 (A) A   15 (A) A     -0.0085
     6 (A) A   8 (A) B   15 (A) A   10 (A) B      0.0083
     4 (A) A   7 (A) B    9 (A) A   19 (A) B      0.0082
     4 (A) A   8 (A) A   10 (A) A   12 (A) A     -0.0082
     7 (A) A   8 (A) B   22 (A) A   10 (A) B     -0.0077
     7 (A) A   8 (A) A   10 (A) A   13 (A) A      0.0076
     5 (A) A   7 (A) B    9 (A) A   16 (A) B      0.0075
     7 (A) A   8 (A) A   10 (A) A   22 (A) A      0.0072
     5 (A) A   8 (A) A   10 (A) A   11 (A) A     -0.0071
     3 (A) A   4 (A) B   10 (A) A    9 (A) B      0.0068
     5 (A) A   8 (A) B   21 (A) A   10 (A) B     -0.0067
     7 (A) A   8 (A) A   12 (A) A   16 (A) A      0.0067
     7 (A) A   8 (A) B   20 (A) A   17 (A) B      0.0066
     6 (A) A   8 (A) A   10 (A) A   18 (A) A     -0.0065
     7 (A) A   8 (A) A    9 (A) A   28 (A) A      0.0062
     5 (A) A   8 (A) A   10 (A) A   21 (A) A      0.0060
     4 (A) A   8 (A) B   19 (A) A   10 (A) B      0.0058
     8 (A) A   8 (A) B   10 (A) A   28 (A) B      0.0057
     8 (A) A   8 (A) B    9 (A) A   19 (A) B      0.0057
     7 (A) A   8 (A) B   16 (A) A   12 (A) B     -0.0056
     5 (A) A   8 (A) B    9 (A) A   20 (A) B      0.0055
     5 (A) A   6 (A) A    9 (A) A   14 (A) A     -0.0055
    -----------------------------------------------------

  Density matrix analysis:
  ------------------------
  NOs
    Occupation of frontier NOs:
       0.6323   1.3320
    Number of electrons: 16.000000
    Number of unpaired electrons: n_u =  2.34551, n_u,nl =  2.32087
    NO participation ratio (PR_NO):  4.821635
  
  
  Mulliken Population Analysis
  Atom      Charge (e)              h+              e-           Del q
  --------------------------------------------------------------------
   1 H       -0.084287        0.082330       -0.230075       -0.147745
   2 C        0.064887        0.392873       -0.222598        0.170276
   3 H        0.019319        0.074562       -0.097142       -0.022580
   4 C        0.064955        0.392823       -0.222573        0.170250
   5 H       -0.084226        0.082281       -0.229955       -0.147674
   6 H        0.019352        0.074573       -0.097098       -0.022526
  --------------------------------------------------------------------
  Sum:        0.000000        1.099441       -1.099441       -0.000000
  
  Multipole moment analysis of the density matrix
    Molecular charge:                      0.000000
    Number of electrons:                   16.000000
      Center of electronic charge [Ang]: [ -1.552080,  -0.055557,   0.003160]
    Total nuclear charge:                  16.000000
      Center of nuclear charge [Ang]:    [ -1.565404,  -0.069557,   0.001674]
    Dipole moment [D]:                     1.489644
      Cartesian components [D]:          [ -1.023979,  -1.075859,  -0.114170]
    RMS size of the density [Ang]:         1.252638
      Cartesian components [Ang]:        [  0.832649,   0.817614,   0.455309]
  
  Exciton analysis of the difference density matrix
    <r_h> [Ang]:                  [ -1.546788,  -0.050094,   0.003742]
    <r_e> [Ang]:                  [ -1.361699,   0.144382,   0.024385]
    |<r_e - r_h>| [Ang]:            0.269268
    Hole size [Ang]:                1.459603
      Cartesian components [Ang]: [  0.907562,   0.894290,   0.712051]
    Electron size [Ang]:            1.921053
      Cartesian components [Ang]: [  1.246546,   1.242374,   0.770112]

  Transition density matrix analysis:
  -----------------------------------
  
  CT numbers (Mulliken)
    omega =     0.9238
    <Phe> =    -0.0186
  
  Exciton analysis of the transition density matrix
    Trans. dipole moment [D]:             0.258071
      Cartesian components [D]:         [ -0.012742,  -0.015188,   0.257308]
    <r_h> [Ang]:                        [ -1.558315,  -0.062210,   0.002455]
    <r_e> [Ang]:                        [ -1.334967,   0.172448,   0.027365]
    |<r_e - r_h>| [Ang]:                  0.324915
    Hole size [Ang]:                      1.341694
      Cartesian components [Ang]:       [  0.813905,   0.801590,   0.703673]
    Electron size [Ang]:                  1.985868
      Cartesian components [Ang]:       [  1.286431,   1.282513,   0.802452]
    RMS electron-hole separation [Ang]:   2.407842
      Cartesian components [Ang]:       [  1.529934,   1.522955,   1.066589]
    Covariance(r_h, r_e) [Ang^2]:         0.025842
    Correlation coefficient:              0.009699
    Center-of-mass size [Ang]:            1.203692
      Cartesian components [Ang]:       [  0.765487,   0.760007,   0.534130]

  Decomposition into state-averaged NTOs
    H- 0 -> L+ 1: -0.4453 ( 39.7%)
    H- 1 -> L+ 0:  0.4081 ( 33.3%)
    H- 0 -> L+ 2: -0.3099 ( 19.2%)
                   omega =  92.4%
  ----------------------------------------------------------------------------


  Excited state 4 (singlet, A)                                     [converged]
  ----------------------------------------------------------------------------
  Term symbol:  5 (1) A                                     R^2 =  4.49063e-13

  Total energy:                                            -77.9507449652 a.u.
  Excitation energy:                                               9.842573 eV

  Osc. strength:                                                      0.008871
  Trans. dip. moment [a.u.]:           [   0.009030,    0.011698,   -0.191233]
  <i|r^2|0> [a.u.]:                    [   0.070920,    0.026350,   -0.039566]
  Two-photon absorption cross-section (SoS) [a.u.]:                 140.104928
  Two-photon absorption matrix (SoS) [a.u.]:
                                       |    0.275266    0.317977   -2.850799 |
                                       |    0.317977    0.364312   -2.996029 |
                                       |   -2.850799   -2.996029   -0.639562 |
  Two-photon absorption cross-section [a.u.]:                        86.728910
  Two-photon absorption matrix [a.u.]:
                                       |    0.217317    0.250209   -2.243071 |
                                       |    0.250209    0.285930   -2.357126 |
                                       |   -2.243071   -2.357126   -0.503203 |

  Dip. moment [a.u.]:                  [   0.991421,    1.043297,    0.110622]
  Total dipole [Debye]:                                               3.668949
  <r^2> [a.u.]:                        [ 188.303456,   41.547957,   10.873462]
  Total <r^2> [a.u.]:                                               240.724875

  V1^2 = 0.9630, V2^2 = 0.0370

  Important amplitudes:
      occ i     occ j     vir a      vir b          v   
    -----------------------------------------------------
     8 (A) A             11 (A) A                 0.6660
     8 (A) A             10 (A) A                 0.1238
     7 (A) A              9 (A) A                 0.1151
     8 (A) A             21 (A) A                -0.0698
     8 (A) A             16 (A) A                 0.0574
     8 (A) A             24 (A) A                 0.0262
     5 (A) A   8 (A) B   11 (A) A   11 (A) B     -0.0163
     8 (A) A   8 (A) B    9 (A) A   13 (A) B     -0.0157
     8 (A) A             15 (A) A                 0.0155
     8 (A) A   8 (A) B   11 (A) A   17 (A) B      0.0144
     7 (A) A   8 (A) B   13 (A) A   11 (A) B      0.0128
     4 (A) A   8 (A) B   12 (A) A   11 (A) B     -0.0113
     5 (A) A   8 (A) A   11 (A) A   21 (A) A     -0.0105
     7 (A) A             20 (A) A                -0.0101
     6 (A) A   8 (A) B   15 (A) A   11 (A) B     -0.0092
     8 (A) A             18 (A) A                -0.0089
     7 (A) A   8 (A) A   11 (A) A   22 (A) A     -0.0086
     8 (A) A   8 (A) B    9 (A) A   22 (A) B     -0.0086
     6 (A) A   8 (A) A   11 (A) A   15 (A) A      0.0084
     6 (A) A   8 (A) B   10 (A) A   11 (A) B      0.0083
     7 (A) A   8 (A) B   22 (A) A   11 (A) B      0.0082
     3 (A) A   4 (A) B   11 (A) A    9 (A) B     -0.0081
     3 (A) A   8 (A) B   11 (A) A   18 (A) B     -0.0078
     7 (A) A   8 (A) A   11 (A) A   13 (A) A     -0.0078
     8 (A) A   8 (A) B    9 (A) A   12 (A) B     -0.0078
     5 (A) A   8 (A) B   21 (A) A   11 (A) B      0.0073
     4 (A) A   8 (A) B   19 (A) A   11 (A) B     -0.0067
     7 (A) A   8 (A) A   13 (A) A   16 (A) A     -0.0067
     4 (A) A   8 (A) A   11 (A) A   12 (A) A      0.0067
     8 (A) A   8 (A) B    9 (A) A   23 (A) B     -0.0061
     6 (A) A   8 (A) A   11 (A) A   18 (A) A      0.0058
     3 (A) A   6 (A) B   11 (A) A   28 (A) B      0.0057
     3 (A) A   8 (A) A   11 (A) A   24 (A) A     -0.0056
     3 (A) A   8 (A) A   11 (A) A   18 (A) A     -0.0055
     6 (A) A   8 (A) B   18 (A) A   11 (A) B     -0.0055
     3 (A) A   8 (A) B   11 (A) A   30 (A) B     -0.0053
     3 (A) A   5 (A) B   11 (A) A   25 (A) B     -0.0052
     3 (A) A   8 (A) B   10 (A) A   11 (A) B      0.0051
     7 (A) A   8 (A) B   11 (A) A   13 (A) B      0.0049
     5 (A) A   8 (A) B   11 (A) A   10 (A) B     -0.0049
    -----------------------------------------------------

  Density matrix analysis:
  ------------------------
  NOs
    Occupation of frontier NOs:
       0.9611   1.0084
    Number of electrons: 16.000000
    Number of unpaired electrons: n_u =  2.32086, n_u,nl =  2.03753
    NO participation ratio (PR_NO):  2.808835
  
  
  Mulliken Population Analysis
  Atom      Charge (e)              h+              e-           Del q
  --------------------------------------------------------------------
   1 H        0.057949        0.047173       -0.052682       -0.005509
   2 C        0.305310        0.513373       -0.102674        0.410698
   3 H       -0.363329        0.046778       -0.452006       -0.405228
   4 C        0.305367        0.513334       -0.102673        0.410662
   5 H        0.057913        0.047161       -0.052696       -0.005536
   6 H       -0.363209        0.046784       -0.451872       -0.405087
  --------------------------------------------------------------------
  Sum:        0.000000        1.214603       -1.214603       -0.000000
  
  Multipole moment analysis of the density matrix
    Molecular charge:                      0.000000
    Number of electrons:                   16.000000
      Center of electronic charge [Ang]: [ -1.598194,  -0.104062,  -0.001984]
    Total nuclear charge:                  16.000000
      Center of nuclear charge [Ang]:    [ -1.565404,  -0.069557,   0.001674]
    Dipole moment [D]:                     3.668948
      Cartesian components [D]:          [  2.519940,   2.651796,   0.281174]
    RMS size of the density [Ang]:         1.283767
      Cartesian components [Ang]:        [  0.861059,   0.846365,   0.436235]
  
  Exciton analysis of the difference density matrix
    <r_h> [Ang]:                  [ -1.592609,  -0.098215,  -0.001368]
    <r_e> [Ang]:                  [ -2.032530,  -0.561133,  -0.050447]
    |<r_e - r_h>| [Ang]:            0.640494
    Hole size [Ang]:                1.400556
      Cartesian components [Ang]: [  0.824166,   0.810639,   0.790678]
    Electron size [Ang]:            2.014097
      Cartesian components [Ang]: [  1.343758,   1.331895,   0.690622]

  Transition density matrix analysis:
  -----------------------------------
  
  CT numbers (Mulliken)
    omega =     0.9294
    <Phe> =    -0.0123
  
  Exciton analysis of the transition density matrix
    Trans. dipole moment [D]:             0.243758
      Cartesian components [D]:         [  0.011476,   0.014866,  -0.243033]
    <r_h> [Ang]:                        [ -1.571930,  -0.076434,   0.000939]
    <r_e> [Ang]:                        [ -2.139646,  -0.673854,  -0.062399]
    |<r_e - r_h>| [Ang]:                  0.826573
    Hole size [Ang]:                      1.221532
      Cartesian components [Ang]:       [  0.650566,   0.638078,   0.813487]
    Electron size [Ang]:                  2.132238
      Cartesian components [Ang]:       [  1.420592,   1.406337,   0.742006]
    RMS electron-hole separation [Ang]:   2.580657
      Cartesian components [Ang]:       [  1.653066,   1.646974,   1.102107]
    Covariance(r_h, r_e) [Ang^2]:         0.031007
    Correlation coefficient:              0.011905
    Center-of-mass size [Ang]:            1.234969
      Cartesian components [Ang]:       [  0.786179,   0.776891,   0.550918]

  Decomposition into state-averaged NTOs
    H- 0 -> L+ 2: -0.4983 ( 49.7%)
    H- 0 -> L+ 1:  0.4505 ( 40.6%)
    H- 1 -> L+ 0:  0.1133 (  2.6%)
                   omega =  92.9%
  ----------------------------------------------------------------------------


  Excited state 5 (singlet, A)                                     [converged]
  ----------------------------------------------------------------------------
  Term symbol:  6 (1) A                                     R^2 =  3.69214e-13

  Total energy:                                            -77.9398651329 a.u.
  Excitation energy:                                              10.138628 eV

  Osc. strength:                                                      0.000000
  Trans. dip. moment [a.u.]:           [   0.000040,    0.000029,    0.000104]
  <i|r^2|0> [a.u.]:                    [  -0.080473,    0.096322,   -0.015711]
  Two-photon absorption cross-section (SoS) [a.u.]:                 205.728367
  Two-photon absorption matrix (SoS) [a.u.]:
[...]
    16   -9.831945460930e-04
    17   -1.864067065489e-03
    18    5.546123156619e-03
    19   -1.686699512507e-03
    20   -3.041107082053e-03
    21    7.118905968402e-01
    22   -2.229053527609e-03
    23    1.181153497377e-02
    24    6.077381012830e-04
    25    6.867255332049e-02
    26   -5.187136098401e-02
    27   -1.325301952737e+00
    28    5.975227162486e-02
    29   -1.350282854389e-01
    30   -5.310517366464e-03
    31    2.694008582675e-01
    32   -4.599302257203e-01
    33   -1.494075811631e-02
    34    1.373104555460e-02
    35   -1.539212935082e-03
    36   -1.230797108335e-03
    37   -5.365758851143e-03
    38   -2.240957842316e-03
    39    3.125880000138e-02
    40    1.072320584250e+00
    41   -5.871237097423e-04
    42   -1.338074284424e-02
    43   -8.372213748364e-04
    44   -3.064329446722e-03
    45    7.116291950121e-01
    46    1.191207683177e-02
    47   -1.621170090732e-03
    48    4.726183679143e-04
Sym=X
Ene= 0.231584
Spin=Alpha
Occup=0
     1   -3.621689718540e-02
     2   -8.898725313878e-01
     3    7.200057768199e-03
     4    1.657822747036e-03
     5    4.458886303264e-04
     6    1.468429065770e-02
     7   -9.021064840908e-03
     8   -4.277276105983e-01
     9    1.344056036068e-01
    10    1.722600005629e-01
    11    1.687450632944e-02
    12    4.194212908383e-01
    13    6.395249752050e-01
    14    5.884506682058e-02
    15    7.061233120405e-03
    16   -8.297616498407e-04
    17   -9.147006595111e-04
    18   -2.123575596959e-04
    19   -3.736639928021e-03
    20    1.884099443827e-02
    21    1.423633025579e+00
    22    3.720959861620e-03
    23    1.877944950779e-02
    24    1.314481940585e-03
    25    1.466820649489e-02
    26   -8.993897370628e-03
    27   -4.275954753544e-01
    28    1.652454736227e-01
    29    1.429266283563e-01
    30    1.655673350339e-02
    31    6.174522919148e-01
    32    4.513612634394e-01
    33    5.684970516888e-02
    34    7.061384463682e-03
    35   -7.831411899040e-04
    36   -9.552540824699e-04
    37    5.859321583766e-04
    38   -3.694077722533e-03
    39   -3.621664155620e-02
    40   -8.900306682590e-01
    41    1.292563653264e-03
    42    7.272819206164e-03
    43    5.014486620309e-04
    44    1.884596273207e-02
    45    1.423435833248e+00
    46    1.857357737402e-02
    47    4.670034660421e-03
    48    1.172709942301e-03
Sym=X
Ene= 0.236293
Spin=Alpha
Occup=0
     1   -1.583314914071e-02
     2   -1.035981902722e+00
     3    1.363922346014e-02
     4    9.604702757863e-03
     5    1.235109738810e-03
     6   -8.687536659165e-02
     7    8.269875792393e-02
     8    1.540460877267e+00
     9    7.300769724963e-02
    10   -4.126130510334e-02
    11    1.007671667927e-03
    12    2.586682254193e-01
    13   -2.192515576112e-01
    14   -8.358312458144e-04
    15   -2.087895304080e-02
    16    2.428867675766e-03
    17    2.848492495954e-03
    18   -1.094278158600e-03
    19    1.207741636490e-02
    20   -2.429420034675e-02
    21   -1.109361637360e+00
    22   -7.697702279117e-03
    23   -1.773671521037e-02
    24   -1.442315781422e-03
    25    8.689521677733e-02
    26   -8.271247020265e-02
    27   -1.541044957877e+00
    28    4.499036651806e-02
    29   -7.076172164230e-02
    30   -2.131097043304e-03
    31    2.324617245139e-01
    32   -2.470525711161e-01
    33   -3.818463991797e-03
    34    2.089126057155e-02
    35   -2.478101905818e-03
    36   -2.792209779192e-03
    37    1.077430762762e-04
    38   -1.213203234248e-02
    39    1.581338840780e-02
    40    1.036273824459e+00
    41   -8.902579230735e-03
    42   -1.411371786387e-02
    43   -1.280958114637e-03
    44    2.428008651666e-02
    45    1.109807529095e+00
    46    1.733789659470e-02
    47    8.591961422790e-03
    48    1.349792344716e-03
Sym=X
Ene= 0.302188
Spin=Alpha
Occup=0
     1   -1.117081911992e-02
     2    1.546582047895e+00
     3   -2.183125036146e-02
     4    1.631966570622e-03
     5   -9.511601977649e-04
     6   -1.188843009169e-03
     7   -2.478348484300e-03
     8    2.065047635173e-01
     9   -1.369840861405e-01
    10   -1.418672767428e-01
    11   -1.515833672094e-02
    12   -1.104443124239e+00
    13   -1.192918243919e+00
    14   -1.251403281403e-01
    15   -4.113384304175e-03
    16   -1.171619244566e-03
    17    2.539259909007e-03
    18   -3.356052494251e-02
    19    1.539047614509e-03
    20    2.929777715743e-02
    21   -1.768358249654e+00
    22    8.153712646222e-04
    23   -2.415035441896e-02
    24   -1.419869557944e-03
    25    1.187956730523e-03
    26    2.474382645615e-03
    27   -2.063166738122e-01
    28    1.347676343217e-01
    29    1.439954542343e-01
    30    1.516293208468e-02
    31    1.135702648564e+00
    32    1.163459183824e+00
    33    1.247971202543e-01
    34    4.172012419524e-03
    35   -2.240606381260e-03
    36    1.334764155258e-03
    37   -3.324508701207e-02
    38   -4.948383627053e-03
    39    1.120368049177e-02
    40   -1.546994017818e+00
    41   -2.744215525059e-03
    42    2.171274237001e-02
    43    1.179218670589e-03
    44   -2.930016146895e-02
    45    1.768549345261e+00
    46    2.417358012123e-02
    47    4.151531678801e-04
    48    1.185548169343e-03
Sym=X
Ene= 0.463148
Spin=Alpha
Occup=0
     1   -1.265643215375e-01
     2   -5.500527181612e-01
     3   -1.526065758162e-02
     4   -1.021691710957e-02
     5   -1.351351962753e-03
     6    6.264386108687e-02
     7    1.601056301680e-02
     8   -3.633945604516e+00
     9    1.062138040240e-01
    10   -9.753790165179e-02
    11   -8.110274478239e-04
    12    2.351768766835e+00
    13   -2.403939628597e+00
    14   -3.212467376264e-02
    15    5.276374986879e-02
    16   -3.422164896006e-03
    17   -4.304099168081e-03
    18   -4.647000289989e-03
    19    2.008492560918e-02
    20   -1.021300845747e-01
    21   -8.596108664245e-01
    22    1.016251781819e-02
    23    1.535335716574e-02
    24    1.416098870695e-03
    25   -6.263946014565e-02
    26   -1.601685809645e-02
    27    3.633745640775e+00
    28    1.028679802427e-01
    29   -1.010171128130e-01
    30   -1.188032462807e-03
    31    2.521986490882e+00
    32   -2.225044590623e+00
    33   -1.316959993631e-02
    34   -5.275454161035e-02
    35    3.053381928909e-03
    36    4.710248199641e-03
    37   -2.472665980311e-03
    38   -2.044132277986e-02
    39    1.264760281492e-01
    40    5.503493891782e-01
    41    9.439011661995e-03
    42    1.575058545417e-02
    43    1.403354726442e-03
    44    1.021963467551e-01
    45    8.595187569890e-01
    46   -1.482790548394e-02
    47   -1.091765112616e-02
    48   -1.371405966768e-03
Sym=X
Ene= 0.579142
Spin=Alpha
Occup=0
     1    1.466502801980e-01
     2    4.901910105510e-02
     3   -3.480843583512e-02
     4    3.538762970999e-02
     5    4.663648104419e-04
     6   -6.273649002875e-03
     7   -1.643538992753e-01
     8   -4.395675354072e-01
     9    2.983910559019e-01
    10   -2.951834350953e-01
    11   -3.484698700454e-03
    12   -6.745792938984e-01
    13    7.877178797080e-01
    14    1.520737474035e-02
    15    6.577669179062e-04
    16    2.412942130571e-03
    17    3.939085055098e-03
    18   -2.066918760927e-02
    19    5.699962187247e-02
    20    3.034184542523e-01
    21    8.513368253611e-02
    22   -1.769641225759e-02
    23    8.449382277965e-03
    24   -3.392281501823e-04
    25   -6.266311681118e-03
    26   -1.643409700452e-01
    27   -4.400552375203e-01
    28   -3.102161969487e-01
    29    2.827553701430e-01
    30    2.165313485543e-03
    31    8.213779369268e-01
    32   -6.328441894808e-01
    33    1.192520577461e-03
    34    6.347590908272e-04
    35    4.224155614115e-03
    36    1.883693800150e-03
    37    1.478064932066e-02
    38    5.881079715505e-02
    39    1.465893608415e-01
    40    4.911387174546e-02
    41    3.712194430064e-02
    42   -3.293475817593e-02
    43   -2.079202160600e-04
    44    3.034673224604e-01
    45    8.499137876225e-02
    46    9.335019586540e-03
    47   -1.722806629847e-02
    48   -5.929910296092e-04
Sym=X
Ene= 0.608522
Spin=Alpha
Occup=0
     1   -6.190721557675e-01
     2    3.589705363274e-01
     3   -5.865902975755e-02
     4    2.880390405986e-02
     5   -1.076479670012e-03
     6   -5.750585772562e-04
     7    4.301472866700e-02
     8   -6.095754648412e-02
     9   -5.835218741820e-02
    10   -9.774860245784e-03
    11   -3.393947260467e-03
    12    3.096113557193e-01
    13    1.910350428831e-01
    14    2.644408662937e-02
    15    1.966304804477e-02
    16   -1.027455056058e-02
    17    5.341560317398e-03
    18   -1.447165581950e-01
    19   -2.782952395130e-02
    20    4.027605952859e-01
    21   -1.588303322633e-01
    22    4.486742023614e-02
    23   -5.357139894850e-02
    24   -1.081000013139e-03
    25   -5.834464623303e-04
    26    4.299204813014e-02
    27   -6.147523216169e-02
    28   -6.789146381538e-03
    29   -5.881066554381e-02
    30   -3.875125331153e-03
    31    1.747469690769e-01
    32    3.195206662411e-01
    33    2.765857925926e-02
    34    1.942346579899e-02
    35    4.621596301093e-03
    36   -1.155224589642e-02
    37    1.467408639189e-01
    38   -1.291504347011e-02
    39   -6.190935217839e-01
    40    3.585270573067e-01
    41    3.176328759358e-02
    42   -5.708783868596e-02
    43   -1.925269609027e-03
    44    4.026360491799e-01
    45   -1.587577583034e-01
    46   -5.580498725684e-02
    47    4.205709351894e-02
    48   -1.383717081937e-04
Sym=X
Ene= 0.688117
Spin=Alpha
Occup=0
     1    3.934617092293e-05
     2    1.642250013615e-05
     3    4.580001971821e-04
     4    5.835312263562e-04
     5   -9.534810322842e-03
     6    1.852663902820e-06
     7   -8.077548462921e-06
     8    6.096372253365e-05
     9    3.217556654826e-02
    10    4.047166886616e-02
    11   -6.696963352480e-01
    12   -2.954484646162e-02
    13   -3.691833204995e-02
    14    6.127794500226e-01
    15   -1.468330922459e-03
    16    8.204501139730e-02
    17   -7.922900514800e-02
    18   -8.722983510809e-03
    19   -1.131744341801e-03
    20    3.563860960609e-05
    21    8.242690547279e-05
    22    1.374108496738e-03
    23    1.733921396214e-03
    24   -2.864322917662e-02
    25   -7.793540872671e-07
    26    2.888029504461e-05
    27   -7.582072239597e-05
    28    3.215143131248e-02
    29    4.043757034907e-02
    30   -6.696897128072e-01
    31   -2.953303884004e-02
    32   -3.689981216212e-02
    33    6.127826863604e-01
    34    1.191900505489e-03
    35   -8.343396973674e-02
    36    7.777305691449e-02
    37    8.713824177468e-03
    38    1.289613170417e-03
    39   -2.734516034694e-05
    40   -3.124152912840e-05
    41    4.530313697616e-04
    42    5.811085038347e-04
    43   -9.553796500353e-03
    44   -1.691424496957e-05
    45   -9.079623878046e-05
    46    1.366382865380e-03
    47    1.731130750945e-03
    48   -2.865101140718e-02
Sym=X
Ene= 0.706489
Spin=Alpha
Occup=0
     1   -4.369669016528e-01
     2    2.864667321571e-01
     3   -7.160130186890e-02
     4   -5.271552840522e-02
     5   -6.630728359048e-03
     6   -4.616163415010e-02
     7   -3.052950457914e-01
     8    4.999653326730e-01
     9    2.373775680051e-01
    10   -1.415979799500e-01
    11    2.839253148404e-03
    12   -2.014061080276e-01
    13   -1.082792104675e-01
    14   -1.628851933533e-02
    15    1.883164401235e-01
    16   -1.952261178180e-02
    17   -2.431154130928e-02
    18    1.514191809385e-02
    19   -7.381528111249e-02
    20   -5.251211325084e-01
    21   -1.022901430141e-04
    22    3.135730312809e-02
    23    8.480731023725e-02
    24    6.626255213170e-03
    25   -4.611684591405e-02
    26   -3.054568949222e-01
    27    4.998013794640e-01
    28   -1.536689810742e-01
    29    2.297350044954e-01
    30    6.480016451080e-03
    31   -9.818608780437e-02
    32   -2.063055406718e-01
    33   -1.707420053847e-02
    34    1.882383674540e-01
    35   -2.067807412098e-02
    36   -2.295529318843e-02
    37   -7.865997239133e-03
    38   -7.498373295198e-02
    39   -4.365652679921e-01
    40    2.859561345078e-01
    41   -4.900962131330e-02
    42   -7.412210305996e-02
    43   -6.824282542287e-03
    44   -5.248499449312e-01
    45   -4.884331674516e-04
    46    8.308318152073e-02
    47    3.562097050355e-02
    48    6.143342796913e-03
Sym=X
Ene= 0.771339
Spin=Alpha
Occup=0
     1   -5.988071853598e-01
     2    7.217030262044e-01
     3   -1.218823312192e-01
     4   -2.640480764774e-02
     5   -7.453657069465e-03
     6   -8.703319665175e-02
     7    2.256454348702e-01
     8    5.859051050649e-01
     9   -1.395972382547e-02
    10    1.775787036460e-01
    11    1.002776104480e-02
    12   -5.245406621912e-01
    13    5.996229451380e-02
    14   -2.156053121899e-02
    15    1.954377913388e-01
    16   -1.769778621574e-02
    17   -2.015221384984e-02
    18   -1.514392799927e-02
    19   -1.002657100883e-02
    20   -4.666633160907e-01
    21    2.318751522163e-01
    22    2.305186556370e-02
    23    8.940525707093e-02
    24    6.509510922884e-03
    25    8.706939779295e-02
    26   -2.252503434218e-01
    27   -5.865844096300e-01
    28   -1.780090137211e-01
    29    4.842808140227e-03
    30   -8.263999242848e-03
    31   -8.663897327008e-02
    32    5.204927068379e-01
    33    2.723931041323e-02
    34   -1.955574007362e-01
    35    1.611333479116e-02
    36    2.194182464539e-02
    37   -1.570115390230e-02
    38    8.495647808770e-03
    39    5.989458055351e-01
    40   -7.215492469389e-01
    41    2.018687682967e-02
    42    1.230399581191e-01
    43    8.397835900662e-03
    44    4.670077271365e-01
    45   -2.318620586713e-01
    46   -8.823631952867e-02
    47   -2.759726994293e-02
    48   -5.903340561721e-03
Sym=X
Ene= 0.806780
Spin=Alpha
Occup=0
     1    1.128832772309e-05
     2    3.454730314002e-05
     3    1.025566659341e-03
     4    1.295758652624e-03
     5   -2.149244199585e-02
     6    2.931482496387e-06
     7   -2.901677560745e-05
     8    1.850496743610e-05
     9    3.669947873374e-02
    10    4.611410136451e-02
    11   -7.631735817747e-01
    12   -5.406689857851e-02
    13   -6.794426128242e-02
    14    1.124303445973e+00
    15    9.580217979632e-04
    16   -6.531344280911e-02
    17    6.113224590021e-02
    18    6.821838525230e-03
    19    9.983461207870e-04
    20    4.712233713588e-06
    21   -4.128595219513e-05
    22    1.985660012384e-03
    23    2.503380674164e-03
    24   -4.143622732603e-02
    25    3.494252873316e-07
    26   -2.357337267839e-05
    27    1.281855006341e-05
    28   -3.662936245868e-02
    29   -4.606536209771e-02
    30    7.631816420908e-01
    31    5.397289385445e-02
    32    6.784257419982e-02
    33   -1.124325214937e+00
    34    1.130132240576e-03
    35   -6.447363685776e-02
    36    6.201093470586e-02
    37    6.853858283546e-03
    38    9.091003764934e-04
    39   -5.189117767296e-06
    40    6.282257764716e-05
    41   -1.033139211743e-03
    42   -1.312859058154e-03
    43    2.150538835725e-02
    44   -5.121226180188e-06
    45   -2.799938652233e-05
    46   -1.984844200441e-03
    47   -2.510449405162e-03
    48    4.145172740102e-02
Sym=X
Ene= 0.859034
Spin=Alpha
Occup=0
     1   -4.866868573279e-03
     2   -1.067869073211e+00
     3    1.415425743351e-01
     4    5.697755018823e-02
     5    1.023649309853e-02
     6   -6.632470549472e-03
     7   -1.439376763584e-01
     8    1.171568342801e-01
     9   -4.254976082458e-01
    10   -4.155073121232e-01
    11   -4.558243049692e-02
    12    9.506758496472e-01
    13    9.449328322015e-01
    14    1.028367374284e-01
    15    3.368864906618e-02
    16    8.406221278564e-03
    17   -1.702482814809e-02
    18    2.271715200840e-01
    19    5.541678926802e-03
    20   -3.194559260818e-02
    21    1.043709511259e+00
    22    4.469883760937e-02
    23    1.498087329423e-01
    24    1.120402442249e-02
    25   -6.605580764340e-03
    26   -1.439947469611e-01
    27    1.173216175279e-01
    28   -3.934090061964e-01
    29   -4.456274732337e-01
    30   -4.577059473276e-02
    31    8.955986595709e-01
    32    9.967373782416e-01
    33    1.031333423779e-01
    34    3.401269793372e-02
    35   -1.478315269393e-02
    36    9.278311140569e-03
    37   -2.266004622536e-01
    38   -1.769861439529e-02
    39   -4.882520599028e-03
    40   -1.067672728154e+00
    41    4.970088321389e-02
    42    1.441683935839e-01
    43    1.110144705155e-02
    44   -3.173465700503e-02
    45    1.043523947531e+00
    46    1.473334482367e-01
    47    5.227879084848e-02
    48    1.022517877682e-02
Sym=X
Ene= 0.926957
Spin=Alpha
Occup=0
     1    8.622259217546e-02
     2   -1.295942093007e+00
     3    1.695860792470e-01
     4    2.362186536678e-02
     5    9.577993869345e-03
     6   -2.686138846569e-02
     7   -5.968720709891e-02
     8   -2.508410444923e-01
     9   -6.349125358174e-01
    10   -2.640720217064e-01
    11   -4.645944346531e-02
    12    1.728328579935e+00
    13    8.180391235896e-01
    14    1.324738339981e-01
    15    7.645371242290e-02
    16    4.970513630256e-03
    17   -9.097229972957e-03
    18    1.024238892895e-01
    19    1.063773605904e-01
    20   -1.819459819236e-01
    21    8.674193146544e-01
    22   -4.749244725059e-02
    23    1.592877346139e-01
    24    7.339765715203e-03
    25    2.686379934715e-02
    26    5.963459115306e-02
    27    2.508195369369e-01
    28    2.316437891184e-01
    29    6.473537924009e-01
    30    5.022296118649e-02
    31   -7.296175137681e-01
    32   -1.767389841679e+00
    33   -1.417763247363e-01
    34   -7.666005264532e-02
    35    6.044717312498e-03
    36   -3.385248117501e-03
    37    1.130261039267e-01
    38   -9.532826875822e-02
    39   -8.624578605946e-02
    40    1.296545360573e+00
    41   -1.493889548192e-02
    42   -1.705477104449e-01
    43   -1.101833196592e-02
    44    1.820268431649e-01
    45   -8.680183265617e-01
    46   -1.616890657416e-01
    47    3.925421982807e-02
    48   -5.394325978791e-03
Sym=X
Ene= 0.977570
Spin=Alpha
Occup=0
     1   -7.581773831892e-02
     2    3.040077505969e-01
     3   -1.496044065180e-02
     4   -8.697941696552e-02
     5   -5.957150123587e-03
     6    1.927593614323e-02
     7    2.454122303102e-01
     8    4.191533367644e-01
     9    2.665726097268e-01
    10   -6.002044988321e-01
    11   -2.345122989635e-02
    12   -7.221917106198e-01
    13    2.023738612443e+00
    14    8.754845800594e-02
    15   -3.415893399443e-02
    16   -1.029454932610e-02
    17   -1.395000247845e-02
    18    7.117156942097e-02
    19   -2.734874712430e-01
    20   -7.206319409311e-02
    21    1.469361368558e+00
    22    8.449845348354e-02
    23    1.699195415085e-01
    24    1.432689484706e-02
    25   -1.927038463026e-02
    26   -2.450064892199e-01
    27   -4.198691564259e-01
    28    6.132531198946e-01
    29   -2.354169871102e-01
    30    1.522200356539e-02
    31   -2.058749852960e+00
    32    6.175147550803e-01
    33   -6.155439568143e-02
    34    3.403303786040e-02
    35    1.614468772775e-02
    36    7.368004140427e-03
    37    4.285526428969e-02
    38    2.792955550304e-01
    39    7.583719436996e-02
    40   -3.038564459592e-01
    41    8.613901023242e-02
    42    1.935629628922e-02
    43    5.324628676304e-03
    44    7.202114078186e-02
    45   -1.469013010045e+00
    46   -1.654184318150e-01
    47   -9.301491987628e-02
    48   -1.355657508421e-02
[5D]

======= END OF MOLDEN-FORMATTED INPUT FILE =======


        *************************************************************
        *                                                           *
        *  Thank you very much for using Q-Chem.  Have a nice day.  *
        *                                                           *
        *************************************************************


