                  Welcome to Q-Chem
     A Quantum Leap Into The Future Of Chemistry


 Q-Chem 5.4 (devel), Q-Chem, Inc., Pleasanton, CA (2021)

 E. Epifanovsky,  A. T. B. Gilbert,  Xintian Feng,  Joonho Lee,  Yuezhi Mao,  
 N. Mardirossian,  P. Pokhilko,  A. White,  M. Wormit,  M. P. Coons,  
 A. L. Dempwolff,  Zhengting Gan,  D. Hait,  P. R. Horn,  L. D. Jacobson,  
 I. Kaliman,  J. Kussmann,  A. W. Lange,  Ka Un Lao,  D. S. Levine,  Jie Liu,  
 S. C. McKenzie,  A. F. Morrison,  K. Nanda,  F. Plasser,  D. R. Rehn,  
 M. L. Vidal,  Zhi-Qiang You,  Ying Zhu,  B. Alam,  B. Albrecht,  
 A. Aldossary,  E. Alguire,  J. H. Andersen,  D. Barton,  K. Begam,  A. Behn,  
 Y. A. Bernard,  E. J. Berquist,  H. Burton,  A. Carreras,  K. Carter-Fenk,  
 R. Chakraborty,  A. D. Chien,  K. D. Closser,  V. Cofer-Shabica,  
 S. Dasgupta,  Jia Deng,  M. de Wergifosse,  M. Diedenhofen,  Hainam Do,  
 S. Ehlert,  Po-Tung Fang,  S. Fatehi,  Qingguo Feng,  T. Friedhoff,  
 J. Gayvert,  Qinghui Ge,  G. Gidofalvi,  M. Goldey,  J. Gomes,  
 C. Gonzalez-Espinoza,  S. Gulania,  A. Gunina,  M. W. D. Hanson-Heine,  
 P. H. P. Harbach,  A. W. Hauser,  M. F. Herbst,  M. Hernandez Vera,  
 M. Hodecker,  Z. C. Holden,  S. Houck,  Xunkun Huang,  Kerwin Hui,  
 B. C. Huynh,  M. Ivanov,  Hyunjun Ji,  Hanjie Jiang,  B. Kaduk,  S. Kaehler,  
 K. Khistyaev,  Jaehoon Kim,  P. Klunzinger,  Z. Koczor-Benda,  
 Joong Hoon Koh,  D. Kosenkov,  L. Koulias,  T. Kowalczyk,  C. M. Krauter,  
 K. Kue,  A. Kunitsa,  T. Kus,  A. Landau,  K. V. Lawler,  D. Lefrancois,  
 S. Lehtola,  Rain Li,  Yi-Pei Li,  Jiashu Liang,  M. Liebenthal,  
 Hung-Hsuan Lin,  You-Sheng Lin,  Fenglai Liu,  Kuan-Yu Liu,  
 M. Loipersberger,  A. Luenser,  A. Manjanath,  P. Manohar,  E. Mansoor,  
 S. F. Manzer,  Shan-Ping Mao,  A. V. Marenich,  T. Markovich,  S. Mason,  
 S. A. Maurer,  P. F. McLaughlin,  M. F. S. J. Menger,  J.-M. Mewes,  
 S. A. Mewes,  P. Morgante,  J. W. Mullinax,  K. J. Oosterbaan,  G. Paran,  
 Alexander C. Paul,  Suranjan K. Paul,  F. Pavosevic,  Zheng Pei,  S. Prager,  
 E. I. Proynov,  E. Ramos,  B. Rana,  A. E. Rask,  A. Rettig,  R. M. Richard,  
 F. Rob,  E. Rossomme,  T. Scheele,  M. Scheurer,  M. Schneider,  
 N. Sergueev,  S. M. Sharada,  W. Skomorowski,  D. W. Small,  C. J. Stein,  
 Yu-Chuan Su,  E. J. Sundstrom,  Zhen Tao,  J. Thirman,  T. Tsuchimochi,  
 N. M. Tubman,  S. P. Veccham,  O. Vydrov,  J. Wenzel,  J. Witte,  A. Yamada,  
 Kun Yao,  S. Yeganeh,  S. R. Yost,  A. Zech,  Igor Ying Zhang,  Xing Zhang,  
 Yu Zhang,  D. Zuev,  A. Aspuru-Guzik,  A. T. Bell,  N. A. Besley,  
 K. B. Bravaya,  B. R. Brooks,  D. Casanova,  Jeng-Da Chai,  S. Coriani,  
 C. J. Cramer,  A. E. DePrince, III,  R. A. DiStasio Jr.,  A. Dreuw,  
 B. D. Dunietz,  T. R. Furlani,  W. A. Goddard III,  S. Grimme,  
 S. Hammes-Schiffer,  T. Head-Gordon,  W. J. Hehre,  Chao-Ping Hsu,  
 T.-C. Jagau,  Yousung Jung,  A. Klamt,  Jing Kong,  D. S. Lambrecht,  
 WanZhen Liang,  N. J. Mayhall,  C. W. McCurdy,  J. B. Neaton,  
 C. Ochsenfeld,  J. A. Parkhill,  R. Peverati,  V. A. Rassolov,  Yihan Shao,  
 L. V. Slipchenko,  T. Stauch,  R. P. Steele,  J. E. Subotnik,  
 A. J. W. Thom,  A. Tkatchenko,  D. G. Truhlar,  T. Van Voorhis,  
 T. A. Wesolowski,  K. B. Whaley,  H. L. Woodcock III,  P. M. Zimmerman,  
 S. Faraji,  P. M. W. Gill,  M. Head-Gordon,  J. M. Herbert,  A. I. Krylov

 Additional authors for Version 5.4.1: 
 S. Kotaru,  Shaozhi Li,  Xiangyuan Li,  F. Matz,  A. Molle,  Haisheng Ren,  
 Yingli Su,  Hung-Yi Tsai,  C. Utku,  Fang Wang

 Contributors to earlier versions of Q-Chem not listed above: 
 R. D. Adamson,  B. Austin,  R. Baer,  J. Baker,  G. J. O. Beran,  
 K. Brandhorst,  S. T. Brown,  E. F. C. Byrd,  A. K. Chakraborty,  
 G. K. L. Chan,  Chun-Min Chang,  Yunqing Chen,  C.-L. Cheng,  
 Siu Hung Chien,  D. M. Chipman,  D. L. Crittenden,  H. Dachsel,  
 R. J. Doerksen,  A. D. Dutoi,  R. G. Edgar,  J. Fosso-Tande,  
 L. Fusti-Molnar,  D. Ghosh,  A. Ghysels,  A. Golubeva-Zadorozhnaya,  
 J. Gonthier,  M. S. Gordon,  S. R. Gwaltney,  G. Hawkins,  J. E. Herr,  
 A. Heyden,  S. Hirata,  E. G. Hohenstein,  G. Kedziora,  F. J. Keil,  
 C. Kelley,  Jihan Kim,  R. A. King,  R. Z. Khaliullin,  P. P. Korambath,  
 W. Kurlancheek,  A. Laurent,  A. M. Lee,  M. S. Lee,  S. V. Levchenko,  
 Ching Yeh Lin,  D. Liotard,  E. Livshits,  R. C. Lochan,  I. Lotan,  
 L. A. Martinez-Martinez,  P. E. Maslen,  N. Nair,  D. P. O'Neill,  
 D. Neuhauser,  E. Neuscamman,  C. M. Oana,  R. Olivares-Amaya,  R. Olson,  
 T. M. Perrine,  B. Peters,  P. A. Pieniazek,  A. Prociuk,  Y. M. Rhee,  
 J. Ritchie,  M. A. Rohrdanz,  E. Rosta,  N. J. Russ,  H. F. Schaefer III,  
 M. W. Schmidt,  N. E. Schultz,  S. Sharma,  N. Shenvi,  C. D. Sherrill,  
 A. C. Simmonett,  A. Sodt,  T. Stein,  D. Stuck,  K. S. Thanthiriwatte,  
 V. Vanovschi,  L. Vogt,  Tao Wang,  A. Warshel,  M. A. Watson,  
 C. F. Williams,  Q. Wu,  X. Xu,  Jun Yang,  W. Zhang,  Yan Zhao

 Please cite Q-Chem as follows:
 Y. Shao et al., Mol. Phys. 113, 184-215 (2015)
 DOI: 10.1080/00268976.2014.952696

 Q-Chem 5.4.1 for Intel X86 EM64T Linux

 Parts of Q-Chem use Armadillo 9.800.1 (Horizon Scraper).
 http://arma.sourceforge.net/

 Q-Chem begins on Thu Nov 17 15:43:00 2022  

 Host: cpu196.baobab
0

     Scratch files written to /scratch/fum/qchem13580//
 Processing $rem in /home/share/wesolowski/qc5.aug2021.FDE/config/preferences:
 Processing $rem in /home/fum/.qchemrc:

 Checking the input file for inconsistencies... 	...done.

--------------------------------------------------------------
User input:
--------------------------------------------------------------
$comment
generated from CCJob.Templates
$end

$rem
sym_ignore = true
method = adc(2)
ee_states = 10
basis = cc-pVDZ
mem_static = 1024
mem_total = 40000
adc_davidson_maxiter = 900
adc_davidson_conv = 6
adc_print = 3
adc_prop_es = true
adc_prop_es2es = true
adc_prop_tpa = true
molden_format = True
state_analysis = true
print_orbitals = 15
gen_scfman = false
fde_export_density = true
fde_details = 3
$end

$molecule
0 1
H -0.0348278765 -0.2442097827 0.0636489606
C -1.0765972949 -0.5242748755 -0.0023551776
H -1.313264467 -1.5767591607 -0.0757276926
C -2.043634118 0.3926884087 0.0061254933
H -1.8137616575 1.4459188338 0.0804456828
H -3.095977293 0.114931858 -0.0593381042                     
$end
--------------------------------------------------------------
 ----------------------------------------------------------------
             Standard Nuclear Orientation (Angstroms)
    I     Atom           X                Y                Z
 ----------------------------------------------------------------
    1      H      -0.0348278765    -0.2442097827     0.0636489606
    2      C      -1.0765972949    -0.5242748755    -0.0023551776
    3      H      -1.3132644670    -1.5767591607    -0.0757276926
    4      C      -2.0436341180     0.3926884087     0.0061254933
    5      H      -1.8137616575     1.4459188338     0.0804456828
    6      H      -3.0959772930     0.1149318580    -0.0593381042
 ----------------------------------------------------------------
 Nuclear Repulsion Energy =          33.38862730 hartrees
 There are        8 alpha and        8 beta electrons
 Requested basis set is cc-pVDZ
 There are 24 shells and 48 basis functions
 Total memory of 40000 MB is distributed as follows: 
   MEM_STATIC is set to 1024 MB
   QALLOC/CCMAN JOB total memory use is  38976 MB
 Warning: actual memory use might exceed 40000 MB

 Total QAlloc Memory Limit  40000 MB
 Mega-Array Size      1001 MB
 MEM_STATIC part      1024 MB

                       Distance Matrix (Angstroms)
             H (  1)   C (  2)   H (  3)   C (  4)   H (  5)
   C (  2)  1.080776
   H (  3)  1.851895  1.081258
   C (  4)  2.108139  1.332687  2.102109
   H (  5)  2.453859  2.105215  3.067812  1.080583
   H (  6)  3.084598  2.118898  2.457672  1.090349  1.853414

 A cutoff of  1.0D-11 yielded    300 shell pairs
 There are      1220 function pairs (      1329 Cartesian)
 Smallest overlap matrix eigenvalue = 4.80E-03

 Scale SEOQF with 1.000000e-01/1.000000e-01/1.000000e+00

 Standard Electronic Orientation quadrupole field applied
 Nucleus-field energy     =     0.0000000022 hartrees
 Guess from superposition of atomic densities
 Warning:  Energy on first SCF cycle will be non-variational
 SAD guess density has 16.000000 electrons
 A restricted Hartree-Fock SCF calculation will be
 performed using Pulay DIIS extrapolation
 SCF converges when DIIS error is below 1.0E-08
 using 10 threads for integral computing
 -------------------------------------------------------
 OpenMP Integral computing Module                
 Release: version 1.0, May 2013, Q-Chem Inc. Pittsburgh 
 -------------------------------------------------------
 ---------------------------------------
  Cycle       Energy         DIIS Error
 ---------------------------------------
    1     -78.4318754933      1.01E-01
    2     -78.0176904730      7.20E-03
    3     -78.0382963754      1.84E-03
    4     -78.0397785480      5.72E-04
    5     -78.0398998548      5.82E-05
    6     -78.0399017341      9.95E-06
    7     -78.0399017978      3.41E-06
    8     -78.0399018025      1.08E-06
    9     -78.0399018031      1.49E-07
   10     -78.0399018031      4.59E-08
   11     -78.0399018031      8.12E-09 Convergence criterion met
 ---------------------------------------
 SCF time:  CPU 1.50 s  wall 1.73 s
 SCF   energy in the final basis set = -78.03990180
 Total energy in the final basis set = -78.03990180
Exporting Density Matrix to file 'Densmat_SCF.txt'.
Export successful
================================================================================
|                                                                              |
|                                 A D C  M A N                                 |
|                                                                              |
 ------------------------------------------------------------------------------ 
|                                                                              |
| Components:                                                                  |
|                                                                              |
| - libvmm - 1.3-trunk                                                         |
|   Authors:                                                                   |
|   Evgeny Epifanovsky, Ilya Kaliman                                           |
|                                                                              |
| - libtensor - 2.5-trunk                                                      |
|   Authors:                                                                   |
|   Evgeny Epifanovsky, Michael Wormit, Dmitry Zuev, Sam Manzer,               |
|   Ilya Kaliman                                                               |
|                                                                              |
| - libwfa - 1.1-trunk                                                         |
|   Authors:                                                                   |
|   Felix Plasser, Stefanie Mewes (Baeppler), Benjamin Thomitzni,              |
|   Michael Wormit, Feng Chen, Anna I. Krylov, Pavel Pokhilko                  |
|                                                                              |
| - libadc - 1.1-trunk                                                         |
|   Authors:                                                                   |
|   Michael Wormit, Adrian L. Dempwolff, Philipp H. P. Harbach,                |
|   Caroline Krauter, Dirk Rehn, Matthias Schneider, Jan Wenzel                |
|                                                                              |
| - adcman - 2.6-trunk                                                         |
|   Authors:                                                                   |
|   Michael Wormit, Adrian L. Dempwolff, Philipp H. P. Harbach,                |
|   Caroline Krauter, Daniel Lefrancois, Jan-Michael Mewes, Dirk Rehn,         |
|   Matthias Schneider, Jan Wenzel, Andreas Dreuw                              |
|                                                                              |
| Authors of earlier versions of ADCMAN:                                       |
| Andreas Dreuw, Jan Hendrik Starcke, Dirk Rehn, Michael Wormit                |
|                                                                              |
================================================================================

 Created directory /scratch/fum/qchem13580/plots
  Import QC data ...  CPU 0.00 s  wall 0.00 s

 Alpha MOs, Restricted
 -- Occupied --                  
-11.236 -11.234  -1.032  -0.789  -0.640  -0.582  -0.504  -0.374
  1 A     2 A     3 A     4 A     5 A     6 A     7 A     8 A                  
 -- Virtual --                   
  0.168   0.203   0.233   0.239   0.303   0.462   0.578   0.614
  9 A    10 A    11 A    12 A    13 A    14 A    15 A    16 A                  
  0.689   0.708   0.783   0.808   0.862   0.935   0.972   1.009
 17 A    18 A    19 A    20 A    21 A    22 A    23 A    24 A                  
  1.130   1.235   1.253   1.265   1.293   1.600   1.726   1.748
 25 A    26 A    27 A    28 A    29 A    30 A    31 A    32 A                  
  1.818   1.859   1.865   1.919   1.974   1.978   2.221   2.256
 33 A    34 A    35 A    36 A    37 A    38 A    39 A    40 A                  
  2.373   2.449   2.503   2.630   2.714   2.817   3.134   3.393
 41 A    42 A    43 A    44 A    45 A    46 A    47 A    48 A                  

 Beta MOs, Restricted
 -- Occupied --                  
-11.236 -11.234  -1.032  -0.789  -0.640  -0.582  -0.504  -0.374
  1 A     2 A     3 A     4 A     5 A     6 A     7 A     8 A                  
 -- Virtual --                   
  0.168   0.203   0.233   0.239   0.303   0.462   0.578   0.614
  9 A    10 A    11 A    12 A    13 A    14 A    15 A    16 A                  
  0.689   0.708   0.783   0.808   0.862   0.935   0.972   1.009
 17 A    18 A    19 A    20 A    21 A    22 A    23 A    24 A                  
  1.130   1.235   1.253   1.265   1.293   1.600   1.726   1.748
 25 A    26 A    27 A    28 A    29 A    30 A    31 A    32 A                  
  1.818   1.859   1.865   1.919   1.974   1.978   2.221   2.256
 33 A    34 A    35 A    36 A    37 A    38 A    39 A    40 A                  
  2.373   2.449   2.503   2.630   2.714   2.817   3.134   3.393
 41 A    42 A    43 A    44 A    45 A    46 A    47 A    48 A                  
  Import AO data ...  CPU 0.00 s  wall 0.00 s
  Using point group: C1
  Irreducible representations in point group: A
  Molecular orbitals: 
  Occupied MOs:
  Block   0:   1 (  A) A   2 (  A) A   3 (  A) A   4 (  A) A   5 (  A) A
                  -11.24      -11.23      -1.032     -0.7889     -0.6403
               6 (  A) A   7 (  A) A   8 (  A) A
                 -0.5817     -0.5038     -0.3741
  Block   1:   1 (  A) B   2 (  A) B   3 (  A) B   4 (  A) B   5 (  A) B
                  -11.24      -11.23      -1.032     -0.7889     -0.6403
               6 (  A) B   7 (  A) B   8 (  A) B
                 -0.5817     -0.5038     -0.3741
  Virtual MOs:
  Block   0:   9 (  A) A  10 (  A) A  11 (  A) A  12 (  A) A  13 (  A) A
                  0.1684      0.2034      0.2325       0.239      0.3032
              14 (  A) A  15 (  A) A  16 (  A) A  17 (  A) A  18 (  A) A
                   0.462      0.5777      0.6145       0.689       0.708
              19 (  A) A  20 (  A) A  21 (  A) A  22 (  A) A
                  0.7831      0.8079      0.8616      0.9346
  Block   1:  23 (  A) A  24 (  A) A  25 (  A) A  26 (  A) A  27 (  A) A
                  0.9721       1.009        1.13       1.235       1.253
              28 (  A) A  29 (  A) A  30 (  A) A  31 (  A) A  32 (  A) A
                   1.265       1.293         1.6       1.726       1.748
              33 (  A) A  34 (  A) A  35 (  A) A  36 (  A) A
                   1.818       1.859       1.865       1.919
  Block   2:  37 (  A) A  38 (  A) A  39 (  A) A  40 (  A) A  41 (  A) A
                   1.974       1.978       2.221       2.256       2.373
              42 (  A) A  43 (  A) A  44 (  A) A  45 (  A) A  46 (  A) A
                   2.449       2.503        2.63       2.714       2.817
              47 (  A) A  48 (  A) A
                   3.134       3.393
  Block   3:   9 (  A) B  10 (  A) B  11 (  A) B  12 (  A) B  13 (  A) B
                  0.1684      0.2034      0.2325       0.239      0.3032
              14 (  A) B  15 (  A) B  16 (  A) B  17 (  A) B  18 (  A) B
                   0.462      0.5777      0.6145       0.689       0.708
              19 (  A) B  20 (  A) B  21 (  A) B  22 (  A) B
                  0.7831      0.8079      0.8616      0.9346
  Block   4:  23 (  A) B  24 (  A) B  25 (  A) B  26 (  A) B  27 (  A) B
                  0.9721       1.009        1.13       1.235       1.253
              28 (  A) B  29 (  A) B  30 (  A) B  31 (  A) B  32 (  A) B
                   1.265       1.293         1.6       1.726       1.748
              33 (  A) B  34 (  A) B  35 (  A) B  36 (  A) B
                   1.818       1.859       1.865       1.919
  Block   5:  37 (  A) B  38 (  A) B  39 (  A) B  40 (  A) B  41 (  A) B
                   1.974       1.978       2.221       2.256       2.373
              42 (  A) B  43 (  A) B  44 (  A) B  45 (  A) B  46 (  A) B
                   2.449       2.503        2.63       2.714       2.817
              47 (  A) B  48 (  A) B
                   3.134       3.393
  Import MO data ...  CPU 0.01 s  wall 0.00 s
  Import HF data ...  CPU 0.08 s  wall 0.03 s
  Import 2e integrals ...  CPU 0.71 s  wall 0.14 s

--------------------------------------------------------------------------------
                                   HF Summary                                   
--------------------------------------------------------------------------------
  Energy:                                                  -78.0399018031 a.u.
  Dip. moment [a.u.]:                  [   0.001011,    0.001025,    0.000694]
  Total dipole [Debye]:                                               0.004060
  <r^2> [a.u.]:                        [ 175.551169,   34.922985,   11.634970]
  Total <r^2> [a.u.]:                                               222.109125
--------------------------------------------------------------------------------
  HF properties ...  CPU 0.01 s  wall 0.01 s
  MP(1) calculation ...  CPU 0.01 s  wall 0.00 s
  N^6 prerequesite intermediates ...  CPU 0.52 s  wall 0.07 s
  Difference density matrix of state mp2_gs printed to ASCII file 'State_mp2_gs_Difference.txt'
Exporting MP density matrix to file 'Densmat_MP.txt'.
Export successful
  Total density matrix of state mp2_gs printed to ASCII file 'State_mp2_gs_Total.txt'
Exporting MP density matrix to file 'Densmat_MP.txt'.
Export successful

--------------------------------------------------------------------------------
                                 MP(2) Summary                                  
--------------------------------------------------------------------------------
  MP energy contribution:                                   -0.2798390254 a.u.
  Total energy:                                            -78.3197408285 a.u.
  Dip. moment [a.u.]:                  [   0.000868,    0.000788,    0.000665]
  Total dipole [Debye]:                                               0.003426
  <r^2> [a.u.]:                        [ 175.595512,   34.963154,   11.466128]
  Total <r^2> [a.u.]:                                               222.024795

  Density matrix analysis:
  ------------------------
  NOs
    Occupation of frontier NOs:
       0.0453   1.9382
    Number of electrons: 16.000000
    Number of unpaired electrons: n_u =  0.40407, n_u,nl =  0.04519
    NO participation ratio (PR_NO): 13.865773
  
  
  Mulliken Population Analysis
  Atom      Charge (e)              h+              e-           Del q
  --------------------------------------------------------------------
   1 H        0.051141        0.014035       -0.011205        0.002830
   2 C       -0.099229        0.093131       -0.098831       -0.005700
   3 H        0.050697        0.014078       -0.011198        0.002881
   4 C       -0.106082        0.093596       -0.099207       -0.005611
   5 H        0.050407        0.014108       -0.011212        0.002896
   6 H        0.053067        0.013944       -0.011239        0.002705
  --------------------------------------------------------------------
  Sum:        0.000000        0.242892       -0.242892       -0.000000
  
  Multipole moment analysis of the density matrix
    Molecular charge:                      0.000000
    Number of electrons:                   16.000000
      Center of electronic charge [Ang]: [ -1.561230,  -0.065628,   0.001956]
    Total nuclear charge:                  16.000000
      Center of nuclear charge [Ang]:    [ -1.561201,  -0.065602,   0.001978]
    Dipole moment [D]:                     0.003426
      Cartesian components [D]:          [  0.002206,   0.002003,   0.001691]
    RMS size of the density [Ang]:         1.201699
      Cartesian components [Ang]:        [  0.797368,   0.779494,   0.447966]
  
  Exciton analysis of the difference density matrix
    <r_h> [Ang]:                  [ -1.562550,  -0.065490,   0.001808]
    <r_e> [Ang]:                  [ -1.562240,  -0.064975,   0.001870]
    |<r_e - r_h>| [Ang]:            0.000605
    Hole size [Ang]:                1.394967
      Cartesian components [Ang]: [  0.848693,   0.834104,   0.727958]
    Electron size [Ang]:            1.360053
      Cartesian components [Ang]: [  0.878847,   0.861456,   0.579021]
--------------------------------------------------------------------------------
  MP(2) calculation ...  CPU 0.25 s  wall 0.13 s
  Start ADC(2)-s ...  CPU 0.01 s  wall 0.00 s
  ADC(2) intermediates ...  CPU 0.02 s  wall 0.01 s
  Starting Davidson for singlet states of irrep A ... 
--------------------------------------------------------------------------------
   It NVec Conv  Avg. Norm  Max. Norm  Conv. states           Remark
--------------------------------------------------------------------------------
        10    0  1.330e-01  4.686e-01  0.4118 n n n n n n n n Guess.
    1   20    0  2.309e-02  1.111e-01  0.3263 n n n n n n n n 
    2   30    0  5.832e-03  2.496e-02  0.3215 n n n n n n n n 
    3   40    0  1.879e-03  1.159e-02  0.3211 n n n n n n n n 
    4   50    0  5.998e-04  4.161e-03  0.3211 n n n n n n n n 
    5   20    0  2.890e-04  2.129e-03  0.3211 n n n n n n n n Subspace collapsed.
    6   30    0  1.687e-04  1.427e-03  0.3211 n n n n n n n n 
    7   40    0  1.163e-04  8.364e-04  0.3211 n n n n n n n n 
    8   50    0  1.105e-04  1.033e-03  0.3211 n n n n n n n n 
    9   20    2  6.745e-05  5.943e-04  0.3211 n y n y n n n n Subspace collapsed.
   10   30    4  6.367e-05  5.839e-04  0.3211 n y y y y n n n 
   11   40    5  6.865e-05  6.775e-04  0.3211 n y y y y y n n 
   12   50    6  6.449e-05  6.433e-04  0.3211 y y y y y y n n 
   13   20    6  3.249e-05  3.241e-04  0.3211 y y y y y y n n Subspace collapsed.
   14   30    6  2.619e-05  2.611e-04  0.3211 y y y y y y n n 
   15   40    6  1.480e-05  1.475e-04  0.3211 y y y y y y n n 
   16   50    6  1.657e-05  1.655e-04  0.3211 y y y y y y n n 
   17   20    7  9.551e-06  9.545e-05  0.3211 y y y y y y n y Subspace collapsed.
   18   30    6  1.587e-05  1.587e-04  0.3211 y y y y y y n n 
   19   40    7  1.386e-05  1.386e-04  0.3211 y y y y y y n y 
   20   50    8  1.341e-05  1.341e-04  0.3211 y y y y y y y y 
   21   20    9  6.867e-06  6.867e-05  0.3211 y y y y y y y y Subspace collapsed.
   22   30    9  5.286e-06  5.286e-05  0.3211 y y y y y y y y 
   23   32    9  4.505e-06  4.504e-05  0.3211 y y y y y y y y 
   24   41    9  3.226e-06  3.226e-05  0.3211 y y y y y y y y 
   25   49    9  3.385e-06  3.385e-05  0.3211 y y y y y y y y 
   26   50    9  3.761e-06  3.761e-05  0.3211 y y y y y y y y 
   27   15    9  1.945e-06  1.945e-05  0.3211 y y y y y y y y Subspace collapsed.
   28   20    9  2.607e-06  2.607e-05  0.3211 y y y y y y y y 
   29   25    9  2.864e-06  2.864e-05  0.3211 y y y y y y y y 
   30   25    9  2.864e-06  2.864e-05  0.3211 y y y y y y y y 
   31   35    9  2.741e-06  2.741e-05  0.3211 y y y y y y y y 
   32   39    9  2.261e-06  2.261e-05  0.3211 y y y y y y y y 
   33   43    9  1.067e-06  1.067e-05  0.3211 y y y y y y y y 
   34   47    9  4.846e-07  4.846e-06  0.3211 y y y y y y y y 
   35   50    9  2.452e-07  2.452e-06  0.3211 y y y y y y y y 
   36   14    9  1.378e-07  1.378e-06  0.3211 y y y y y y y y Subspace collapsed.
   37   18    9  1.202e-07  1.202e-06  0.3211 y y y y y y y y 
   38   22   10  6.574e-08  6.574e-07  0.3211 y y y y y y y y Converged.
--------------------------------------------------------------------------------
  Davidson Summary: 
 ------------------------------------------------------------
  State  0: excitation energy =   0.3211 a.u.   (converged)
  State  1: excitation energy =   0.3322 a.u.   (converged)
  State  2: excitation energy =   0.3367 a.u.   (converged)
  State  3: excitation energy =   0.3607 a.u.   (converged)
  State  4: excitation energy =   0.3750 a.u.   (converged)
  State  5: excitation energy =   0.3870 a.u.   (converged)
  State  6: excitation energy =   0.4239 a.u.   (converged)
  State  7: excitation energy =   0.4466 a.u.   (converged)
  State  8: excitation energy =   0.4559 a.u.   (converged)
  State  9: excitation energy =   0.4636 a.u.   (converged)
 ------------------------------------------------------------

  Singlet states of irrep A ...  CPU 101.91 s  wall 32.65 s
  TDMs ...  CPU 0.67 s  wall 0.27 s
  SDMs ...  CPU 1.47 s  wall 0.52 s
  Starting TPA DIIS iterations ... 
------------------------------------ 
   It     Res. Norm  Remark
------------------------------------
                       Guess.
    1     4.401e+00  
    2     5.835e+00  
    3     1.080e+00  
    4     2.593e-01  
    5     6.593e-02  
    6     2.715e-02  
    7     8.294e-03  
    8     1.483e-03  
    9     5.522e-04  
   10     9.201e-05  
   11     2.934e-05  
   12     4.517e-06  
   13     1.472e-06  
   14     4.423e-07  Converged.
   ... Converged in 14 steps (norm: 4.42262e-07)
------------------------------------
  Starting TPA DIIS iterations ... 
------------------------------------ 
   It     Res. Norm  Remark
------------------------------------
                       Guess.
    1     4.184e+00  
    2     5.539e+00  
    3     1.029e+00  
    4     2.548e-01  
    5     6.515e-02  
    6     2.661e-02  
    7     8.124e-03  
    8     1.450e-03  
    9     5.368e-04  
   10     9.018e-05  
   11     2.839e-05  
   12     4.346e-06  
   13     1.442e-06  
   14     4.207e-07  Converged.
   ... Converged in 14 steps (norm: 4.20689e-07)
------------------------------------
  Starting TPA DIIS iterations ... 
------------------------------------ 
   It     Res. Norm  Remark
------------------------------------
                       Guess.
    1     6.879e-01  
    2     4.825e-01  
    3     1.701e-01  
    4     5.963e-02  
    5     1.845e-02  
    6     6.679e-03  
    7     1.051e-03  
    8     4.488e-04  
    9     1.288e-04  
   10     2.591e-05  
   11     8.032e-06  
   12     2.472e-06  
   13     1.714e-06  
   14     7.269e-07  Converged.
   ... Converged in 14 steps (norm: 7.26862e-07)
------------------------------------
  Starting TPA DIIS iterations ... 
------------------------------------ 
   It     Res. Norm  Remark
------------------------------------
                       Guess.
    1     4.673e+00  
    2     6.324e+00  
    3     1.157e+00  
    4     2.866e-01  
    5     7.385e-02  
    6     3.067e-02  
    7     9.351e-03  
    8     1.670e-03  
    9     6.264e-04  
   10     1.049e-04  
   11     3.377e-05  
   12     5.239e-06  
   13     1.720e-06  
   14     5.155e-07  Converged.
   ... Converged in 14 steps (norm: 5.15529e-07)
------------------------------------
  Starting TPA DIIS iterations ... 
------------------------------------ 
   It     Res. Norm  Remark
------------------------------------
                       Guess.
    1     4.442e+00  
    2     6.002e+00  
    3     1.102e+00  
    4     2.814e-01  
    5     7.299e-02  
    6     3.007e-02  
    7     9.161e-03  
    8     1.633e-03  
    9     6.085e-04  
   10     1.028e-04  
   11     3.265e-05  
   12     5.037e-06  
   13     1.683e-06  
   14     4.900e-07  Converged.
   ... Converged in 14 steps (norm: 4.90043e-07)
------------------------------------
  Starting TPA DIIS iterations ... 
------------------------------------ 
   It     Res. Norm  Remark
------------------------------------
                       Guess.
    1     6.994e-01  
    2     4.989e-01  
    3     1.794e-01  
    4     6.703e-02  
    5     1.980e-02  
    6     7.264e-03  
    7     1.179e-03  
    8     5.237e-04  
    9     1.532e-04  
   10     2.877e-05  
   11     9.250e-06  
   12     2.910e-06  
   13     2.122e-06  
   14     9.134e-07  Converged.
   ... Converged in 14 steps (norm: 9.1343e-07)
------------------------------------
  Starting TPA DIIS iterations ... 
------------------------------------ 
   It     Res. Norm  Remark
------------------------------------
                       Guess.
    1     4.793e+00  
    2     6.542e+00  
    3     1.191e+00  
    4     2.991e-01  
    5     7.744e-02  
    6     3.227e-02  
    7     9.831e-03  
    8     1.755e-03  
    9     6.601e-04  
   10     1.107e-04  
   11     3.581e-05  
   12     5.573e-06  
   13     1.836e-06  
   14     5.494e-07  Converged.
   ... Converged in 14 steps (norm: 5.49404e-07)
------------------------------------
  Starting TPA DIIS iterations ... 
------------------------------------ 
   It     Res. Norm  Remark
------------------------------------
                       Guess.
    1     4.556e+00  
    2     6.209e+00  
    3     1.134e+00  
    4     2.935e-01  
    5     7.654e-02  
    6     3.165e-02  
    7     9.632e-03  
    8     1.716e-03  
    9     6.411e-04  
   10     1.085e-04  
   11     3.461e-05  
   12     5.356e-06  
   13     1.796e-06  
   14     5.221e-07  Converged.
   ... Converged in 14 steps (norm: 5.22123e-07)
------------------------------------
  Starting TPA DIIS iterations ... 
------------------------------------ 
   It     Res. Norm  Remark
------------------------------------
                       Guess.
    1     7.042e-01  
    2     5.060e-01  
    3     1.835e-01  
    4     7.044e-02  
    5     2.039e-02  
    6     7.529e-03  
    7     1.238e-03  
    8     5.587e-04  
    9     1.645e-04  
   10     2.980e-05  
   11     9.813e-06  
   12     3.118e-06  
   13     2.320e-06  
   14     1.006e-06  
   15     4.107e-07  Converged.
   ... Converged in 15 steps (norm: 4.10653e-07)
------------------------------------
  Starting TPA DIIS iterations ... 
------------------------------------ 
   It     Res. Norm  Remark
------------------------------------
                       Guess.
    1     5.517e+00  
    2     7.893e+00  
    3     1.395e+00  
    4     3.784e-01  
    5     1.004e-01  
    6     4.263e-02  
    7     1.290e-02  
    8     2.297e-03  
    9     8.782e-04  
   10     1.487e-04  
   11     4.924e-05  
   12     7.770e-06  
   13     2.617e-06  
   14     7.748e-07  Converged.
   ... Converged in 14 steps (norm: 7.74776e-07)
------------------------------------
  Starting TPA DIIS iterations ... 
------------------------------------ 
   It     Res. Norm  Remark
------------------------------------
                       Guess.
    1     5.243e+00  
    2     7.491e+00  
    3     1.327e+00  
    4     3.706e-01  
    5     9.927e-02  
    6     4.184e-02  
    7     1.264e-02  
    8     2.244e-03  
    9     8.518e-04  
   10     1.457e-04  
   11     4.749e-05  
   12     7.457e-06  
   13     2.552e-06  
   14     7.360e-07  Converged.
   ... Converged in 14 steps (norm: 7.35957e-07)
------------------------------------
  Starting TPA DIIS iterations ... 
------------------------------------ 
   It     Res. Norm  Remark
------------------------------------
                       Guess.
    1     7.307e-01  
    2     5.465e-01  
    3     2.073e-01  
    4     9.293e-02  
    5     2.390e-02  
    6     9.229e-03  
    7     1.631e-03  
    8     7.880e-04  
    9     2.382e-04  
   10     3.359e-05  
   11     1.361e-05  
   12     4.582e-06  
   13     3.750e-06  
   14     1.702e-06  
   15     6.541e-07  Converged.
   ... Converged in 15 steps (norm: 6.54105e-07)
------------------------------------
  Starting TPA DIIS iterations ... 
------------------------------------ 
   It     Res. Norm  Remark
------------------------------------
                       Guess.
    1     6.037e+00  
    2     8.895e+00  
    3     1.540e+00  
    4     4.396e-01  
    5     1.180e-01  
    6     5.070e-02  
    7     1.527e-02  
    8     2.714e-03  
    9     1.048e-03  
   10     1.783e-04  
   11     5.993e-05  
   12     9.518e-06  
   13     3.257e-06  
   14     9.585e-07  Converged.
   ... Converged in 14 steps (norm: 9.58478e-07)
------------------------------------
  Starting TPA DIIS iterations ... 
------------------------------------ 
   It     Res. Norm  Remark
------------------------------------
                       Guess.
    1     5.735e+00  
    2     8.441e+00  
    3     1.465e+00  
    4     4.298e-01  
    5     1.168e-01  
    6     4.979e-02  
    7     1.497e-02  
    8     2.650e-03  
    9     1.016e-03  
   10     1.747e-04  
   11     5.772e-05  
   12     9.131e-06  
   13     3.170e-06  
   14     9.109e-07  Converged.
   ... Converged in 14 steps (norm: 9.10908e-07)
------------------------------------
  Starting TPA DIIS iterations ... 
------------------------------------ 
   It     Res. Norm  Remark
------------------------------------
                       Guess.
    1     7.474e-01  
    2     5.736e-01  
    3     2.239e-01  
    4     1.109e-01  
    5     2.643e-02  
    6     1.055e-02  
    7     1.951e-03  
    8     9.602e-04  
    9     2.928e-04  
   10     3.519e-05  
   11     1.678e-05  
   12     5.869e-06  
   13     5.030e-06  
   14     2.350e-06  
   15     8.696e-07  Converged.
   ... Converged in 15 steps (norm: 8.69636e-07)
------------------------------------
  Starting TPA DIIS iterations ... 
------------------------------------ 
   It     Res. Norm  Remark
------------------------------------
                       Guess.
    1     6.538e+00  
    2     9.887e+00  
    3     1.679e+00  
    4     5.018e-01  
    5     1.360e-01  
    6     5.899e-02  
    7     1.768e-02  
    8     3.136e-03  
    9     1.223e-03  
   10     2.087e-04  
   11     7.098e-05  
   12     1.132e-05  
   13     3.931e-06  
   14     1.154e-06  
   15     4.279e-07  Converged.
   ... Converged in 15 steps (norm: 4.2789e-07)
------------------------------------
  Starting TPA DIIS iterations ... 
------------------------------------ 
   It     Res. Norm  Remark
------------------------------------
                       Guess.
    1     6.211e+00  
    2     9.382e+00  
    3     1.597e+00  
    4     4.900e-01  
    5     1.346e-01  
    6     5.796e-02  
    7     1.733e-02  
    8     3.061e-03  
    9     1.183e-03  
   10     2.044e-04  
   11     6.830e-05  
   12     1.086e-05  
   13     3.820e-06  
   14     1.098e-06  
   15     3.650e-07  Converged.
   ... Converged in 15 steps (norm: 3.64956e-07)
------------------------------------
  Starting TPA DIIS iterations ... 
------------------------------------ 
   It     Res. Norm  Remark
------------------------------------
                       Guess.
    1     7.620e-01  
    2     5.984e-01  
    3     2.394e-01  
    4     1.295e-01  
    5     2.894e-02  
    6     1.189e-02  
    7     2.289e-03  
    8     1.122e-03  
    9     3.452e-04  
   10     3.742e-05  
   11     2.021e-05  
   12     7.319e-06  
   13     6.469e-06  
   14     3.092e-06  
   15     1.130e-06  
   16     4.888e-07  Converged.
   ... Converged in 16 steps (norm: 4.88779e-07)
------------------------------------
  Starting TPA DIIS iterations ... 
------------------------------------ 
   It     Res. Norm  Remark
------------------------------------
                       Guess.
    1     8.592e+00  
    2     1.418e+01  
    3     2.239e+00  
    4     7.831e-01  
    5     2.173e-01  
    6     9.727e-02  
    7     2.858e-02  
    8     5.043e-03  
    9     2.025e-03  
   10     3.480e-04  
   11     1.216e-04  
   12     1.967e-05  
   13     7.103e-06  
   14     2.165e-06  
   15     8.889e-07  Converged.
   ... Converged in 15 steps (norm: 8.88894e-07)
------------------------------------
  Starting TPA DIIS iterations ... 
------------------------------------ 
   It     Res. Norm  Remark
------------------------------------
                       Guess.
    1     8.157e+00  
    2     1.345e+01  
    3     2.129e+00  
    4     7.613e-01  
    5     2.152e-01  
    6     9.573e-02  
    7     2.803e-02  
    8     4.911e-03  
    9     1.955e-03  
   10     3.406e-04  
   11     1.168e-04  
   12     1.891e-05  
   13     6.879e-06  
   14     2.073e-06  
   15     6.808e-07  Converged.
   ... Converged in 15 steps (norm: 6.80835e-07)
------------------------------------
  Starting TPA DIIS iterations ... 
------------------------------------ 
   It     Res. Norm  Remark
------------------------------------
                       Guess.
    1     8.112e-01  
    2     6.897e-01  
    3     2.993e-01  
    4     2.155e-01  
    5     4.000e-02  
    6     1.796e-02  
    7     3.926e-03  
    8     1.626e-03  
    9     5.452e-04  
   10     6.161e-05  
   11     3.808e-05  
   12     1.562e-05  
   13     1.427e-05  
   14     7.258e-06  
   15     2.903e-06  
   16     1.277e-06  
   17     2.961e-07  Converged.
   ... Converged in 17 steps (norm: 2.96056e-07)
------------------------------------
  Starting TPA DIIS iterations ... 
------------------------------------ 
   It     Res. Norm  Remark
------------------------------------
                       Guess.
    1     1.043e+01  
    2     1.830e+01  
    3     2.727e+00  
    4     1.063e+00  
    5     2.989e-01  
    6     1.366e-01  
    7     3.953e-02  
    8     6.948e-03  
    9     2.847e-03  
   10     4.891e-04  
   11     1.708e-04  
   12     2.821e-05  
   13     1.033e-05  
   14     3.376e-06  
   15     1.521e-06  
   16     4.854e-07  Converged.
   ... Converged in 16 steps (norm: 4.85447e-07)
------------------------------------
  Starting TPA DIIS iterations ... 
------------------------------------ 
   It     Res. Norm  Remark
------------------------------------
                       Guess.
    1     9.896e+00  
    2     1.736e+01  
    3     2.592e+00  
    4     1.030e+00  
    5     2.961e-01  
    6     1.346e-01  
    7     3.876e-02  
    8     6.753e-03  
    9     2.742e-03  
   10     4.785e-04  
   11     1.643e-04  
   12     2.723e-05  
   13     9.973e-06  
   14     3.240e-06  
   15     1.055e-06  
   16     3.165e-07  Converged.
   ... Converged in 16 steps (norm: 3.1651e-07)
------------------------------------
  Starting TPA DIIS iterations ... 
------------------------------------ 
   It     Res. Norm  Remark
------------------------------------
                       Guess.
    1     8.452e-01  
    2     7.611e-01  
    3     3.488e-01  
    4     2.977e-01  
    5     5.077e-02  
    6     2.373e-02  
    7     5.637e-03  
    8     1.847e-03  
    9     7.080e-04  
   10     9.510e-05  
   11     5.892e-05  
   12     2.657e-05  
   13     2.320e-05  
   14     1.233e-05  
   15     5.433e-06  
   16     2.360e-06  
   17     6.230e-07  Converged.
   ... Converged in 17 steps (norm: 6.2299e-07)
------------------------------------
  Starting TPA DIIS iterations ... 
------------------------------------ 
   It     Res. Norm  Remark
------------------------------------
                       Guess.
    1     1.136e+01  
    2     2.049e+01  
    3     2.971e+00  
    4     1.213e+00  
    5     3.432e-01  
    6     1.583e-01  
    7     4.548e-02  
    8     7.982e-03  
    9     3.298e-03  
   10     5.661e-04  
   11     1.968e-04  
   12     3.298e-05  
   13     1.216e-05  
   14     4.107e-06  
   15     1.967e-06  
   16     6.704e-07  Converged.
   ... Converged in 16 steps (norm: 6.70411e-07)
------------------------------------
  Starting TPA DIIS iterations ... 
------------------------------------ 
   It     Res. Norm  Remark
------------------------------------
                       Guess.
    1     1.078e+01  
    2     1.944e+01  
    3     2.824e+00  
    4     1.174e+00  
    5     3.402e-01  
    6     1.560e-01  
    7     4.460e-02  
    8     7.751e-03  
    9     3.175e-03  
   10     5.536e-04  
   11     1.894e-04  
   12     3.190e-05  
   13     1.169e-05  
   14     3.936e-06  
   15     1.312e-06  
   16     4.055e-07  Converged.
   ... Converged in 16 steps (norm: 4.05509e-07)
------------------------------------
  Starting TPA DIIS iterations ... 
------------------------------------ 
   It     Res. Norm  Remark
------------------------------------
                       Guess.
    1     8.601e-01  
    2     7.949e-01  
    3     3.728e-01  
    4     3.388e-01  
    5     5.650e-02  
    6     2.664e-02  
    7     6.564e-03  
    8     1.909e-03  
    9     7.875e-04  
   10     1.136e-04  
   11     7.118e-05  
   12     3.352e-05  
   13     2.831e-05  
   14     1.534e-05  
   15     7.036e-06  
   16     3.052e-06  
   17     8.682e-07  Converged.
   ... Converged in 17 steps (norm: 8.68245e-07)
------------------------------------
  Starting TPA DIIS iterations ... 
------------------------------------ 
   It     Res. Norm  Remark
------------------------------------
                       Guess.
    1     1.224e+01  
    2     2.259e+01  
    3     3.198e+00  
    4     1.358e+00  
    5     3.863e-01  
    6     1.795e-01  
    7     5.126e-02  
    8     8.985e-03  
    9     3.739e-03  
   10     6.408e-04  
   11     2.216e-04  
   12     3.772e-05  
   13     1.404e-05  
   14     4.865e-06  
   15     2.477e-06  
   16     8.959e-07  Converged.
   ... Converged in 16 steps (norm: 8.95867e-07)
------------------------------------
  Starting TPA DIIS iterations ... 
------------------------------------ 
   It     Res. Norm  Remark
------------------------------------
                       Guess.
    1     1.162e+01  
    2     2.144e+01  
    3     3.039e+00  
    4     1.313e+00  
    5     3.829e-01  
    6     1.770e-01  
    7     5.026e-02  
    8     8.718e-03  
    9     3.597e-03  
   10     6.265e-04  
   11     2.134e-04  
   12     3.654e-05  
   13     1.341e-05  
   14     4.646e-06  
   15     1.611e-06  
   16     5.023e-07  Converged.
   ... Converged in 16 steps (norm: 5.02252e-07)
------------------------------------
  Starting TPA DIIS iterations ... 
------------------------------------ 
   It     Res. Norm  Remark
------------------------------------
                       Guess.
    1     8.730e-01  
    2     8.252e-01  
    3     3.947e-01  
    4     3.758e-01  
    5     6.197e-02  
    6     2.929e-02  
    7     7.454e-03  
    8     1.953e-03  
    9     8.606e-04  
   10     1.314e-04  
   11     8.359e-05  
   12     4.085e-05  
   13     3.351e-05  
   14     1.841e-05  
   15     8.721e-06  
   16     3.781e-06  
   17     1.144e-06  
   18     5.856e-07  Converged.
   ... Converged in 18 steps (norm: 5.85593e-07)
------------------------------------
  Two-photon absorbption ...  CPU 81.51 s  wall 19.12 s
  Transition density matrix of state singlet_A_1 printed to ASCII file 'State_singlet_A_1_Transition.txt'
  Transition density matrix of state singlet_A_2 printed to ASCII file 'State_singlet_A_2_Transition.txt'
  Transition density matrix of state singlet_A_3 printed to ASCII file 'State_singlet_A_3_Transition.txt'
  Transition density matrix of state singlet_A_4 printed to ASCII file 'State_singlet_A_4_Transition.txt'
  Transition density matrix of state singlet_A_5 printed to ASCII file 'State_singlet_A_5_Transition.txt'
  Transition density matrix of state singlet_A_6 printed to ASCII file 'State_singlet_A_6_Transition.txt'
  Transition density matrix of state singlet_A_7 printed to ASCII file 'State_singlet_A_7_Transition.txt'
  Transition density matrix of state singlet_A_8 printed to ASCII file 'State_singlet_A_8_Transition.txt'
  Transition density matrix of state singlet_A_9 printed to ASCII file 'State_singlet_A_9_Transition.txt'
  Transition density matrix of state singlet_A_10 printed to ASCII file 'State_singlet_A_10_Transition.txt'
  Transition properties ...  CPU 0.16 s  wall 0.38 s
  Difference density matrix of state singlet_A_1 printed to ASCII file 'State_singlet_A_1_Difference.txt'
  Total density matrix of state singlet_A_1 printed to ASCII file 'State_singlet_A_1_Total.txt'
  Difference density matrix of state singlet_A_2 printed to ASCII file 'State_singlet_A_2_Difference.txt'
  Total density matrix of state singlet_A_2 printed to ASCII file 'State_singlet_A_2_Total.txt'
  Difference density matrix of state singlet_A_3 printed to ASCII file 'State_singlet_A_3_Difference.txt'
  Total density matrix of state singlet_A_3 printed to ASCII file 'State_singlet_A_3_Total.txt'
  Difference density matrix of state singlet_A_4 printed to ASCII file 'State_singlet_A_4_Difference.txt'
  Total density matrix of state singlet_A_4 printed to ASCII file 'State_singlet_A_4_Total.txt'
  Difference density matrix of state singlet_A_5 printed to ASCII file 'State_singlet_A_5_Difference.txt'
  Total density matrix of state singlet_A_5 printed to ASCII file 'State_singlet_A_5_Total.txt'
  Difference density matrix of state singlet_A_6 printed to ASCII file 'State_singlet_A_6_Difference.txt'
  Total density matrix of state singlet_A_6 printed to ASCII file 'State_singlet_A_6_Total.txt'
  Difference density matrix of state singlet_A_7 printed to ASCII file 'State_singlet_A_7_Difference.txt'
  Total density matrix of state singlet_A_7 printed to ASCII file 'State_singlet_A_7_Total.txt'
  Difference density matrix of state singlet_A_8 printed to ASCII file 'State_singlet_A_8_Difference.txt'
  Total density matrix of state singlet_A_8 printed to ASCII file 'State_singlet_A_8_Total.txt'
  Difference density matrix of state singlet_A_9 printed to ASCII file 'State_singlet_A_9_Difference.txt'
  Total density matrix of state singlet_A_9 printed to ASCII file 'State_singlet_A_9_Total.txt'
  Difference density matrix of state singlet_A_10 printed to ASCII file 'State_singlet_A_10_Difference.txt'
  Total density matrix of state singlet_A_10 printed to ASCII file 'State_singlet_A_10_Total.txt'
  Properties ...  CPU 0.30 s  wall 0.62 s
  ISR TDMS ...  CPU 8.85 s  wall 3.16 s
  ISR transition properties ...  CPU 0.17 s  wall 0.08 s
  Sum-over-states TPA ...  CPU 0.00 s  wall 0.00 s

--------------------------------------------------------------------------------
                   State-averaged natural transition orbitals
--------------------------------------------------------------------------------
--------------------------------------------------------------------------------
  SA-NTO decomposition ...  CPU 0.01 s  wall 0.03 s

--------------------------------------------------------------------------------
                             Excited State Summary
--------------------------------------------------------------------------------
--------------------------------------------------------------------------------

  Excited state 1 (singlet, A)                                     [converged]
  ----------------------------------------------------------------------------
  Term symbol:  2 (1) A                                     R^2 =  2.55462e-13

  Total energy:                                            -77.9986393224 a.u.
  Excitation energy:                                               8.737616 eV

  Osc. strength:                                                      0.445859
  Trans. dip. moment [a.u.]:           [  -1.046790,    0.993449,    0.009162]
  <i|r^2|0> [a.u.]:                    [  -6.181926,    0.249757,   -0.000255]
  Two-photon absorption cross-section (SoS) [a.u.]:                   0.002280
  Two-photon absorption matrix (SoS) [a.u.]:
                                       |   -0.013630   -0.011165   -0.000985 |
                                       |   -0.011165   -0.004461   -0.001408 |
                                       |   -0.000985   -0.001408    0.006053 |
  Two-photon absorption cross-section [a.u.]:                         0.001336
  Two-photon absorption matrix [a.u.]:
                                       |   -0.002121   -0.004751   -0.000456 |
                                       |   -0.004751    0.009223   -0.001735 |
                                       |   -0.000456   -0.001735    0.008464 |

  Dip. moment [a.u.]:                  [   0.000849,    0.000531,    0.000786]
  Total dipole [Debye]:                                               0.003237
  <r^2> [a.u.]:                        [ 176.347756,   35.653240,   11.876273]
  Total <r^2> [a.u.]:                                               223.877269

  V1^2 = 0.9714, V2^2 = 0.0286

  Important amplitudes:
      occ i     occ j     vir a      vir b          v   
    -----------------------------------------------------
     8 (A) A              9 (A) A                -0.6811
     6 (A) A             14 (A) A                 0.0622
     4 (A) A             10 (A) A                -0.0609
     7 (A) A             16 (A) A                 0.0570
     5 (A) A             13 (A) A                 0.0515
     6 (A) A             23 (A) A                 0.0486
     8 (A) A             20 (A) A                -0.0350
     6 (A) A             19 (A) A                -0.0307
     3 (A) A             12 (A) A                 0.0281
     5 (A) A             22 (A) A                -0.0215
     7 (A) A             11 (A) A                 0.0206
     4 (A) A             24 (A) A                -0.0188
     3 (A) A             26 (A) A                 0.0186
     8 (A) A   8 (A) B   17 (A) A   20 (A) B      0.0184
     8 (A) A   8 (A) B    9 (A) A   28 (A) B      0.0168
     6 (A) A             26 (A) A                 0.0163
     7 (A) A             21 (A) A                 0.0149
     3 (A) A             14 (A) A                 0.0140
     6 (A) A             12 (A) A                -0.0133
     3 (A) A   4 (A) B    9 (A) A    9 (A) B      0.0129
     3 (A) A             19 (A) A                -0.0119
     8 (A) A   8 (A) B   18 (A) A   19 (A) B      0.0112
     7 (A) A             32 (A) A                 0.0097
     7 (A) A             36 (A) A                 0.0085
     3 (A) A             23 (A) A                 0.0081
     8 (A) A   8 (A) B   25 (A) A   29 (A) B     -0.0076
     6 (A) A             35 (A) A                 0.0070
     6 (A) A             40 (A) A                 0.0068
     3 (A) A   6 (A) B    9 (A) A   28 (A) B      0.0065
     6 (A) A   8 (A) A   19 (A) A   28 (A) A     -0.0061
     5 (A) A   7 (A) B    9 (A) A    9 (A) B     -0.0060
     7 (A) A   8 (A) B   13 (A) A   20 (A) B      0.0059
     5 (A) A   8 (A) B   11 (A) A   20 (A) B      0.0059
     5 (A) A   8 (A) B   16 (A) A    9 (A) B      0.0059
     5 (A) A   8 (A) B   11 (A) A    9 (A) B     -0.0059
     3 (A) A   5 (A) B    9 (A) A   25 (A) B      0.0058
     7 (A) A   8 (A) B   22 (A) A   20 (A) B     -0.0057
     3 (A) A             40 (A) A                 0.0057
     6 (A) A   8 (A) A    9 (A) A   18 (A) A      0.0056
     8 (A) A   8 (A) B   19 (A) A   30 (A) B      0.0056
    -----------------------------------------------------

  Density matrix analysis:
  ------------------------
  NOs
    Occupation of frontier NOs:
       0.9494   1.0218
    Number of electrons: 16.000000
    Number of unpaired electrons: n_u =  2.31398, n_u,nl =  2.03275
    NO participation ratio (PR_NO):  2.865794
  
  
  Mulliken Population Analysis
  Atom      Charge (e)              h+              e-           Del q
  --------------------------------------------------------------------
   1 H        0.058929        0.020338       -0.012551        0.007788
   2 C       -0.114399        0.490872       -0.506041       -0.015170
   3 H        0.058281        0.020170       -0.012586        0.007584
   4 C       -0.121840        0.490730       -0.506488       -0.015758
   5 H        0.058012        0.020156       -0.012551        0.007605
   6 H        0.061017        0.020423       -0.012472        0.007951
  --------------------------------------------------------------------
  Sum:        0.000000        1.062688       -1.062688       -0.000000
  
  Multipole moment analysis of the density matrix
    Molecular charge:                      -0.000000
    Number of electrons:                   16.000000
      Center of electronic charge [Ang]: [ -1.561229,  -0.065620,   0.001952]
    Total nuclear charge:                  16.000000
      Center of nuclear charge [Ang]:    [ -1.561201,  -0.065602,   0.001978]
    Dipole moment [D]:                     0.003237
      Cartesian components [D]:          [  0.002159,   0.001350,   0.001999]
    RMS size of the density [Ang]:         1.215115
      Cartesian components [Ang]:        [  0.805582,   0.787203,   0.455908]
  
  Exciton analysis of the difference density matrix
    <r_h> [Ang]:                  [ -1.560463,  -0.065768,   0.001696]
    <r_e> [Ang]:                  [ -1.560454,  -0.065640,   0.001635]
    |<r_e - r_h>| [Ang]:            0.000142
    Hole size [Ang]:                1.285711
      Cartesian components [Ang]: [  0.729074,   0.712592,   0.783401]
    Electron size [Ang]:            1.463299
      Cartesian components [Ang]: [  0.854284,   0.830451,   0.849585]

  Transition density matrix analysis:
  -----------------------------------
  
  CT numbers (Mulliken)
    omega =     0.9535
    <Phe> =    -0.1606
  
  Exciton analysis of the transition density matrix
    Trans. dipole moment [D]:             1.834110
      Cartesian components [D]:         [ -1.330338,   1.262547,   0.011643]
    <r_h> [Ang]:                        [ -1.560039,  -0.065961,   0.001760]
    <r_e> [Ang]:                        [ -1.560531,  -0.065629,   0.001585]
    |<r_e - r_h>| [Ang]:                  0.000619
    Hole size [Ang]:                      1.214148
      Cartesian components [Ang]:       [  0.649719,   0.636379,   0.804388]
    Electron size [Ang]:                  1.486162
      Cartesian components [Ang]:       [  0.864720,   0.839358,   0.869721]
    RMS electron-hole separation [Ang]:   1.936682
      Cartesian components [Ang]:       [  1.106783,   1.075103,   1.170436]
    Covariance(r_h, r_e) [Ang^2]:        -0.033952
    Correlation coefficient:             -0.018816
    Center-of-mass size [Ang]:            0.950648
      Cartesian components [Ang]:       [  0.527916,   0.515547,   0.599373]

  Decomposition into state-averaged NTOs
    H- 0 -> L+ 0:  0.6699 ( 89.7%)
    H- 2 -> L+ 5:  0.0835 (  1.4%)
                   omega =  95.3%
  ----------------------------------------------------------------------------


  Excited state 2 (singlet, A)                                     [converged]
  ----------------------------------------------------------------------------
  Term symbol:  3 (1) A                                     R^2 =  1.77704e-13

  Total energy:                                            -77.9875477315 a.u.
  Excitation energy:                                               9.039434 eV

  Osc. strength:                                                      0.000046
  Trans. dip. moment [a.u.]:           [  -0.000577,    0.002595,   -0.014140]
  <i|r^2|0> [a.u.]:                    [   0.061876,    0.085428,   -0.149957]
  Two-photon absorption cross-section (SoS) [a.u.]:                   4.956993
  Two-photon absorption matrix (SoS) [a.u.]:
                                       |    0.055716    0.059205   -0.565008 |
                                       |    0.059205    0.062606   -0.535235 |
                                       |   -0.565008   -0.535235   -0.117435 |
  Two-photon absorption cross-section [a.u.]:                         0.088414
  Two-photon absorption matrix [a.u.]:
                                       |   -0.002849   -0.007756    0.077910 |
                                       |   -0.007756   -0.012431    0.068679 |
                                       |    0.077910    0.068679    0.015711 |

  Dip. moment [a.u.]:                  [  -0.001492,    0.031221,    0.003094]
  Total dipole [Debye]:                                               0.079835
  <r^2> [a.u.]:                        [ 174.741375,   34.008605,   13.175582]
  Total <r^2> [a.u.]:                                               221.925562

  V1^2 = 0.9542, V2^2 = 0.0458

  Important amplitudes:
      occ i     occ j     vir a      vir b          v   
    -----------------------------------------------------
     7 (A) A              9 (A) A                 0.6684
     8 (A) A             11 (A) A                -0.1490
     7 (A) A             20 (A) A                 0.0758
     5 (A) A   8 (A) B    9 (A) A    9 (A) B      0.0316
     8 (A) A             16 (A) A                 0.0275
     8 (A) A             10 (A) A                 0.0267
     8 (A) A             21 (A) A                -0.0177
     5 (A) A             28 (A) A                 0.0150
     4 (A) A   7 (A) B    9 (A) A   19 (A) B     -0.0135
     5 (A) A   7 (A) B    9 (A) A   16 (A) B      0.0134
     8 (A) A             12 (A) A                 0.0109
     7 (A) A   8 (A) B   20 (A) A   17 (A) B     -0.0105
     7 (A) A   8 (A) A    9 (A) A   28 (A) A      0.0098
     5 (A) A   8 (A) B    9 (A) A   20 (A) B      0.0095
     4 (A) A   6 (A) B    9 (A) A   16 (A) B      0.0091
     5 (A) A   6 (A) A    9 (A) A   23 (A) A      0.0091
     5 (A) A   6 (A) A    9 (A) A   14 (A) A      0.0089
     5 (A) A   6 (A) B    9 (A) A   19 (A) B     -0.0086
     8 (A) A   7 (A) B    9 (A) A   28 (A) B     -0.0085
     4 (A) A   5 (A) A    9 (A) A   10 (A) A      0.0085
     6 (A) A   7 (A) B    9 (A) A   18 (A) B     -0.0084
     5 (A) A   6 (A) B    9 (A) A   23 (A) B      0.0080
     3 (A) A   7 (A) B    9 (A) A   18 (A) B      0.0079
     5 (A) A   7 (A) A    9 (A) A   16 (A) A      0.0079
     4 (A) A   8 (A) B    9 (A) A   25 (A) B      0.0077
     7 (A) A   8 (A) B   17 (A) A   20 (A) B     -0.0074
     4 (A) A   7 (A) B   19 (A) A    9 (A) B     -0.0074
     5 (A) A   5 (A) B    9 (A) A   13 (A) B      0.0072
     7 (A) A   8 (A) B   19 (A) A   18 (A) B     -0.0071
     5 (A) A   8 (A) A    9 (A) A   20 (A) A      0.0069
     4 (A) A   5 (A) B    9 (A) A   18 (A) B     -0.0068
     7 (A) A   7 (A) B   20 (A) A   22 (A) B      0.0065
     7 (A) A   8 (A) B   17 (A) A    9 (A) B     -0.0065
     5 (A) A   6 (A) B    9 (A) A   14 (A) B      0.0063
     4 (A) A   7 (A) A    9 (A) A   19 (A) A     -0.0061
     4 (A) A   5 (A) B   10 (A) A    9 (A) B     -0.0061
     5 (A) A   7 (A) B   11 (A) A   20 (A) B     -0.0060
     4 (A) A   7 (A) B    9 (A) A   14 (A) B     -0.0060
     4 (A) A   8 (A) A    9 (A) A   25 (A) A      0.0057
     6 (A) A   7 (A) A   19 (A) A   28 (A) A      0.0057
    -----------------------------------------------------

  Density matrix analysis:
  ------------------------
  NOs
    Occupation of frontier NOs:
       0.9558   1.0557
    Number of electrons: 16.000000
    Number of unpaired electrons: n_u =  2.35585, n_u,nl =  2.06436
    NO participation ratio (PR_NO):  3.040847
  
  
  Mulliken Population Analysis
  Atom      Charge (e)              h+              e-           Del q
  --------------------------------------------------------------------
   1 H        0.150457        0.120039       -0.020724        0.099316
   2 C       -0.299644        0.268821       -0.469235       -0.200414
   3 H        0.147154        0.125554       -0.029096        0.096457
   4 C       -0.305262        0.275213       -0.474393       -0.199180
   5 H        0.156982        0.126533       -0.019957        0.106575
   6 H        0.150313        0.127147       -0.029901        0.097246
  --------------------------------------------------------------------
  Sum:        0.000000        1.043306       -1.043306       -0.000000
  
  Multipole moment analysis of the density matrix
    Molecular charge:                      0.000000
    Number of electrons:                   16.000000
      Center of electronic charge [Ang]: [ -1.561152,  -0.066635,   0.001876]
    Total nuclear charge:                  16.000000
      Center of nuclear charge [Ang]:    [ -1.561201,  -0.065602,   0.001978]
    Dipole moment [D]:                     0.079835
      Cartesian components [D]:          [ -0.003791,   0.079357,   0.007864]
    RMS size of the density [Ang]:         1.201022
      Cartesian components [Ang]:        [  0.788093,   0.768616,   0.480201]
  
  Exciton analysis of the difference density matrix
    <r_h> [Ang]:                  [ -1.576301,  -0.060730,   0.001620]
    <r_e> [Ang]:                  [ -1.575104,  -0.076166,   0.000389]
    |<r_e - r_h>| [Ang]:            0.015531
    Hole size [Ang]:                1.487786
      Cartesian components [Ang]: [  1.004777,   0.998126,   0.455714]
    Electron size [Ang]:            1.479369
      Cartesian components [Ang]: [  0.885491,   0.859032,   0.816397]

  Transition density matrix analysis:
  -----------------------------------
  
  CT numbers (Mulliken)
    omega =     0.9217
    <Phe> =    -0.0120
  
  Exciton analysis of the transition density matrix
    Trans. dipole moment [D]:             0.018285
      Cartesian components [D]:         [ -0.000733,   0.003298,  -0.017970]
    <r_h> [Ang]:                        [ -1.577939,  -0.059197,   0.001715]
    <r_e> [Ang]:                        [ -1.574453,  -0.078087,   0.000219]
    |<r_e - r_h>| [Ang]:                  0.019267
    Hole size [Ang]:                      1.516271
      Cartesian components [Ang]:       [  1.027615,   1.022010,   0.445624]
    Electron size [Ang]:                  1.476276
      Cartesian components [Ang]:       [  0.876091,   0.848297,   0.832014]
    RMS electron-hole separation [Ang]:   2.096599
      Cartesian components [Ang]:       [  1.334672,   1.313380,   0.943086]
    Covariance(r_h, r_e) [Ang^2]:         0.041556
    Correlation coefficient:              0.018565
    Center-of-mass size [Ang]:            1.067893
      Cartesian components [Ang]:       [  0.682957,   0.671493,   0.472295]

  Decomposition into state-averaged NTOs
    H- 1 -> L+ 0:  0.6608 ( 87.3%)
    H- 0 -> L+ 2: -0.1497 (  4.5%)
                   omega =  92.2%
  ----------------------------------------------------------------------------


  Excited state 3 (singlet, A)                                     [converged]
  ----------------------------------------------------------------------------
  Term symbol:  4 (1) A                                     R^2 =  1.17146e-13

  Total energy:                                            -77.9829936089 a.u.
  Excitation energy:                                               9.163358 eV

  Osc. strength:                                                      0.024767
  Trans. dip. moment [a.u.]:           [  -0.014956,   -0.020310,    0.331189]
  <i|r^2|0> [a.u.]:                    [  -0.086517,   -0.000517,   -0.008090]
  Two-photon absorption cross-section (SoS) [a.u.]:                   0.004451
  Two-photon absorption matrix (SoS) [a.u.]:
                                       |   -0.007798   -0.001740    0.021704 |
                                       |   -0.001740    0.003522    0.005493 |
                                       |    0.021704    0.005493   -0.002653 |
  Two-photon absorption cross-section [a.u.]:                         0.009670
  Two-photon absorption matrix [a.u.]:
                                       |   -0.009202   -0.001818    0.030994 |
                                       |   -0.001818   -0.000663    0.013525 |
                                       |    0.030994    0.013525    0.001261 |

  Dip. moment [a.u.]:                  [   0.057848,    0.013582,    0.002761]
  Total dipole [Debye]:                                               0.151197
  <r^2> [a.u.]:                        [ 181.435721,   40.580453,   11.034537]
  Total <r^2> [a.u.]:                                               233.050711

  V1^2 = 0.9586, V2^2 = 0.0414

  Important amplitudes:
      occ i     occ j     vir a      vir b          v   
    -----------------------------------------------------
     8 (A) A             10 (A) A                -0.6885
     8 (A) A             24 (A) A                -0.0507
     8 (A) A             18 (A) A                 0.0316
     7 (A) A              9 (A) A                 0.0276
     4 (A) A              9 (A) A                -0.0240
     8 (A) A   8 (A) B    9 (A) A   12 (A) B      0.0219
     8 (A) A   8 (A) B   10 (A) A   17 (A) B     -0.0172
     8 (A) A             15 (A) A                -0.0167
     5 (A) A   8 (A) B   11 (A) A   10 (A) B     -0.0165
     7 (A) A   8 (A) B   13 (A) A   10 (A) B     -0.0141
     4 (A) A   8 (A) B   12 (A) A   10 (A) B      0.0111
     6 (A) A   8 (A) A   10 (A) A   15 (A) A      0.0110
     7 (A) A   8 (A) B   22 (A) A   10 (A) B      0.0108
     6 (A) A   8 (A) B   15 (A) A   10 (A) B     -0.0108
     4 (A) A   8 (A) A   10 (A) A   12 (A) A     -0.0106
     7 (A) A   8 (A) A   10 (A) A   22 (A) A     -0.0099
     7 (A) A   8 (A) A   10 (A) A   13 (A) A      0.0097
     5 (A) A   8 (A) A   10 (A) A   11 (A) A      0.0094
     5 (A) A   8 (A) B   21 (A) A   10 (A) B     -0.0094
     6 (A) A   8 (A) A   10 (A) A   18 (A) A      0.0088
     6 (A) A   8 (A) B   10 (A) A   10 (A) B      0.0087
     7 (A) A   8 (A) A   12 (A) A   16 (A) A     -0.0081
     3 (A) A   4 (A) B   10 (A) A    9 (A) B      0.0079
     5 (A) A   8 (A) A   10 (A) A   21 (A) A      0.0079
     4 (A) A   8 (A) B   19 (A) A   10 (A) B     -0.0075
     8 (A) A   8 (A) B    9 (A) A   23 (A) B     -0.0075
     8 (A) A   8 (A) B   10 (A) A   28 (A) B      0.0073
     3 (A) A   8 (A) B   10 (A) A   10 (A) B     -0.0072
     3 (A) A   8 (A) A   10 (A) A   24 (A) A      0.0071
     5 (A) A   8 (A) B   10 (A) A   11 (A) B     -0.0071
     7 (A) A   8 (A) B   16 (A) A   12 (A) B      0.0070
     3 (A) A   8 (A) B   10 (A) A   18 (A) B      0.0068
     8 (A) A   8 (A) B    9 (A) A   19 (A) B     -0.0068
     6 (A) A   8 (A) B   18 (A) A   10 (A) B     -0.0067
     3 (A) A   6 (A) B   10 (A) A   28 (A) B      0.0062
     6 (A) A             28 (A) A                -0.0057
     7 (A) A   8 (A) B   12 (A) A   11 (A) B     -0.0057
     3 (A) A   5 (A) B   10 (A) A   25 (A) B      0.0056
     5 (A) A   8 (A) A   10 (A) A   16 (A) A     -0.0056
     3 (A) A   8 (A) A   10 (A) A   18 (A) A      0.0055
    -----------------------------------------------------

  Density matrix analysis:
  ------------------------
  NOs
    Occupation of frontier NOs:
       0.9830   0.9834
    Number of electrons: 16.000000
    Number of unpaired electrons: n_u =  2.28904, n_u,nl =  2.02522
    NO participation ratio (PR_NO):  2.700842
  
  
  Mulliken Population Analysis
  Atom      Charge (e)              h+              e-           Del q
  --------------------------------------------------------------------
   1 H       -0.152784        0.054510       -0.258434       -0.203925
   2 C        0.324391        0.534821       -0.111200        0.423621
   3 H       -0.164484        0.053565       -0.268746       -0.215181
   4 C        0.320914        0.538227       -0.111230        0.426997
   5 H       -0.160401        0.054298       -0.265106       -0.210808
   6 H       -0.167637        0.053839       -0.274543       -0.220704
  --------------------------------------------------------------------
  Sum:        0.000000        1.289259       -1.289259        0.000000
  
  Multipole moment analysis of the density matrix
    Molecular charge:                      -0.000000
    Number of electrons:                   16.000000
      Center of electronic charge [Ang]: [ -1.563114,  -0.066052,   0.001887]
    Total nuclear charge:                  16.000000
      Center of nuclear charge [Ang]:    [ -1.561201,  -0.065602,   0.001978]
    Dipole moment [D]:                     0.151197
      Cartesian components [D]:          [  0.147036,   0.034523,   0.007018]
    RMS size of the density [Ang]:         1.277149
      Cartesian components [Ang]:        [  0.855641,   0.840159,   0.439455]
  
  Exciton analysis of the difference density matrix
    <r_h> [Ang]:                  [ -1.562315,  -0.064280,   0.001826]
    <r_e> [Ang]:                  [ -1.585702,  -0.069531,   0.000966]
    |<r_e - r_h>| [Ang]:            0.023985
    Hole size [Ang]:                1.410913
      Cartesian components [Ang]: [  0.835323,   0.819937,   0.787791]
    Electron size [Ang]:            2.076341
      Cartesian components [Ang]: [  1.375733,   1.375382,   0.725862]

  Transition density matrix analysis:
  -----------------------------------
  
  CT numbers (Mulliken)
    omega =     0.9258
    <Phe> =    -0.0109
  
  Exciton analysis of the transition density matrix
    Trans. dipole moment [D]:             0.422118
      Cartesian components [D]:         [ -0.019007,  -0.025812,   0.420899]
    <r_h> [Ang]:                        [ -1.558835,  -0.064330,   0.001830]
    <r_e> [Ang]:                        [ -1.593564,  -0.070840,   0.000663]
    |<r_e - r_h>| [Ang]:                  0.035354
    Hole size [Ang]:                      1.213418
      Cartesian components [Ang]:       [  0.637162,   0.624446,   0.822481]
    Electron size [Ang]:                  2.295198
      Cartesian components [Ang]:       [  1.519671,   1.521458,   0.802309]
    RMS electron-hole separation [Ang]:   2.586484
      Cartesian components [Ang]:       [  1.640650,   1.637607,   1.147351]
    Covariance(r_h, r_e) [Ang^2]:         0.025834
    Correlation coefficient:              0.009276
    Center-of-mass size [Ang]:            1.303072
      Cartesian components [Ang]:       [  0.827681,   0.825806,   0.575313]

  Decomposition into state-averaged NTOs
    H- 0 -> L+ 1:  0.6788 ( 92.2%)
                   omega =  92.6%
  ----------------------------------------------------------------------------


  Excited state 4 (singlet, A)                                     [converged]
  ----------------------------------------------------------------------------
  Term symbol:  5 (1) A                                     R^2 =  2.04473e-13

  Total energy:                                            -77.9589923441 a.u.
  Excitation energy:                                               9.816466 eV

  Osc. strength:                                                      0.000029
  Trans. dip. moment [a.u.]:           [   0.000076,    0.001133,   -0.010839]
  <i|r^2|0> [a.u.]:                    [  -0.018259,   -0.016001,    0.035017]
  Two-photon absorption cross-section (SoS) [a.u.]:                 146.441911
  Two-photon absorption matrix (SoS) [a.u.]:
                                       |   -0.297201   -0.321610    3.070552 |
                                       |   -0.321610   -0.343088    2.909631 |
                                       |    3.070552    2.909631    0.639593 |
  Two-photon absorption cross-section [a.u.]:                        89.720933
  Two-photon absorption matrix [a.u.]:
                                       |   -0.236658   -0.252157    2.412113 |
                                       |   -0.252157   -0.264421    2.268281 |
                                       |    2.412113    2.268281    0.500361 |

  Dip. moment [a.u.]:                  [  -0.053442,   -0.068061,   -0.007392]
  Total dipole [Debye]:                                               0.220751
  <r^2> [a.u.]:                        [ 181.605906,   40.084727,   10.770402]
  Total <r^2> [a.u.]:                                               232.461034

  V1^2 = 0.9634, V2^2 = 0.0366

  Important amplitudes:
      occ i     occ j     vir a      vir b          v   
    -----------------------------------------------------
     8 (A) A             11 (A) A                 0.6688
     7 (A) A              9 (A) A                 0.1511
     8 (A) A             21 (A) A                 0.0779
     8 (A) A             16 (A) A                -0.0649
     8 (A) A             12 (A) A                -0.0289
     8 (A) A   8 (A) B    9 (A) A   13 (A) B     -0.0166
     5 (A) A   8 (A) B   11 (A) A   11 (A) B      0.0156
     8 (A) A   8 (A) B   11 (A) A   17 (A) B      0.0139
     6 (A) A              9 (A) A                 0.0139
     7 (A) A             20 (A) A                 0.0138
     7 (A) A   8 (A) B   13 (A) A   11 (A) B      0.0127
     5 (A) A   8 (A) A   11 (A) A   21 (A) A     -0.0110
     4 (A) A   8 (A) B   12 (A) A   11 (A) B     -0.0109
     8 (A) A   8 (A) B    9 (A) A   22 (A) B      0.0108
     7 (A) A   8 (A) A   11 (A) A   22 (A) A      0.0096
     6 (A) A   8 (A) B   10 (A) A   11 (A) B     -0.0090
     6 (A) A   8 (A) B   15 (A) A   11 (A) B      0.0090
     7 (A) A   8 (A) B   22 (A) A   11 (A) B     -0.0089
     3 (A) A   4 (A) B   11 (A) A    9 (A) B     -0.0083
     3 (A) A   8 (A) B   11 (A) A   18 (A) B     -0.0080
     6 (A) A   8 (A) A   11 (A) A   15 (A) A     -0.0080
     7 (A) A   8 (A) A   13 (A) A   16 (A) A      0.0078
     7 (A) A   8 (A) A   11 (A) A   13 (A) A     -0.0076
     8 (A) A             10 (A) A                 0.0076
     5 (A) A   8 (A) B   21 (A) A   11 (A) B      0.0071
     4 (A) A   8 (A) B   19 (A) A   11 (A) B      0.0070
     5 (A) A   8 (A) B    9 (A) A    9 (A) B      0.0068
     4 (A) A   8 (A) A   11 (A) A   12 (A) A      0.0062
     6 (A) A   8 (A) A   11 (A) A   18 (A) A     -0.0062
     3 (A) A   6 (A) B   11 (A) A   28 (A) B     -0.0060
     6 (A) A   8 (A) B   18 (A) A   11 (A) B      0.0060
     7 (A) A   8 (A) B   16 (A) A   13 (A) B     -0.0057
     3 (A) A   8 (A) A   11 (A) A   18 (A) A     -0.0056
     5 (A) A   8 (A) B   10 (A) A   10 (A) B      0.0056
     3 (A) A   8 (A) B   11 (A) A   30 (A) B     -0.0055
     3 (A) A   5 (A) B   11 (A) A   25 (A) B     -0.0054
     6 (A) A   8 (A) B   11 (A) A   10 (A) B     -0.0054
     7 (A) A   8 (A) B   12 (A) A   10 (A) B      0.0054
     8 (A) A   8 (A) B   20 (A) A   22 (A) B      0.0053
     3 (A) A   8 (A) A   11 (A) A   24 (A) A     -0.0053
    -----------------------------------------------------

  Density matrix analysis:
  ------------------------
  NOs
    Occupation of frontier NOs:
       0.9399   1.0286
    Number of electrons: 16.000000
    Number of unpaired electrons: n_u =  2.31974, n_u,nl =  2.04978
    NO participation ratio (PR_NO):  2.920352
  
  
  Mulliken Population Analysis
  Atom      Charge (e)              h+              e-           Del q
  --------------------------------------------------------------------
   1 H       -0.169623        0.045431       -0.266194       -0.220764
   2 C        0.274293        0.495988       -0.122466        0.373522
   3 H       -0.101314        0.047282       -0.199294       -0.152011
   4 C        0.265680        0.497121       -0.125359        0.371762
   5 H       -0.125090        0.047575       -0.223072       -0.175497
   6 H       -0.143946        0.045390       -0.242402       -0.197013
  --------------------------------------------------------------------
  Sum:        0.000000        1.178787       -1.178787       -0.000000
  
  Multipole moment analysis of the density matrix
    Molecular charge:                      -0.000000
    Number of electrons:                   16.000000
      Center of electronic charge [Ang]: [ -1.559434,  -0.063351,   0.002223]
    Total nuclear charge:                  16.000000
      Center of nuclear charge [Ang]:    [ -1.561201,  -0.065602,   0.001978]
    Dipole moment [D]:                     0.220751
      Cartesian components [D]:          [ -0.135835,  -0.172994,  -0.018790]
    RMS size of the density [Ang]:         1.277744
      Cartesian components [Ang]:        [  0.864056,   0.835189,   0.434162]
  
  Exciton analysis of the difference density matrix
    <r_h> [Ang]:                  [ -1.559655,  -0.063380,   0.001978]
    <r_e> [Ang]:                  [ -1.535274,  -0.032472,   0.005595]
    |<r_e - r_h>| [Ang]:            0.039532
    Hole size [Ang]:                1.395082
      Cartesian components [Ang]: [  0.819341,   0.806398,   0.790350]
    Electron size [Ang]:            2.122225
      Cartesian components [Ang]: [  1.474647,   1.367444,   0.677755]

  Transition density matrix analysis:
  -----------------------------------
  
  CT numbers (Mulliken)
    omega =     0.9297
    <Phe> =    -0.0137
  
  Exciton analysis of the transition density matrix
    Trans. dipole moment [D]:             0.013850
      Cartesian components [D]:         [  0.000097,   0.001440,  -0.013775]
    <r_h> [Ang]:                        [ -1.560830,  -0.065500,   0.001689]
    <r_e> [Ang]:                        [ -1.530966,  -0.025777,   0.006284]
    |<r_e - r_h>| [Ang]:                  0.049909
    Hole size [Ang]:                      1.228187
      Cartesian components [Ang]:       [  0.656806,   0.652167,   0.807297]
    Electron size [Ang]:                  2.259393
      Cartesian components [Ang]:       [  1.572388,   1.454113,   0.719728]
    RMS electron-hole separation [Ang]:   2.561353
      Cartesian components [Ang]:       [  1.695487,   1.586548,   1.081075]
    Covariance(r_h, r_e) [Ang^2]:         0.027630
    Correlation coefficient:              0.009957
    Center-of-mass size [Ang]:            1.291178
      Cartesian components [Ang]:       [  0.856419,   0.800621,   0.541011]

  Decomposition into state-averaged NTOs
    H- 0 -> L+ 2:  0.6636 ( 88.1%)
    H- 1 -> L+ 0:  0.1490 (  4.4%)
                   omega =  93.0%
  ----------------------------------------------------------------------------


  Excited state 5 (singlet, A)                                     [converged]
  ----------------------------------------------------------------------------
  Term symbol:  6 (1) A                                     R^2 =  1.75949e-13

  Total energy:                                            -77.9447408333 a.u.
  Excitation energy:                                              10.204269 eV

  Osc. strength:                                                      0.000003
  Trans. dip. moment [a.u.]:           [  -0.000137,   -0.000095,    0.003733]
  <i|r^2|0> [a.u.]:                    [   0.084816,   -0.103994,    0.018655]
  Two-photon absorption cross-section (SoS) [a.u.]:                 183.417780
  Two-photon absorption matrix (SoS) [a.u.]:
                                       |    0.313440    0.027635   -3.273777 |
                                       |    0.027635   -0.408758    3.474301 |
                                       |   -3.273777    3.474301    0.103875 |
  Two-photon absorption cross-section [a.u.]:                        83.470422
  Two-photon absorption matrix [a.u.]:
                                       |    0.212026    0.018044   -2.186208 |
                                       |    0.018044   -0.275112    2.364505 |
                                       |   -2.186208    2.364505    0.073974 |

  Dip. moment [a.u.]:                  [  -0.003709,    0.013652,    0.000886]
[...]
    16   -1.468434479921e-03
    17   -1.728034856692e-03
    18   -3.600338124552e-04
    19   -3.182664857381e-03
    20    1.151895621653e-02
    21    9.351372291234e-01
    22   -2.841474991507e-04
    23    1.394733243366e-02
    24    8.157026179084e-04
    25    7.104594149586e-02
    26   -5.328778122847e-02
    27   -1.401440925283e+00
    28    1.007912215576e-01
    29   -9.146743338465e-02
    30   -9.310971084815e-04
    31    3.918932044450e-01
    32   -3.608804979862e-01
    33   -3.943153961035e-03
    34    1.551820018029e-02
    35   -1.436301274314e-03
    36   -1.794546042282e-03
    37    1.416468892416e-04
    38   -3.184971723995e-03
    39    1.026723075139e-02
    40    9.306591466172e-01
    41    2.982064895019e-04
    42   -1.389816750282e-02
    43   -8.275408491918e-04
    44    1.129126762973e-02
    45    9.494339881021e-01
    46    1.408899238817e-02
    47    3.732467892366e-04
    48    6.743998123658e-04
Sym=X
Ene= 0.232542
Spin=Alpha
Occup=0
     1    2.797185366104e-02
     2    1.296993623383e+00
     3   -1.520335651915e-02
     4   -4.352160023629e-03
     5   -9.728882280270e-04
     6    8.784084902117e-03
     7   -8.959009210961e-03
     8   -1.505735468464e-01
     9   -1.577155589136e-01
    10   -1.536786735981e-01
    11   -1.655523865926e-02
    12   -5.695011826676e-01
    13   -5.367281412394e-01
    14   -5.868565280584e-02
    15    1.964146435270e-03
    16   -2.093314309122e-04
    17   -2.655419673973e-04
    18    2.744813222065e-04
    19   -1.131111096383e-03
    20   -2.470397763693e-02
    21   -1.081458935468e+00
    22   -2.016327527249e-03
    23   -1.230764803106e-02
    24   -8.276163882603e-04
    25   -7.283121442054e-03
    26    7.960688804872e-03
    27    1.065139600996e-01
    28   -1.577060357780e-01
    29   -1.566064584582e-01
    30   -1.676221480915e-02
    31   -5.562644653364e-01
    32   -5.422977331432e-01
    33   -5.855452224593e-02
    34   -1.227083071763e-03
    35    1.366895066442e-04
    36    1.252521377152e-04
    37    2.545604861761e-04
    38    7.640620718574e-04
    39    2.356303249161e-02
    40    1.099654106044e+00
    41   -2.102475615793e-03
    42   -1.282378433654e-02
    43   -8.660831630345e-04
    44   -2.866122970979e-02
    45   -1.260317224052e+00
    46   -1.453002720914e-02
    47   -4.162371799794e-03
    48   -9.292836092158e-04
Sym=X
Ene= 0.239031
Spin=Alpha
Occup=0
     1    1.521662751769e-02
     2    9.793931703100e-01
     3   -1.560351470560e-02
     4   -8.891897571975e-03
     5   -1.275106437530e-03
     6    8.673603646823e-02
     7   -8.018198321113e-02
     8   -1.594512669725e+00
     9   -4.394267419861e-02
    10    7.064899986903e-02
    11    1.949142662782e-03
    12   -1.788681665216e-01
    13    2.742155511982e-01
    14    7.052644078473e-03
    15    2.254608586306e-02
    16   -2.604904612736e-03
    17   -2.972924194187e-03
    18    8.398884550371e-04
    19   -1.287460632355e-02
    20    1.786636684513e-02
    21    1.200399867934e+00
    22    8.641068152684e-03
    23    1.868313594128e-02
    24    1.506958821755e-03
    25   -8.579032249765e-02
    26    7.898285220380e-02
    27    1.571017222636e+00
    28   -4.501986836651e-02
    29    6.924002718417e-02
    30    2.303767677367e-03
    31   -1.783899977063e-01
    32    2.703499363131e-01
    33    8.882002638581e-03
    34   -2.208954943799e-02
    35    2.509041742331e-03
    36    2.968308525081e-03
    37   -9.147984591605e-04
    38    1.263649315806e-02
    39   -1.874847401737e-02
    40   -1.188087157204e+00
    41    8.643034798342e-03
    42    1.846550359135e-02
    43    1.528718376300e-03
    44   -1.530423125503e-02
    45   -9.617393474145e-01
    46   -1.505979025497e-02
    47   -9.003818824996e-03
    48   -1.225503846983e-03
Sym=X
Ene= 0.303191
Spin=Alpha
Occup=0
     1   -2.139787748431e-02
     2    1.695966204045e+00
     3   -2.311371194979e-02
     4    2.512448569850e-04
     5   -1.088586468816e-03
     6   -9.439455429333e-05
     7    5.055592938590e-04
     8   -5.282788732624e-03
     9   -1.346467423914e-01
    10   -1.398540403481e-01
    11   -1.464063112799e-02
    12   -1.143483275218e+00
    13   -1.196255279361e+00
    14   -1.249780935871e-01
    15   -7.811432819601e-05
    16   -1.678297787512e-03
    17    1.864186937728e-03
    18   -3.305948266729e-02
    19   -1.634438316303e-03
    20    2.068845736402e-02
    21   -1.689509866965e+00
    22    1.480794205230e-03
    23   -2.293648838107e-02
    24   -1.276759964617e-03
    25   -2.053776016117e-04
    26    2.624951822673e-04
    27    1.491619455896e-02
    28    1.351006514175e-01
    29    1.401162336719e-01
    30    1.472713800885e-02
    31    1.136027756414e+00
    32    1.191382745975e+00
    33    1.245104189031e-01
    34   -4.575845772171e-04
    35   -1.519271117946e-03
    36    1.969329518311e-03
    37   -3.242626984531e-02
    38   -1.300985695956e-03
    39    1.999105898914e-02
    40   -1.688967255319e+00
    41   -1.452011383358e-03
    42    2.297223773147e-02
    43    1.307954530532e-03
    44   -1.893495582357e-02
    45    1.673780498534e+00
    46    2.294468587936e-02
    47   -4.015661726165e-04
    48    1.051178324522e-03
Sym=X
Ene= 0.461993
Spin=Alpha
Occup=0
     1   -1.159547247102e-01
     2   -7.156947207797e-01
     3   -1.560591316987e-02
     4   -1.038746863903e-02
     5   -1.347999006665e-03
     6    6.083417382225e-02
     7    1.779743442425e-02
     8   -3.593322217531e+00
     9    1.023111819570e-01
    10   -9.844547860188e-02
    11   -1.010458948646e-03
    12    2.430093487940e+00
    13   -2.302199601077e+00
    14   -2.068097408279e-02
    15    5.371276142956e-02
    16   -3.353248978508e-03
    17   -4.672910246278e-03
    18   -6.287752360198e-04
    19    1.796437423750e-02
    20   -1.214858098383e-01
    21   -6.987593484584e-01
    22    8.786464242235e-03
    23    1.643195932481e-02
    24    1.391085855536e-03
    25   -6.124190984214e-02
    26   -1.619271487311e-02
    27    3.603873682484e+00
    28    1.054583693705e-01
    29   -1.011163927914e-01
    30   -1.306413533312e-03
    31    2.413812768102e+00
    32   -2.303010144580e+00
    33   -2.278928603602e-02
    34   -5.278503450551e-02
    35    3.248367583840e-03
    36    4.470672842704e-03
    37    1.045242820708e-03
    38   -1.950063183590e-02
    39    1.147390459480e-01
    40    7.144701991331e-01
    41    8.565215067208e-03
    42    1.608815449595e-02
    43    1.354802278686e-03
    44    1.115313684171e-01
    45    7.012556860987e-01
    46   -1.533101913843e-02
    47   -1.009161257337e-02
    48   -1.334525919026e-03
Sym=X
Ene= 0.577692
Spin=Alpha
Occup=0
     1    2.503214177407e-01
     2    3.652859768568e-02
     3   -1.811430067782e-02
     4    2.523408476249e-02
     5    6.352938223623e-04
     6   -4.306333878913e-03
     7   -1.579861327954e-01
     8   -4.761570725274e-01
     9    2.998509776912e-01
    10   -2.886191502862e-01
    11   -2.923886223534e-03
    12   -7.130464340523e-01
    13    6.903761648087e-01
    14    7.343881459163e-03
    15   -5.471051600987e-03
    16    3.894928240672e-03
    17    3.622871452663e-03
    18   -3.266927549225e-03
    19    6.025127040378e-02
    20    2.504540526825e-01
    21    3.035698398046e-02
    22   -2.671520914596e-02
    23    1.711990774305e-02
    24   -2.525147937597e-04
    25   -6.057538278722e-03
    26   -1.594870240665e-01
    27   -3.917530781501e-01
    28   -2.964450502932e-01
    29    2.864392070198e-01
    30    2.905592321555e-03
    31    7.592999759198e-01
    32   -7.479966301169e-01
    33   -8.856608889042e-03
    34   -5.729509664202e-03
    35    3.845941994337e-03
    36    3.727946031730e-03
    37   -4.565028075265e-03
    38    6.014922909053e-02
    39    2.545223885818e-01
    40    5.348890790149e-02
    41    2.696981386690e-02
    42   -1.685429312492e-02
    43    2.545260551803e-04
    44    2.423654452190e-01
    45    5.315758481115e-02
    46    2.004038797967e-02
    47   -2.709454848503e-02
    48   -6.834954082357e-04
Sym=X
Ene= 0.614461
Spin=Alpha
Occup=0
     1   -5.174881084267e-01
     2    2.005740512807e-01
     3   -6.110904025419e-02
     4    3.790401212327e-02
     5   -6.633072715725e-04
     6   -6.263187766595e-04
     7    8.769192353502e-04
     8   -2.270328212175e-02
     9   -3.960954596292e-02
    10   -4.005684550864e-02
    11   -4.265420414110e-03
    12    2.991299704860e-01
    13    2.895272954647e-01
    14    3.123585086180e-02
    15    1.485233797598e-03
    16   -7.465538733903e-03
    17    8.286643297966e-03
    18   -1.474856704269e-01
    19   -5.341576322134e-03
    20    5.107119602155e-01
    21   -1.999264295354e-01
    22    4.118530043583e-02
    23   -5.812505275678e-02
    24   -1.483565948422e-03
    25    7.641903893858e-04
    26   -4.213744414599e-03
    27    3.006570615349e-02
    28   -3.907456597200e-02
    29   -3.698278101417e-02
    30   -4.044269086699e-03
    31    2.937244001140e-01
    32    2.759144812132e-01
    33    3.037526445274e-02
    34   -3.689136567553e-03
    35    7.680571701643e-03
    36   -8.347209240478e-03
    37    1.501028765418e-01
    38    7.389612498489e-03
    39   -5.066845680769e-01
    40    2.112987532799e-01
    41    4.151555025815e-02
    42   -5.822296437419e-02
    43   -1.542326600856e-03
    44    5.342252204632e-01
    45   -2.326607722185e-01
    46   -6.193133543439e-02
    47    3.703139512929e-02
    48   -6.767320403074e-04
Sym=X
Ene= 0.689046
Spin=Alpha
Occup=0
     1    5.299269566147e-04
     2    7.774195239078e-05
     3    1.086683012476e-03
     4    1.295699860059e-03
     5   -2.096725017542e-02
     6    3.539524761054e-05
     7    3.861834712325e-04
     8    1.888376597025e-05
     9    3.149016741638e-02
    10    3.987965543904e-02
    11   -6.701822428467e-01
    12   -2.944178986551e-02
    13   -3.591247517487e-02
    14    6.136533162842e-01
    15   -1.435647096868e-03
    16    8.270080298325e-02
    17   -7.844824224208e-02
    18   -8.585083209574e-03
    19   -1.071829840795e-03
    20    5.283168999127e-04
    21   -9.962984737118e-07
    22    9.260552794255e-04
    23    1.137846394387e-03
    24   -2.092571008029e-02
    25    1.527471253374e-05
    26    5.908780425995e-04
    27   -6.342239294441e-04
    28    3.180391129633e-02
    29    3.978926782075e-02
    30   -6.704272368194e-01
    31   -2.971290349933e-02
    32   -3.581220631422e-02
    33    6.129200980871e-01
    34    1.121210532056e-03
    35   -8.251272866266e-02
    36    7.849516221425e-02
    37    8.544141514311e-03
    38    1.181385488809e-03
    39    1.932861900955e-04
    40   -6.508187818914e-04
    41    1.010504565190e-03
    42    1.412094519073e-03
    43   -2.115781012827e-02
    44    1.698139806609e-04
    45   -5.747099596938e-04
    46    7.722040823456e-04
    47    1.147408682257e-03
    48   -1.938041787273e-02
Sym=X
Ene= 0.707952
Spin=Alpha
Occup=0
     1   -4.755179231612e-01
     2    1.545413361075e-01
     3   -8.015285308893e-02
     4   -4.335758249979e-02
     5   -6.405241648400e-03
     6   -4.665533397577e-02
     7   -3.208365996963e-01
     8    5.014344828422e-01
     9    2.042325531180e-01
    10   -1.924346029212e-01
    11   -2.360771718160e-03
    12   -9.021503395642e-02
    13    7.500331714520e-02
    14    4.254083390873e-04
    15    1.911223778807e-01
    16   -2.027218012446e-02
    17   -2.351146133974e-02
    18    1.529652500146e-03
    19   -7.730753845656e-02
    20   -4.662591594470e-01
    21    1.389660924957e-01
    22    4.138896140856e-02
    23    7.939965392688e-02
    24    6.617196487873e-03
    25   -4.742218277866e-02
    26   -3.137287260543e-01
    27    4.581081039974e-01
    28   -2.068745030954e-01
    29    1.865911371538e-01
    30    7.136131010200e-04
    31    8.649661001704e-02
    32   -4.093680022478e-02
    33    2.799361312611e-03
    34    1.954596571179e-01
    35   -2.050080991512e-02
    36   -2.399924767088e-02
    37    2.697505993932e-03
    38   -7.572909775535e-02
    39   -4.827705130735e-01
    40    1.333161515365e-01
    41   -4.039508711456e-02
    42   -8.182880349995e-02
    43   -6.775328454029e-03
    44   -4.823589920778e-01
    45    1.775612564934e-01
    46    8.141375341913e-02
    47    4.430137701679e-02
    48    6.486476741749e-03
Sym=X
Ene= 0.783108
Spin=Alpha
Occup=0
     1   -5.272420529032e-01
     2    4.717669836239e-01
     3   -1.106669734635e-01
     4   -2.762731931081e-02
     5   -6.883191808169e-03
     6   -9.146638404089e-02
     7    2.078729415944e-01
     8    6.529273067814e-01
     9   -1.059423840980e-01
    10    1.028589396382e-01
    11    1.118031563658e-04
    12   -3.224165020625e-01
    13    2.946339946804e-01
    14    3.988980732819e-03
    15    2.088851220423e-01
    16   -1.782605837176e-02
    17   -2.207569240662e-02
    18    1.286689213041e-03
    19   -1.072030569583e-02
    20   -5.468097401342e-01
    21    4.700807821092e-01
    22    1.989926150372e-02
    23    1.135346628668e-01
    24    7.644592750727e-03
    25    9.017145099931e-02
    26   -2.252240551875e-01
    27   -6.335805713059e-01
    28   -1.025171205095e-01
    29    1.159880475658e-01
    30    2.808838920885e-03
    31   -3.391970735783e-01
    32    2.658693988050e-01
    33   -2.033032426244e-03
    34   -2.034588000651e-01
    35    1.711471633027e-02
    36    2.162136895786e-02
    37    4.072695080153e-04
    38    8.248868813681e-03
    39    5.359579789656e-01
    40   -4.479678830339e-01
    41    1.952045931757e-02
    42    1.093377103901e-01
    43    7.446966286165e-03
    44    5.286896166028e-01
    45   -4.985233277841e-01
    46   -1.099840024968e-01
    47   -2.703238496675e-02
    48   -6.795281902753e-03
Sym=X
Ene= 0.807897
Spin=Alpha
Occup=0
     1    5.444964188942e-04
     2   -7.611786239736e-04
     3    1.771201652082e-03
     4    2.001359968180e-03
     5   -3.382273830382e-02
     6    1.143865551527e-04
     7   -3.847250268289e-04
     8   -7.149735336941e-05
     9    3.636872926577e-02
    10    4.486330283870e-02
    11   -7.631668019855e-01
    12   -5.303450285534e-02
    13   -6.681481033038e-02
    14    1.126888493760e+00
    15    6.990739727509e-04
    16   -6.520464309046e-02
    17    6.204197730100e-02
    18    6.798105312833e-03
    19    8.366087949592e-04
    20    5.764897738628e-04
    21   -5.100921560648e-04
    22    1.666102335480e-03
    23    1.897573091433e-03
    24   -3.451972890652e-02
    25   -9.591116287177e-05
    26    5.738173186237e-05
    27    2.266708853180e-04
    28   -3.583629571919e-02
    29   -4.574800332121e-02
    30    7.634947500865e-01
    31    5.360605021712e-02
    32    6.683451787024e-02
    33   -1.126438803131e+00
    34    1.336954749574e-03
    35   -6.528025176291e-02
    36    6.190948067762e-02
    37    6.728015871801e-03
    38    9.900606677902e-04
    39   -5.437298907670e-04
    40    5.930454571556e-04
    41   -1.560805267150e-03
    42   -2.275975822203e-03
    43    3.442236880358e-02
    44   -5.451736875931e-04
    45    8.800883273264e-04
    46   -1.247363562636e-03
    47   -1.923583825028e-03
    48    3.183475433135e-02
Sym=X
Ene= 0.861592
Spin=Alpha
Occup=0
     1    6.172498519812e-03
     2   -1.079195314261e+00
     3    1.449328139273e-01
     4    5.680749856549e-02
     5    1.020606828928e-02
     6   -7.429743946534e-04
     7    6.731615992880e-03
     8   -7.748757018760e-03
     9   -4.047749654590e-01
    10   -4.209667887274e-01
    11   -4.399398174086e-02
    12    9.374758838369e-01
    13    9.862027970439e-01
    14    1.025763934099e-01
    15    1.370569678670e-03
    16    1.150920182508e-02
    17   -1.352423793636e-02
    18    2.332079471465e-01
    19    1.077692113948e-02
    20   -1.407930359737e-02
    21    1.096447520037e+00
    22    5.048761370451e-02
    23    1.504392524516e-01
    24    1.131724808626e-02
    25    1.420286846822e-03
    26    7.834076199852e-03
    27   -4.566262098264e-03
    28   -4.180375327505e-01
    29   -4.317709619539e-01
    30   -4.552060843687e-02
    31    9.606392348545e-01
    32    1.005000268242e+00
    33    1.053552606510e-01
    34   -4.651890048355e-03
    35   -1.130451278886e-02
    36    1.409158233478e-02
    37   -2.359609265956e-01
    38   -1.039170948997e-02
    39    2.078909625462e-02
    40   -1.108987038564e+00
    41    4.880233063079e-02
    42    1.543114825969e-01
    43    1.156577573479e-02
    44   -9.394288309869e-03
    45    1.094751921495e+00
    46    1.484703891291e-01
    47    5.578018241573e-02
    48    1.024972335917e-02
Sym=X
Ene= 0.934637
Spin=Alpha
Occup=0
     1   -1.200035057140e-01
     2    1.283081607818e+00
     3   -1.841599828654e-01
     4    6.248348550154e-03
     5   -8.409355352853e-03
     6   -1.052107270016e-03
     7    1.090096534662e-02
     8   -4.095807043513e-02
     9    4.672412509275e-01
    10    5.120818397682e-01
    11    5.243625794588e-02
    12   -1.442678352368e+00
    13   -1.559762485001e+00
    14   -1.606413768369e-01
    15    1.342136813189e-03
    16   -6.001397273075e-03
    17    7.244951689687e-03
    18   -1.251665207929e-01
    19    2.490404602309e-03
    20    1.198162589883e-01
    21   -1.297093493506e+00
    22    1.011448104764e-02
    23   -1.841130157356e-01
    24   -1.034851262373e-02
    25    1.934129357886e-03
    26    1.898738373280e-02
    27   -1.044709392778e-02
    28   -4.842619764845e-01
    29   -4.806773562798e-01
    30   -5.144958676487e-02
    31    1.479675823596e+00
    32    1.472970249706e+00
    33    1.574606433682e-01
    34   -6.943710711694e-03
    35   -5.441486830603e-03
    36    7.305581658129e-03
    37   -1.166350769496e-01
    38   -1.006572555145e-02
    39    1.237042414186e-01
    40   -1.236426954236e+00
    41   -1.566676202861e-02
    42    1.784810806844e-01
    43    9.906677846102e-03
    44   -1.152859785098e-01
    45    1.280477586340e+00
    46    1.810939492500e-01
    47   -3.803997134083e-03
    48    8.300340484823e-03
Sym=X
Ene= 0.972102
Spin=Alpha
Occup=0
     1   -6.314315642096e-02
     2    9.379988728183e-01
     3   -9.200668005902e-02
     4   -9.746278417651e-02
     5   -1.015057698752e-02
     6    2.551803846428e-02
     7    2.387409290675e-01
     8    5.410500194868e-01
     9    4.878671949074e-01
    10   -4.437158641727e-01
    11   -2.980023734380e-03
    12   -1.517268627304e+00
    13    1.365683345445e+00
    14    8.444532560704e-03
    15   -5.430193055885e-02
    16   -1.276876469396e-02
    17   -9.468594494814e-03
    18    1.228132168470e-02
    19   -2.999214273312e-01
    20   -6.003863977014e-02
    21    8.721625561978e-01
    22    9.471458737383e-02
    23    8.774522327441e-02
    24    9.671809004627e-03
    25   -2.575708728546e-02
    26   -2.533133808370e-01
    27   -5.170673183586e-01
    28    4.696143852627e-01
    29   -4.700144372655e-01
    30   -6.119015400444e-03
    31   -1.444202871566e+00
    32    1.462438180851e+00
    33    1.961541881094e-02
    34    5.468300379925e-02
    35    1.234690327735e-02
    36    9.853124725289e-03
    37   -1.906622792961e-02
    38    2.996623180944e-01
    39    6.263206420654e-02
    40   -9.542843874565e-01
    41    9.470980277881e-02
    42    9.894825587968e-02
    43    1.048162844960e-02
    44    6.490379621059e-02
    45   -8.752527984789e-01
    46   -8.478075908486e-02
    47   -9.739100282246e-02
    48   -9.661595578810e-03
[5D]

======= END OF MOLDEN-FORMATTED INPUT FILE =======


        *************************************************************
        *                                                           *
        *  Thank you very much for using Q-Chem.  Have a nice day.  *
        *                                                           *
        *************************************************************


