                  Welcome to Q-Chem
     A Quantum Leap Into The Future Of Chemistry


 Q-Chem 5.4 (devel), Q-Chem, Inc., Pleasanton, CA (2021)

 E. Epifanovsky,  A. T. B. Gilbert,  Xintian Feng,  Joonho Lee,  Yuezhi Mao,  
 N. Mardirossian,  P. Pokhilko,  A. White,  M. Wormit,  M. P. Coons,  
 A. L. Dempwolff,  Zhengting Gan,  D. Hait,  P. R. Horn,  L. D. Jacobson,  
 I. Kaliman,  J. Kussmann,  A. W. Lange,  Ka Un Lao,  D. S. Levine,  Jie Liu,  
 S. C. McKenzie,  A. F. Morrison,  K. Nanda,  F. Plasser,  D. R. Rehn,  
 M. L. Vidal,  Zhi-Qiang You,  Ying Zhu,  B. Alam,  B. Albrecht,  
 A. Aldossary,  E. Alguire,  J. H. Andersen,  D. Barton,  K. Begam,  A. Behn,  
 Y. A. Bernard,  E. J. Berquist,  H. Burton,  A. Carreras,  K. Carter-Fenk,  
 R. Chakraborty,  A. D. Chien,  K. D. Closser,  V. Cofer-Shabica,  
 S. Dasgupta,  Jia Deng,  M. de Wergifosse,  M. Diedenhofen,  Hainam Do,  
 S. Ehlert,  Po-Tung Fang,  S. Fatehi,  Qingguo Feng,  T. Friedhoff,  
 J. Gayvert,  Qinghui Ge,  G. Gidofalvi,  M. Goldey,  J. Gomes,  
 C. Gonzalez-Espinoza,  S. Gulania,  A. Gunina,  M. W. D. Hanson-Heine,  
 P. H. P. Harbach,  A. W. Hauser,  M. F. Herbst,  M. Hernandez Vera,  
 M. Hodecker,  Z. C. Holden,  S. Houck,  Xunkun Huang,  Kerwin Hui,  
 B. C. Huynh,  M. Ivanov,  Hyunjun Ji,  Hanjie Jiang,  B. Kaduk,  S. Kaehler,  
 K. Khistyaev,  Jaehoon Kim,  P. Klunzinger,  Z. Koczor-Benda,  
 Joong Hoon Koh,  D. Kosenkov,  L. Koulias,  T. Kowalczyk,  C. M. Krauter,  
 K. Kue,  A. Kunitsa,  T. Kus,  A. Landau,  K. V. Lawler,  D. Lefrancois,  
 S. Lehtola,  Rain Li,  Yi-Pei Li,  Jiashu Liang,  M. Liebenthal,  
 Hung-Hsuan Lin,  You-Sheng Lin,  Fenglai Liu,  Kuan-Yu Liu,  
 M. Loipersberger,  A. Luenser,  A. Manjanath,  P. Manohar,  E. Mansoor,  
 S. F. Manzer,  Shan-Ping Mao,  A. V. Marenich,  T. Markovich,  S. Mason,  
 S. A. Maurer,  P. F. McLaughlin,  M. F. S. J. Menger,  J.-M. Mewes,  
 S. A. Mewes,  P. Morgante,  J. W. Mullinax,  K. J. Oosterbaan,  G. Paran,  
 Alexander C. Paul,  Suranjan K. Paul,  F. Pavosevic,  Zheng Pei,  S. Prager,  
 E. I. Proynov,  E. Ramos,  B. Rana,  A. E. Rask,  A. Rettig,  R. M. Richard,  
 F. Rob,  E. Rossomme,  T. Scheele,  M. Scheurer,  M. Schneider,  
 N. Sergueev,  S. M. Sharada,  W. Skomorowski,  D. W. Small,  C. J. Stein,  
 Yu-Chuan Su,  E. J. Sundstrom,  Zhen Tao,  J. Thirman,  T. Tsuchimochi,  
 N. M. Tubman,  S. P. Veccham,  O. Vydrov,  J. Wenzel,  J. Witte,  A. Yamada,  
 Kun Yao,  S. Yeganeh,  S. R. Yost,  A. Zech,  Igor Ying Zhang,  Xing Zhang,  
 Yu Zhang,  D. Zuev,  A. Aspuru-Guzik,  A. T. Bell,  N. A. Besley,  
 K. B. Bravaya,  B. R. Brooks,  D. Casanova,  Jeng-Da Chai,  S. Coriani,  
 C. J. Cramer,  A. E. DePrince, III,  R. A. DiStasio Jr.,  A. Dreuw,  
 B. D. Dunietz,  T. R. Furlani,  W. A. Goddard III,  S. Grimme,  
 S. Hammes-Schiffer,  T. Head-Gordon,  W. J. Hehre,  Chao-Ping Hsu,  
 T.-C. Jagau,  Yousung Jung,  A. Klamt,  Jing Kong,  D. S. Lambrecht,  
 WanZhen Liang,  N. J. Mayhall,  C. W. McCurdy,  J. B. Neaton,  
 C. Ochsenfeld,  J. A. Parkhill,  R. Peverati,  V. A. Rassolov,  Yihan Shao,  
 L. V. Slipchenko,  T. Stauch,  R. P. Steele,  J. E. Subotnik,  
 A. J. W. Thom,  A. Tkatchenko,  D. G. Truhlar,  T. Van Voorhis,  
 T. A. Wesolowski,  K. B. Whaley,  H. L. Woodcock III,  P. M. Zimmerman,  
 S. Faraji,  P. M. W. Gill,  M. Head-Gordon,  J. M. Herbert,  A. I. Krylov

 Additional authors for Version 5.4.1: 
 S. Kotaru,  Shaozhi Li,  Xiangyuan Li,  F. Matz,  A. Molle,  Haisheng Ren,  
 Yingli Su,  Hung-Yi Tsai,  C. Utku,  Fang Wang

 Contributors to earlier versions of Q-Chem not listed above: 
 R. D. Adamson,  B. Austin,  R. Baer,  J. Baker,  G. J. O. Beran,  
 K. Brandhorst,  S. T. Brown,  E. F. C. Byrd,  A. K. Chakraborty,  
 G. K. L. Chan,  Chun-Min Chang,  Yunqing Chen,  C.-L. Cheng,  
 Siu Hung Chien,  D. M. Chipman,  D. L. Crittenden,  H. Dachsel,  
 R. J. Doerksen,  A. D. Dutoi,  R. G. Edgar,  J. Fosso-Tande,  
 L. Fusti-Molnar,  D. Ghosh,  A. Ghysels,  A. Golubeva-Zadorozhnaya,  
 J. Gonthier,  M. S. Gordon,  S. R. Gwaltney,  G. Hawkins,  J. E. Herr,  
 A. Heyden,  S. Hirata,  E. G. Hohenstein,  G. Kedziora,  F. J. Keil,  
 C. Kelley,  Jihan Kim,  R. A. King,  R. Z. Khaliullin,  P. P. Korambath,  
 W. Kurlancheek,  A. Laurent,  A. M. Lee,  M. S. Lee,  S. V. Levchenko,  
 Ching Yeh Lin,  D. Liotard,  E. Livshits,  R. C. Lochan,  I. Lotan,  
 L. A. Martinez-Martinez,  P. E. Maslen,  N. Nair,  D. P. O'Neill,  
 D. Neuhauser,  E. Neuscamman,  C. M. Oana,  R. Olivares-Amaya,  R. Olson,  
 T. M. Perrine,  B. Peters,  P. A. Pieniazek,  A. Prociuk,  Y. M. Rhee,  
 J. Ritchie,  M. A. Rohrdanz,  E. Rosta,  N. J. Russ,  H. F. Schaefer III,  
 M. W. Schmidt,  N. E. Schultz,  S. Sharma,  N. Shenvi,  C. D. Sherrill,  
 A. C. Simmonett,  A. Sodt,  T. Stein,  D. Stuck,  K. S. Thanthiriwatte,  
 V. Vanovschi,  L. Vogt,  Tao Wang,  A. Warshel,  M. A. Watson,  
 C. F. Williams,  Q. Wu,  X. Xu,  Jun Yang,  W. Zhang,  Yan Zhao

 Please cite Q-Chem as follows:
 Y. Shao et al., Mol. Phys. 113, 184-215 (2015)
 DOI: 10.1080/00268976.2014.952696

 Q-Chem 5.4.1 for Intel X86 EM64T Linux

 Parts of Q-Chem use Armadillo 9.800.1 (Horizon Scraper).
 http://arma.sourceforge.net/

 Q-Chem begins on Tue Mar 21 11:43:38 2023  

 Host: cpu186.baobab
0

     Scratch files written to /scratch/fum/qchem63051//
 Processing $rem in /home/share/wesolowski/qc5.aug2021.FDE/config/preferences:
 Processing $rem in /home/fum/.qchemrc:

 Checking the input file for inconsistencies... 	...done.

--------------------------------------------------------------
User input:
--------------------------------------------------------------
$comment
generated from CCJob.Templates
$end

$rem
sym_ignore = true
method = adc(2)
ee_states = 10
basis = cc-pVDZ
mem_static = 1024
mem_total = 40000
adc_davidson_maxiter = 900
adc_davidson_conv = 6
adc_print = 3
adc_prop_es = true
adc_prop_es2es = true
adc_prop_tpa = true
molden_format = True
state_analysis = true
print_orbitals = 15
gen_scfman = false
fde_export_density = true
fde_details = 3
$end

$molecule
0 1
H -0.020845643368318956 -0.24867992246269305 0.06505766527712566
C -1.0771194985384158 -0.5251728035490899 -0.002370496402469795
H -1.2994622281251442 -1.5936563804030108 -0.07764945848464473
C -2.045551625061616 0.39459695864912026 0.006617407902460545
H -1.8232477284747657 1.4630922575029803 0.08187631998468303
H -3.1018357473316613 0.11811493596261508 -0.060732211977133584                     
$end
--------------------------------------------------------------
 ----------------------------------------------------------------
             Standard Nuclear Orientation (Angstroms)
    I     Atom           X                Y                Z
 ----------------------------------------------------------------
    1      H      -0.0208456434    -0.2486799225     0.0650576653
    2      C      -1.0771194985    -0.5251728035    -0.0023704964
    3      H      -1.2994622281    -1.5936563804    -0.0776494585
    4      C      -2.0455516251     0.3945969586     0.0066174079
    5      H      -1.8232477285     1.4630922575     0.0818763200
    6      H      -3.1018357473     0.1181149360    -0.0607322120
 ----------------------------------------------------------------
 Nuclear Repulsion Energy =          33.18367875 hartrees
 There are        8 alpha and        8 beta electrons
 Requested basis set is cc-pVDZ
 There are 24 shells and 48 basis functions
 Total memory of 40000 MB is distributed as follows: 
   MEM_STATIC is set to 1024 MB
   QALLOC/CCMAN JOB total memory use is  38976 MB
 Warning: actual memory use might exceed 40000 MB

 Total QAlloc Memory Limit  40000 MB
 Mega-Array Size      1001 MB
 MEM_STATIC part      1024 MB

                       Distance Matrix (Angstroms)
             H (  1)   C (  2)   H (  3)   C (  4)   H (  5)
   C (  2)  1.093942
   H (  3)  1.861233  1.093965
   C (  4)  2.125242  1.335634  2.125300
   H (  5)  2.485780  2.125324  3.105400  1.093968
   H (  6)  3.105296  2.125253  2.485759  1.093944  1.861206

 A cutoff of  1.0D-11 yielded    300 shell pairs
 There are      1220 function pairs (      1329 Cartesian)
 Smallest overlap matrix eigenvalue = 4.85E-03

 Scale SEOQF with 1.000000e-01/1.000000e-01/1.000000e+00

 Standard Electronic Orientation quadrupole field applied
 Nucleus-field energy     =     0.0000000022 hartrees
 Guess from superposition of atomic densities
 Warning:  Energy on first SCF cycle will be non-variational
 SAD guess density has 16.000000 electrons
 A restricted Hartree-Fock SCF calculation will be
 performed using Pulay DIIS extrapolation
 SCF converges when DIIS error is below 1.0E-08
 using 10 threads for integral computing
 -------------------------------------------------------
 OpenMP Integral computing Module                
 Release: version 1.0, May 2013, Q-Chem Inc. Pittsburgh 
 -------------------------------------------------------
 ---------------------------------------
  Cycle       Energy         DIIS Error
 ---------------------------------------
    1     -78.3941230654      9.91E-02
    2     -78.0175533749      7.12E-03
    3     -78.0379992681      1.82E-03
    4     -78.0394727237      5.60E-04
    5     -78.0395885390      5.82E-05
    6     -78.0395904030      9.30E-06
    7     -78.0395904645      1.95E-06
    8     -78.0395904673      1.67E-07
    9     -78.0395904673      1.73E-08
   10     -78.0395904673      3.84E-09 Convergence criterion met
 ---------------------------------------
 SCF time:  CPU 2.01 s  wall 2.27 s
 SCF   energy in the final basis set = -78.03959047
 Total energy in the final basis set = -78.03959047
Exporting Density Matrix to file 'Densmat_SCF.txt'.
Export successful
================================================================================
|                                                                              |
|                                 A D C  M A N                                 |
|                                                                              |
 ------------------------------------------------------------------------------ 
|                                                                              |
| Components:                                                                  |
|                                                                              |
| - libvmm - 1.3-trunk                                                         |
|   Authors:                                                                   |
|   Evgeny Epifanovsky, Ilya Kaliman                                           |
|                                                                              |
| - libtensor - 2.5-trunk                                                      |
|   Authors:                                                                   |
|   Evgeny Epifanovsky, Michael Wormit, Dmitry Zuev, Sam Manzer,               |
|   Ilya Kaliman                                                               |
|                                                                              |
| - libwfa - 1.1-trunk                                                         |
|   Authors:                                                                   |
|   Felix Plasser, Stefanie Mewes (Baeppler), Benjamin Thomitzni,              |
|   Michael Wormit, Feng Chen, Anna I. Krylov, Pavel Pokhilko                  |
|                                                                              |
| - libadc - 1.1-trunk                                                         |
|   Authors:                                                                   |
|   Michael Wormit, Adrian L. Dempwolff, Philipp H. P. Harbach,                |
|   Caroline Krauter, Dirk Rehn, Matthias Schneider, Jan Wenzel                |
|                                                                              |
| - adcman - 2.6-trunk                                                         |
|   Authors:                                                                   |
|   Michael Wormit, Adrian L. Dempwolff, Philipp H. P. Harbach,                |
|   Caroline Krauter, Daniel Lefrancois, Jan-Michael Mewes, Dirk Rehn,         |
|   Matthias Schneider, Jan Wenzel, Andreas Dreuw                              |
|                                                                              |
| Authors of earlier versions of ADCMAN:                                       |
| Andreas Dreuw, Jan Hendrik Starcke, Dirk Rehn, Michael Wormit                |
|                                                                              |
================================================================================

 Created directory /scratch/fum/qchem63051/plots
  Import QC data ...  CPU 0.00 s  wall 0.00 s

 Alpha MOs, Restricted
 -- Occupied --                  
-11.239 -11.238  -1.029  -0.786  -0.635  -0.582  -0.500  -0.374
  1 A     2 A     3 A     4 A     5 A     6 A     7 A     8 A                  
 -- Virtual --                   
  0.167   0.203   0.231   0.236   0.303   0.463   0.580   0.608
  9 A    10 A    11 A    12 A    13 A    14 A    15 A    16 A                  
  0.689   0.705   0.775   0.807   0.859   0.928   0.970   1.006
 17 A    18 A    19 A    20 A    21 A    22 A    23 A    24 A                  
  1.130   1.236   1.239   1.261   1.291   1.594   1.730   1.745
 25 A    26 A    27 A    28 A    29 A    30 A    31 A    32 A                  
  1.810   1.850   1.853   1.900   1.963   1.973   2.224   2.246
 33 A    34 A    35 A    36 A    37 A    38 A    39 A    40 A                  
  2.354   2.423   2.494   2.623   2.679   2.795   3.097   3.368
 41 A    42 A    43 A    44 A    45 A    46 A    47 A    48 A                  

 Beta MOs, Restricted
 -- Occupied --                  
-11.239 -11.238  -1.029  -0.786  -0.635  -0.582  -0.500  -0.374
  1 A     2 A     3 A     4 A     5 A     6 A     7 A     8 A                  
 -- Virtual --                   
  0.167   0.203   0.231   0.236   0.303   0.463   0.580   0.608
  9 A    10 A    11 A    12 A    13 A    14 A    15 A    16 A                  
  0.689   0.705   0.775   0.807   0.859   0.928   0.970   1.006
 17 A    18 A    19 A    20 A    21 A    22 A    23 A    24 A                  
  1.130   1.236   1.239   1.261   1.291   1.594   1.730   1.745
 25 A    26 A    27 A    28 A    29 A    30 A    31 A    32 A                  
  1.810   1.850   1.853   1.900   1.963   1.973   2.224   2.246
 33 A    34 A    35 A    36 A    37 A    38 A    39 A    40 A                  
  2.354   2.423   2.494   2.623   2.679   2.795   3.097   3.368
 41 A    42 A    43 A    44 A    45 A    46 A    47 A    48 A                  
  Import AO data ...  CPU 0.00 s  wall 0.00 s
  Using point group: C1
  Irreducible representations in point group: A
  Molecular orbitals: 
  Occupied MOs:
  Block   0:   1 (  A) A   2 (  A) A   3 (  A) A   4 (  A) A   5 (  A) A
                  -11.24      -11.24      -1.029     -0.7864     -0.6347
               6 (  A) A   7 (  A) A   8 (  A) A
                 -0.5823     -0.4999     -0.3739
  Block   1:   1 (  A) B   2 (  A) B   3 (  A) B   4 (  A) B   5 (  A) B
                  -11.24      -11.24      -1.029     -0.7864     -0.6347
               6 (  A) B   7 (  A) B   8 (  A) B
                 -0.5823     -0.4999     -0.3739
  Virtual MOs:
  Block   0:   9 (  A) A  10 (  A) A  11 (  A) A  12 (  A) A  13 (  A) A
                  0.1674      0.2027      0.2313      0.2363      0.3029
              14 (  A) A  15 (  A) A  16 (  A) A  17 (  A) A  18 (  A) A
                  0.4626      0.5805      0.6081      0.6891      0.7052
              19 (  A) A  20 (  A) A  21 (  A) A  22 (  A) A
                   0.775      0.8071      0.8587      0.9277
  Block   1:  23 (  A) A  24 (  A) A  25 (  A) A  26 (  A) A  27 (  A) A
                  0.9696       1.006        1.13       1.236       1.239
              28 (  A) A  29 (  A) A  30 (  A) A  31 (  A) A  32 (  A) A
                   1.261       1.291       1.594        1.73       1.745
              33 (  A) A  34 (  A) A  35 (  A) A  36 (  A) A
                    1.81        1.85       1.853         1.9
  Block   2:  37 (  A) A  38 (  A) A  39 (  A) A  40 (  A) A  41 (  A) A
                   1.963       1.973       2.224       2.246       2.354
              42 (  A) A  43 (  A) A  44 (  A) A  45 (  A) A  46 (  A) A
                   2.423       2.494       2.623       2.679       2.795
              47 (  A) A  48 (  A) A
                   3.097       3.368
  Block   3:   9 (  A) B  10 (  A) B  11 (  A) B  12 (  A) B  13 (  A) B
                  0.1674      0.2027      0.2313      0.2363      0.3029
              14 (  A) B  15 (  A) B  16 (  A) B  17 (  A) B  18 (  A) B
                  0.4626      0.5805      0.6081      0.6891      0.7052
              19 (  A) B  20 (  A) B  21 (  A) B  22 (  A) B
                   0.775      0.8071      0.8587      0.9277
  Block   4:  23 (  A) B  24 (  A) B  25 (  A) B  26 (  A) B  27 (  A) B
                  0.9696       1.006        1.13       1.236       1.239
              28 (  A) B  29 (  A) B  30 (  A) B  31 (  A) B  32 (  A) B
                   1.261       1.291       1.594        1.73       1.745
              33 (  A) B  34 (  A) B  35 (  A) B  36 (  A) B
                    1.81        1.85       1.853         1.9
  Block   5:  37 (  A) B  38 (  A) B  39 (  A) B  40 (  A) B  41 (  A) B
                   1.963       1.973       2.224       2.246       2.354
              42 (  A) B  43 (  A) B  44 (  A) B  45 (  A) B  46 (  A) B
                   2.423       2.494       2.623       2.679       2.795
              47 (  A) B  48 (  A) B
                   3.097       3.368
  Import MO data ...  CPU 0.07 s  wall 0.02 s
  Import HF data ...  CPU 0.40 s  wall 0.12 s
  Import 2e integrals ...  CPU 1.20 s  wall 0.22 s

--------------------------------------------------------------------------------
                                   HF Summary                                   
--------------------------------------------------------------------------------
  Energy:                                                  -78.0395904673 a.u.
  Dip. moment [a.u.]:                  [  -0.000005,    0.000002,    0.000016]
  Total dipole [Debye]:                                               0.000043
  <r^2> [a.u.]:                        [ 175.874903,   35.342561,   11.685307]
  Total <r^2> [a.u.]:                                               222.902772
--------------------------------------------------------------------------------
  HF properties ...  CPU 0.02 s  wall 0.01 s
  MP(1) calculation ...  CPU 0.01 s  wall 0.01 s
  N^6 prerequesite intermediates ...  CPU 0.61 s  wall 0.11 s
  Difference density matrix of state mp2_gs printed to ASCII file 'State_mp2_gs_Difference.txt'
Exporting MP density matrix to file 'Densmat_MP.txt'.
Export successful
  Total density matrix of state mp2_gs printed to ASCII file 'State_mp2_gs_Total.txt'
Exporting MP density matrix to file 'Densmat_MP.txt'.
Export successful

--------------------------------------------------------------------------------
                                 MP(2) Summary                                  
--------------------------------------------------------------------------------
  MP energy contribution:                                   -0.2805939204 a.u.
  Total energy:                                            -78.3201843877 a.u.
  Dip. moment [a.u.]:                  [  -0.000004,    0.000002,    0.000016]
  Total dipole [Debye]:                                               0.000042
  <r^2> [a.u.]:                        [ 175.914802,   35.378011,   11.511498]
  Total <r^2> [a.u.]:                                               222.804311

  Density matrix analysis:
  ------------------------
  NOs
    Occupation of frontier NOs:
       0.0457   1.9378
    Number of electrons: 16.000000
    Number of unpaired electrons: n_u =  0.40773, n_u,nl =  0.04597
    NO participation ratio (PR_NO): 13.877305
  
  
  Mulliken Population Analysis
  Atom      Charge (e)              h+              e-           Del q
  --------------------------------------------------------------------
   1 H        0.055097        0.013915       -0.011310        0.002605
   2 C       -0.110196        0.094771       -0.099980       -0.005210
   3 H        0.055106        0.013915       -0.011310        0.002605
   4 C       -0.110206        0.094770       -0.099981       -0.005211
   5 H        0.055104        0.013915       -0.011310        0.002605
   6 H        0.055095        0.013916       -0.011310        0.002606
  --------------------------------------------------------------------
  Sum:       -0.000000        0.245201       -0.245201        0.000000
  
  Multipole moment analysis of the density matrix
    Molecular charge:                      -0.000000
    Number of electrons:                   16.000000
      Center of electronic charge [Ang]: [ -1.561338,  -0.065287,   0.002127]
    Total nuclear charge:                  16.000000
      Center of nuclear charge [Ang]:    [ -1.561339,  -0.065287,   0.002127]
    Dipole moment [D]:                     0.000042
      Cartesian components [D]:          [ -0.000011,   0.000004,   0.000041]
    RMS size of the density [Ang]:         1.207240
      Cartesian components [Ang]:        [  0.800653,   0.784166,   0.448851]
  
  Exciton analysis of the difference density matrix
    <r_h> [Ang]:                  [ -1.561338,  -0.065287,   0.002124]
    <r_e> [Ang]:                  [ -1.561339,  -0.065286,   0.002124]
    |<r_e - r_h>| [Ang]:            0.000001
    Hole size [Ang]:                1.402591
      Cartesian components [Ang]: [  0.853406,   0.840602,   0.729621]
    Electron size [Ang]:            1.361916
      Cartesian components [Ang]: [  0.879697,   0.864348,   0.577798]
--------------------------------------------------------------------------------
  MP(2) calculation ...  CPU 0.29 s  wall 0.21 s
  Start ADC(2)-s ...  CPU 0.02 s  wall 0.01 s
  ADC(2) intermediates ...  CPU 0.04 s  wall 0.01 s
  Starting Davidson for singlet states of irrep A ... 
--------------------------------------------------------------------------------
   It NVec Conv  Avg. Norm  Max. Norm  Conv. states           Remark
--------------------------------------------------------------------------------
        10    0  1.329e-01  4.686e-01  0.4114 n n n n n n n n Guess.
    1   20    0  2.316e-02  1.129e-01  0.3254 n n n n n n n n 
    2   30    0  5.859e-03  2.469e-02  0.3206 n n n n n n n n 
    3   40    0  1.756e-03  1.054e-02  0.3202 n n n n n n n n 
    4   50    0  4.985e-04  3.481e-03  0.3202 n n n n n n n n 
    5   20    0  2.548e-04  1.663e-03  0.3202 n n n n n n n n Subspace collapsed.
    6   30    0  1.093e-04  7.823e-04  0.3202 n n n n n n n n 
    7   40    0  5.124e-05  3.783e-04  0.3202 n n n n n n n n 
    8   50    0  3.910e-05  3.398e-04  0.3202 n n n n n n n n 
    9   20    2  3.439e-05  3.282e-04  0.3202 n y n y n n n n Subspace collapsed.
   10   30    5  1.952e-05  1.822e-04  0.3202 n y y y y y n n 
   11   40    5  8.428e-06  7.743e-05  0.3202 n y y y y y n n 
   12   50    7  3.259e-06  2.826e-05  0.3202 y y y y y y n y 
   13   20    8  2.029e-06  1.665e-05  0.3202 y y y y y y n y Subspace collapsed.
   14   30    8  1.656e-06  1.467e-05  0.3202 y y y y y y n y 
   15   40    8  1.194e-06  1.126e-05  0.3202 y y y y y y n y 
   16   50    8  4.691e-07  3.965e-06  0.3202 y y y y y y n y 
   17   20    8  2.175e-07  1.734e-06  0.3202 y y y y y y n y Subspace collapsed.
   18   30    8  1.712e-07  1.386e-06  0.3202 y y y y y y n y 
   19   40    9  1.346e-07  1.218e-06  0.3202 y y y y y y n y 
   20   50   10  6.583e-08  4.706e-07  0.3202 y y y y y y y y Converged.
--------------------------------------------------------------------------------
  Davidson Summary: 
 ------------------------------------------------------------
  State  0: excitation energy =   0.3202 a.u.   (converged)
  State  1: excitation energy =   0.3288 a.u.   (converged)
  State  2: excitation energy =   0.3358 a.u.   (converged)
  State  3: excitation energy =   0.3578 a.u.   (converged)
  State  4: excitation energy =   0.3729 a.u.   (converged)
  State  5: excitation energy =   0.3861 a.u.   (converged)
  State  6: excitation energy =   0.4205 a.u.   (converged)
  State  7: excitation energy =   0.4428 a.u.   (converged)
  State  8: excitation energy =   0.4532 a.u.   (converged)
  State  9: excitation energy =   0.4590 a.u.   (converged)
 ------------------------------------------------------------

  Singlet states of irrep A ...  CPU 151.97 s  wall 47.92 s
  TDMs ...  CPU 2.29 s  wall 0.87 s
  SDMs ...  CPU 4.47 s  wall 1.46 s
  Starting TPA DIIS iterations ... 
------------------------------------ 
   It     Res. Norm  Remark
------------------------------------
                       Guess.
    1     4.425e+00  
    2     5.881e+00  
    3     1.090e+00  
    4     2.649e-01  
    5     6.637e-02  
    6     2.799e-02  
    7     8.537e-03  
    8     1.552e-03  
    9     5.828e-04  
   10     9.798e-05  
   11     3.154e-05  
   12     4.903e-06  
   13     1.642e-06  
   14     4.811e-07  Converged.
   ... Converged in 14 steps (norm: 4.81062e-07)
------------------------------------
  Starting TPA DIIS iterations ... 
------------------------------------ 
   It     Res. Norm  Remark
------------------------------------
                       Guess.
    1     4.214e+00  
    2     5.590e+00  
    3     1.041e+00  
    4     2.630e-01  
    5     6.609e-02  
    6     2.799e-02  
    7     8.393e-03  
    8     1.572e-03  
    9     5.919e-04  
   10     9.752e-05  
   11     3.184e-05  
   12     4.869e-06  
   13     1.669e-06  
   14     4.764e-07  Converged.
   ... Converged in 14 steps (norm: 4.76407e-07)
------------------------------------
  Starting TPA DIIS iterations ... 
------------------------------------ 
   It     Res. Norm  Remark
------------------------------------
                       Guess.
    1     6.848e-01  
    2     4.793e-01  
    3     1.688e-01  
    4     6.405e-02  
    5     1.871e-02  
    6     6.672e-03  
    7     1.069e-03  
    8     4.557e-04  
    9     1.255e-04  
   10     3.089e-05  
   11     5.026e-06  
   12     1.776e-06  
   13     8.616e-07  Converged.
   ... Converged in 13 steps (norm: 8.61614e-07)
------------------------------------
  Starting TPA DIIS iterations ... 
------------------------------------ 
   It     Res. Norm  Remark
------------------------------------
                       Guess.
    1     4.635e+00  
    2     6.257e+00  
    3     1.150e+00  
    4     2.863e-01  
    5     7.246e-02  
    6     3.078e-02  
    7     9.372e-03  
    8     1.702e-03  
    9     6.428e-04  
   10     1.085e-04  
   11     3.518e-05  
   12     5.504e-06  
   13     1.853e-06  
   14     5.414e-07  Converged.
   ... Converged in 14 steps (norm: 5.41406e-07)
------------------------------------
  Starting TPA DIIS iterations ... 
------------------------------------ 
   It     Res. Norm  Remark
------------------------------------
                       Guess.
    1     4.413e+00  
    2     5.947e+00  
    3     1.097e+00  
    4     2.840e-01  
    5     7.217e-02  
    6     3.079e-02  
    7     9.215e-03  
    8     1.725e-03  
    9     6.530e-04  
   10     1.080e-04  
   11     3.551e-05  
   12     5.463e-06  
   13     1.884e-06  
   14     5.359e-07  Converged.
   ... Converged in 14 steps (norm: 5.35929e-07)
------------------------------------
  Starting TPA DIIS iterations ... 
------------------------------------ 
   It     Res. Norm  Remark
------------------------------------
                       Guess.
    1     6.936e-01  
    2     4.918e-01  
    3     1.758e-01  
    4     7.017e-02  
    5     1.974e-02  
    6     7.116e-03  
    7     1.166e-03  
    8     5.141e-04  
    9     1.442e-04  
   10     3.448e-05  
   11     5.497e-06  
   12     2.001e-06  
   13     1.010e-06  
   14     3.658e-07  Converged.
   ... Converged in 14 steps (norm: 3.6579e-07)
------------------------------------
  Starting TPA DIIS iterations ... 
------------------------------------ 
   It     Res. Norm  Remark
------------------------------------
                       Guess.
    1     4.819e+00  
    2     6.592e+00  
    3     1.202e+00  
    4     3.056e-01  
    5     7.796e-02  
    6     3.330e-02  
    7     1.013e-02  
    8     1.838e-03  
    9     6.971e-04  
   10     1.181e-04  
   11     3.852e-05  
   12     6.056e-06  
   13     2.049e-06  
   14     5.969e-07  Converged.
   ... Converged in 14 steps (norm: 5.96879e-07)
------------------------------------
  Starting TPA DIIS iterations ... 
------------------------------------ 
   It     Res. Norm  Remark
------------------------------------
                       Guess.
    1     4.588e+00  
    2     6.265e+00  
    3     1.147e+00  
    4     3.030e-01  
    5     7.765e-02  
    6     3.333e-02  
    7     9.958e-03  
    8     1.864e-03  
    9     7.085e-04  
   10     1.176e-04  
   11     3.887e-05  
   12     6.009e-06  
   13     2.084e-06  
   14     5.906e-07  Converged.
   ... Converged in 14 steps (norm: 5.9065e-07)
------------------------------------
  Starting TPA DIIS iterations ... 
------------------------------------ 
   It     Res. Norm  Remark
------------------------------------
                       Guess.
    1     7.010e-01  
    2     5.025e-01  
    3     1.820e-01  
    4     7.577e-02  
    5     2.063e-02  
    6     7.516e-03  
    7     1.256e-03  
    8     5.688e-04  
    9     1.617e-04  
   10     3.727e-05  
   11     5.916e-06  
   12     2.211e-06  
   13     1.153e-06  
   14     4.093e-07  Converged.
   ... Converged in 14 steps (norm: 4.09277e-07)
------------------------------------
  Starting TPA DIIS iterations ... 
------------------------------------ 
   It     Res. Norm  Remark
------------------------------------
                       Guess.
    1     5.482e+00  
    2     7.829e+00  
    3     1.389e+00  
    4     3.792e-01  
    5     9.897e-02  
    6     4.305e-02  
    7     1.301e-02  
    8     2.355e-03  
    9     9.068e-04  
   10     1.551e-04  
   11     5.167e-05  
   12     8.231e-06  
   13     2.835e-06  
   14     8.169e-07  Converged.
   ... Converged in 14 steps (norm: 8.16913e-07)
------------------------------------
  Starting TPA DIIS iterations ... 
------------------------------------ 
   It     Res. Norm  Remark
------------------------------------
                       Guess.
    1     5.217e+00  
    2     7.439e+00  
    3     1.324e+00  
    4     3.753e-01  
    5     9.859e-02  
    6     4.314e-02  
    7     1.280e-02  
    8     2.393e-03  
    9     9.225e-04  
   10     1.545e-04  
   11     5.206e-05  
   12     8.156e-06  
   13     2.887e-06  
   14     8.078e-07  Converged.
   ... Converged in 14 steps (norm: 8.07846e-07)
------------------------------------
  Starting TPA DIIS iterations ... 
------------------------------------ 
   It     Res. Norm  Remark
------------------------------------
                       Guess.
    1     7.251e-01  
    2     5.391e-01  
    3     2.034e-01  
    4     9.773e-02  
    5     2.383e-02  
    6     9.043e-03  
    7     1.610e-03  
    8     7.879e-04  
    9     2.307e-04  
   10     4.417e-05  
   11     7.475e-06  
   12     3.060e-06  
   13     1.782e-06  
   14     5.822e-07  Converged.
   ... Converged in 14 steps (norm: 5.82159e-07)
------------------------------------
  Starting TPA DIIS iterations ... 
------------------------------------ 
   It     Res. Norm  Remark
------------------------------------
                       Guess.
    1     6.029e+00  
    2     8.882e+00  
    3     1.542e+00  
    4     4.445e-01  
    5     1.175e-01  
    6     5.179e-02  
    7     1.557e-02  
    8     2.812e-03  
    9     1.095e-03  
   10     1.883e-04  
   11     6.367e-05  
   12     1.022e-05  
   13     3.569e-06  
   14     1.022e-06  
   15     3.321e-07  Converged.
   ... Converged in 15 steps (norm: 3.32145e-07)
------------------------------------
  Starting TPA DIIS iterations ... 
------------------------------------ 
   It     Res. Norm  Remark
------------------------------------
                       Guess.
    1     5.735e+00  
    2     8.440e+00  
    3     1.470e+00  
    4     4.393e-01  
    5     1.171e-01  
    6     5.194e-02  
    7     1.532e-02  
    8     2.861e-03  
    9     1.114e-03  
   10     1.876e-04  
   11     6.409e-05  
   12     1.011e-05  
   13     3.637e-06  
   14     1.011e-06  
   15     3.305e-07  Converged.
   ... Converged in 15 steps (norm: 3.30501e-07)
------------------------------------
  Starting TPA DIIS iterations ... 
------------------------------------ 
   It     Res. Norm  Remark
------------------------------------
                       Guess.
    1     7.427e-01  
    2     5.672e-01  
    3     2.205e-01  
    4     1.177e-01  
    5     2.650e-02  
    6     1.040e-02  
    7     1.941e-03  
    8     9.826e-04  
    9     2.903e-04  
   10     4.680e-05  
   11     8.842e-06  
   12     3.850e-06  
   13     2.423e-06  
   14     7.396e-07  Converged.
   ... Converged in 14 steps (norm: 7.39578e-07)
------------------------------------
  Starting TPA DIIS iterations ... 
------------------------------------ 
   It     Res. Norm  Remark
------------------------------------
                       Guess.
    1     6.584e+00  
    2     9.983e+00  
    3     1.696e+00  
    4     5.146e-01  
    5     1.375e-01  
    6     6.128e-02  
    7     1.832e-02  
    8     3.302e-03  
    9     1.298e-03  
   10     2.243e-04  
   11     7.680e-05  
   12     1.239e-05  
   13     4.384e-06  
   14     1.254e-06  
   15     4.103e-07  Converged.
   ... Converged in 15 steps (norm: 4.10335e-07)
------------------------------------
  Starting TPA DIIS iterations ... 
------------------------------------ 
   It     Res. Norm  Remark
------------------------------------
                       Guess.
    1     6.262e+00  
    2     9.485e+00  
    3     1.616e+00  
    4     5.079e-01  
    5     1.370e-01  
    6     6.150e-02  
    7     1.803e-02  
    8     3.363e-03  
    9     1.322e-03  
   10     2.234e-04  
   11     7.722e-05  
   12     1.225e-05  
   13     4.467e-06  
   14     1.240e-06  
   15     4.078e-07  Converged.
   ... Converged in 15 steps (norm: 4.07769e-07)
------------------------------------
  Starting TPA DIIS iterations ... 
------------------------------------ 
   It     Res. Norm  Remark
------------------------------------
                       Guess.
    1     7.588e-01  
    2     5.943e-01  
    3     2.374e-01  
    4     1.394e-01  
    5     2.929e-02  
    6     1.186e-02  
    7     2.312e-03  
    8     1.180e-03  
    9     3.505e-04  
   10     4.811e-05  
   11     1.033e-05  
   12     4.721e-06  
   13     3.176e-06  
   14     9.097e-07  Converged.
   ... Converged in 14 steps (norm: 9.09686e-07)
------------------------------------
  Starting TPA DIIS iterations ... 
------------------------------------ 
   It     Res. Norm  Remark
------------------------------------
                       Guess.
    1     8.491e+00  
    2     1.397e+01  
    3     2.218e+00  
    4     7.801e-01  
    5     2.132e-01  
    6     9.802e-02  
    7     2.876e-02  
    8     5.152e-03  
    9     2.082e-03  
   10     3.629e-04  
   11     1.269e-04  
   12     2.081e-05  
   13     7.510e-06  
   14     2.238e-06  
   15     7.179e-07  Converged.
   ... Converged in 15 steps (norm: 7.17934e-07)
------------------------------------
  Starting TPA DIIS iterations ... 
------------------------------------ 
   It     Res. Norm  Remark
------------------------------------
                       Guess.
    1     8.072e+00  
    2     1.327e+01  
    3     2.112e+00  
    4     7.669e-01  
    5     2.125e-01  
    6     9.856e-02  
    7     2.832e-02  
    8     5.264e-03  
    9     2.122e-03  
   10     3.614e-04  
   11     1.272e-04  
   12     2.052e-05  
   13     7.639e-06  
   14     2.213e-06  
   15     7.107e-07  Converged.
   ... Converged in 15 steps (norm: 7.10723e-07)
------------------------------------
  Starting TPA DIIS iterations ... 
------------------------------------ 
   It     Res. Norm  Remark
------------------------------------
                       Guess.
    1     8.046e-01  
    2     6.781e-01  
    3     2.921e-01  
    4     2.213e-01  
    5     3.953e-02  
    6     1.738e-02  
    7     3.825e-03  
    8     1.733e-03  
    9     5.413e-04  
   10     5.549e-05  
   11     1.628e-05  
   12     8.032e-06  
   13     6.387e-06  
   14     1.535e-06  
   15     5.995e-07  Converged.
   ... Converged in 15 steps (norm: 5.99519e-07)
------------------------------------
  Starting TPA DIIS iterations ... 
------------------------------------ 
   It     Res. Norm  Remark
------------------------------------
                       Guess.
    1     1.024e+01  
    2     1.788e+01  
    3     2.685e+00  
    4     1.050e+00  
    5     2.909e-01  
    6     1.366e-01  
    7     3.949e-02  
    8     7.044e-03  
    9     2.902e-03  
   10     5.068e-04  
   11     1.766e-04  
   12     2.970e-05  
   13     1.060e-05  
   14     3.399e-06  
   15     1.089e-06  
   16     2.344e-07  Converged.
   ... Converged in 16 steps (norm: 2.34367e-07)
------------------------------------
  Starting TPA DIIS iterations ... 
------------------------------------ 
   It     Res. Norm  Remark
------------------------------------
                       Guess.
    1     9.735e+00  
    2     1.699e+01  
    3     2.556e+00  
    4     1.030e+00  
    5     2.901e-01  
    6     1.376e-01  
    7     3.889e-02  
    8     7.211e-03  
    9     2.958e-03  
   10     5.046e-04  
   11     1.770e-04  
   12     2.927e-05  
   13     1.078e-05  
   14     3.349e-06  
   15     1.080e-06  
   16     2.382e-07  Converged.
   ... Converged in 16 steps (norm: 2.3816e-07)
------------------------------------
  Starting TPA DIIS iterations ... 
------------------------------------ 
   It     Res. Norm  Remark
------------------------------------
                       Guess.
    1     8.376e-01  
    2     7.463e-01  
    3     3.387e-01  
    4     2.988e-01  
    5     4.967e-02  
    6     2.283e-02  
    7     5.462e-03  
    8     2.013e-03  
    9     6.972e-04  
   10     7.131e-05  
   11     2.272e-05  
   12     1.128e-05  
   13     9.983e-06  
   14     2.110e-06  
   15     7.699e-07  Converged.
   ... Converged in 15 steps (norm: 7.69873e-07)
------------------------------------
  Starting TPA DIIS iterations ... 
------------------------------------ 
   It     Res. Norm  Remark
------------------------------------
                       Guess.
    1     1.127e+01  
    2     2.027e+01  
    3     2.953e+00  
    4     1.217e+00  
    5     3.395e-01  
    6     1.611e-01  
    7     4.618e-02  
    8     8.221e-03  
    9     3.418e-03  
   10     5.969e-04  
   11     2.066e-04  
   12     3.546e-05  
   13     1.254e-05  
   14     4.178e-06  
   15     1.391e-06  
   16     2.957e-07  Converged.
   ... Converged in 16 steps (norm: 2.95696e-07)
------------------------------------
  Starting TPA DIIS iterations ... 
------------------------------------ 
   It     Res. Norm  Remark
------------------------------------
                       Guess.
    1     1.071e+01  
    2     1.926e+01  
    3     2.810e+00  
    4     1.191e+00  
    5     3.385e-01  
    6     1.623e-01  
    7     4.549e-02  
    8     8.424e-03  
    9     3.485e-03  
   10     5.942e-04  
   11     2.070e-04  
   12     3.493e-05  
   13     1.275e-05  
   14     4.105e-06  
   15     1.383e-06  
   16     2.985e-07  Converged.
   ... Converged in 16 steps (norm: 2.9848e-07)
------------------------------------
  Starting TPA DIIS iterations ... 
------------------------------------ 
   It     Res. Norm  Remark
------------------------------------
                       Guess.
    1     8.543e-01  
    2     7.833e-01  
    3     3.647e-01  
    4     3.420e-01  
    5     5.582e-02  
    6     2.602e-02  
    7     6.489e-03  
    8     2.101e-03  
    9     7.827e-04  
   10     8.290e-05  
   11     2.683e-05  
   12     1.326e-05  
   13     1.235e-05  
   14     2.425e-06  
   15     8.389e-07  Converged.
   ... Converged in 15 steps (norm: 8.38913e-07)
------------------------------------
  Starting TPA DIIS iterations ... 
------------------------------------ 
   It     Res. Norm  Remark
------------------------------------
                       Guess.
    1     1.191e+01  
    2     2.180e+01  
    3     3.119e+00  
    4     1.324e+00  
    5     3.708e-01  
    6     1.770e-01  
    7     5.051e-02  
    8     8.981e-03  
    9     3.754e-03  
   10     6.552e-04  
   11     2.256e-04  
   12     3.928e-05  
   13     1.384e-05  
   14     4.699e-06  
   15     1.622e-06  
   16     3.383e-07  Converged.
   ... Converged in 16 steps (norm: 3.38282e-07)
------------------------------------
  Starting TPA DIIS iterations ... 
------------------------------------ 
   It     Res. Norm  Remark
------------------------------------
                       Guess.
    1     1.131e+01  
    2     2.071e+01  
    3     2.968e+00  
    4     1.295e+00  
    5     3.698e-01  
    6     1.784e-01  
    7     4.976e-02  
    8     9.207e-03  
    9     3.828e-03  
   10     6.521e-04  
   11     2.262e-04  
   12     3.868e-05  
   13     1.405e-05  
   14     4.611e-06  
   15     1.614e-06  
   16     3.385e-07  Converged.
   ... Converged in 16 steps (norm: 3.385e-07)
------------------------------------
  Starting TPA DIIS iterations ... 
------------------------------------ 
   It     Res. Norm  Remark
------------------------------------
                       Guess.
    1     8.639e-01  
    2     8.056e-01  
    3     3.805e-01  
    4     3.675e-01  
    5     5.973e-02  
    6     2.798e-02  
    7     7.150e-03  
    8     2.140e-03  
    9     8.347e-04  
   10     9.055e-05  
   11     2.952e-05  
   12     1.455e-05  
   13     1.395e-05  
   14     2.611e-06  
   15     8.742e-07  Converged.
   ... Converged in 15 steps (norm: 8.74177e-07)
------------------------------------
  Two-photon absorbption ...  CPU 155.12 s  wall 42.76 s
  Transition density matrix of state singlet_A_1 printed to ASCII file 'State_singlet_A_1_Transition.txt'
  Transition density matrix of state singlet_A_2 printed to ASCII file 'State_singlet_A_2_Transition.txt'
  Transition density matrix of state singlet_A_3 printed to ASCII file 'State_singlet_A_3_Transition.txt'
  Transition density matrix of state singlet_A_4 printed to ASCII file 'State_singlet_A_4_Transition.txt'
  Transition density matrix of state singlet_A_5 printed to ASCII file 'State_singlet_A_5_Transition.txt'
  Transition density matrix of state singlet_A_6 printed to ASCII file 'State_singlet_A_6_Transition.txt'
  Transition density matrix of state singlet_A_7 printed to ASCII file 'State_singlet_A_7_Transition.txt'
  Transition density matrix of state singlet_A_8 printed to ASCII file 'State_singlet_A_8_Transition.txt'
  Transition density matrix of state singlet_A_9 printed to ASCII file 'State_singlet_A_9_Transition.txt'
  Transition density matrix of state singlet_A_10 printed to ASCII file 'State_singlet_A_10_Transition.txt'
  Transition properties ...  CPU 0.33 s  wall 0.56 s
  Difference density matrix of state singlet_A_1 printed to ASCII file 'State_singlet_A_1_Difference.txt'
  Total density matrix of state singlet_A_1 printed to ASCII file 'State_singlet_A_1_Total.txt'
  Difference density matrix of state singlet_A_2 printed to ASCII file 'State_singlet_A_2_Difference.txt'
  Total density matrix of state singlet_A_2 printed to ASCII file 'State_singlet_A_2_Total.txt'
  Difference density matrix of state singlet_A_3 printed to ASCII file 'State_singlet_A_3_Difference.txt'
  Total density matrix of state singlet_A_3 printed to ASCII file 'State_singlet_A_3_Total.txt'
  Difference density matrix of state singlet_A_4 printed to ASCII file 'State_singlet_A_4_Difference.txt'
  Total density matrix of state singlet_A_4 printed to ASCII file 'State_singlet_A_4_Total.txt'
  Difference density matrix of state singlet_A_5 printed to ASCII file 'State_singlet_A_5_Difference.txt'
  Total density matrix of state singlet_A_5 printed to ASCII file 'State_singlet_A_5_Total.txt'
  Difference density matrix of state singlet_A_6 printed to ASCII file 'State_singlet_A_6_Difference.txt'
  Total density matrix of state singlet_A_6 printed to ASCII file 'State_singlet_A_6_Total.txt'
  Difference density matrix of state singlet_A_7 printed to ASCII file 'State_singlet_A_7_Difference.txt'
  Total density matrix of state singlet_A_7 printed to ASCII file 'State_singlet_A_7_Total.txt'
  Difference density matrix of state singlet_A_8 printed to ASCII file 'State_singlet_A_8_Difference.txt'
  Total density matrix of state singlet_A_8 printed to ASCII file 'State_singlet_A_8_Total.txt'
  Difference density matrix of state singlet_A_9 printed to ASCII file 'State_singlet_A_9_Difference.txt'
  Total density matrix of state singlet_A_9 printed to ASCII file 'State_singlet_A_9_Total.txt'
  Difference density matrix of state singlet_A_10 printed to ASCII file 'State_singlet_A_10_Difference.txt'
  Total density matrix of state singlet_A_10 printed to ASCII file 'State_singlet_A_10_Total.txt'
  Properties ...  CPU 0.61 s  wall 0.98 s
  ISR TDMS ...  CPU 29.24 s  wall 9.39 s
  ISR transition properties ...  CPU 0.65 s  wall 0.33 s
  Sum-over-states TPA ...  CPU 0.00 s  wall 0.00 s

--------------------------------------------------------------------------------
                   State-averaged natural transition orbitals
--------------------------------------------------------------------------------
--------------------------------------------------------------------------------
  SA-NTO decomposition ...  CPU 0.01 s  wall 0.04 s

--------------------------------------------------------------------------------
                             Excited State Summary
--------------------------------------------------------------------------------
--------------------------------------------------------------------------------

  Excited state 1 (singlet, A)                                     [converged]
  ----------------------------------------------------------------------------
  Term symbol:  2 (1) A                                     R^2 =  1.72530e-10

  Total energy:                                            -78.0000075747 a.u.
  Excitation energy:                                               8.712454 eV

  Osc. strength:                                                      0.445221
  Trans. dip. moment [a.u.]:           [  -1.047184,    0.994553,    0.009707]
  <i|r^2|0> [a.u.]:                    [  -6.179396,    0.245448,   -0.000151]
  Two-photon absorption cross-section (SoS) [a.u.]:                   0.000000
  Two-photon absorption matrix (SoS) [a.u.]:
                                       |   -0.000034    0.000004   -0.000021 |
                                       |    0.000004   -0.000012   -0.000052 |
                                       |   -0.000021   -0.000052   -0.000024 |
  Two-photon absorption cross-section [a.u.]:                         0.000001
  Two-photon absorption matrix [a.u.]:
                                       |   -0.000021   -0.000016    0.000246 |
                                       |   -0.000016    0.000010    0.000202 |
                                       |    0.000246    0.000202    0.000039 |

  Dip. moment [a.u.]:                  [  -0.000004,    0.000000,    0.000020]
  Total dipole [Debye]:                                               0.000051
  <r^2> [a.u.]:                        [ 176.660196,   36.063129,   11.919593]
  Total <r^2> [a.u.]:                                               224.642918

  V1^2 = 0.9713, V2^2 = 0.0287

  Important amplitudes:
      occ i     occ j     vir a      vir b          v   
    -----------------------------------------------------
     8 (A) A              9 (A) A                -0.6809
     6 (A) A             14 (A) A                 0.0621
     4 (A) A             10 (A) A                -0.0612
     7 (A) A             16 (A) A                 0.0575
     5 (A) A             13 (A) A                 0.0527
     6 (A) A             23 (A) A                 0.0484
     8 (A) A             20 (A) A                -0.0349
     6 (A) A             19 (A) A                 0.0307
     3 (A) A             12 (A) A                 0.0286
     5 (A) A             22 (A) A                -0.0217
     4 (A) A             24 (A) A                -0.0188
     3 (A) A             26 (A) A                -0.0187
     7 (A) A             11 (A) A                -0.0185
     8 (A) A   8 (A) B   17 (A) A   20 (A) B      0.0184
     8 (A) A   8 (A) B    9 (A) A   28 (A) B      0.0168
     6 (A) A             26 (A) A                -0.0163
     7 (A) A             21 (A) A                 0.0151
     3 (A) A             14 (A) A                 0.0143
     6 (A) A             12 (A) A                -0.0131
     3 (A) A   4 (A) B    9 (A) A    9 (A) B      0.0129
     3 (A) A             19 (A) A                 0.0121
     8 (A) A   8 (A) B   18 (A) A   19 (A) B     -0.0111
     7 (A) A             32 (A) A                 0.0097
     7 (A) A             36 (A) A                 0.0086
     3 (A) A             23 (A) A                 0.0082
     8 (A) A   8 (A) B   25 (A) A   29 (A) B      0.0076
     6 (A) A             35 (A) A                -0.0071
     6 (A) A             40 (A) A                 0.0067
     3 (A) A   6 (A) B    9 (A) A   28 (A) B      0.0065
     5 (A) A   8 (A) B   11 (A) A    9 (A) B      0.0062
     5 (A) A             27 (A) A                 0.0060
     7 (A) A   8 (A) B   13 (A) A   20 (A) B      0.0060
     6 (A) A   8 (A) A   19 (A) A   28 (A) A      0.0060
     5 (A) A   8 (A) B   11 (A) A   20 (A) B     -0.0060
     5 (A) A   7 (A) B    9 (A) A    9 (A) B     -0.0060
     5 (A) A   8 (A) B   16 (A) A    9 (A) B      0.0059
     3 (A) A   5 (A) B    9 (A) A   25 (A) B      0.0058
     7 (A) A   8 (A) B   22 (A) A   20 (A) B     -0.0057
     3 (A) A             40 (A) A                 0.0056
     8 (A) A   8 (A) B   19 (A) A   30 (A) B     -0.0056
    -----------------------------------------------------

  Density matrix analysis:
  ------------------------
  NOs
    Occupation of frontier NOs:
       0.9491   1.0219
    Number of electrons: 16.000000
    Number of unpaired electrons: n_u =  2.31693, n_u,nl =  2.03335
    NO participation ratio (PR_NO):  2.874317
  
  
  Mulliken Population Analysis
  Atom      Charge (e)              h+              e-           Del q
  --------------------------------------------------------------------
   1 H        0.063070        0.020370       -0.012397        0.007973
   2 C       -0.126143        0.490512       -0.506459       -0.015947
   3 H        0.063080        0.020372       -0.012397        0.007974
   4 C       -0.126154        0.490511       -0.506460       -0.015949
   5 H        0.063079        0.020372       -0.012397        0.007975
   6 H        0.063068        0.020370       -0.012397        0.007973
  --------------------------------------------------------------------
  Sum:       -0.000000        1.062507       -1.062507        0.000000
  
  Multipole moment analysis of the density matrix
    Molecular charge:                      -0.000000
    Number of electrons:                   16.000000
      Center of electronic charge [Ang]: [ -1.561338,  -0.065287,   0.002126]
    Total nuclear charge:                  16.000000
      Center of nuclear charge [Ang]:    [ -1.561339,  -0.065287,   0.002127]
    Dipole moment [D]:                     0.000051
      Cartesian components [D]:          [ -0.000010,   0.000001,   0.000050]
    RMS size of the density [Ang]:         1.220494
      Cartesian components [Ang]:        [  0.808759,   0.791774,   0.456738]
  
  Exciton analysis of the difference density matrix
    <r_h> [Ang]:                  [ -1.561336,  -0.065287,   0.002119]
    <r_e> [Ang]:                  [ -1.561336,  -0.065287,   0.002117]
    |<r_e - r_h>| [Ang]:            0.000002
    Hole size [Ang]:                1.287658
      Cartesian components [Ang]: [  0.730435,   0.714997,   0.783139]
    Electron size [Ang]:            1.463774
      Cartesian components [Ang]: [  0.854392,   0.831737,   0.849036]

  Transition density matrix analysis:
  -----------------------------------
  
  CT numbers (Mulliken)
    omega =     0.9532
    <Phe> =    -0.1609
  
  Exciton analysis of the transition density matrix
    Trans. dipole moment [D]:             1.835443
      Cartesian components [D]:         [ -1.330838,   1.263950,   0.012337]
    <r_h> [Ang]:                        [ -1.561335,  -0.065288,   0.002120]
    <r_e> [Ang]:                        [ -1.561336,  -0.065287,   0.002116]
    |<r_e - r_h>| [Ang]:                  0.000005
    Hole size [Ang]:                      1.215219
      Cartesian components [Ang]:       [  0.650546,   0.637641,   0.804339]
    Electron size [Ang]:                  1.486411
      Cartesian components [Ang]:       [  0.864732,   0.840482,   0.869049]
    RMS electron-hole separation [Ang]:   1.937880
      Cartesian components [Ang]:       [  1.107485,   1.076931,   1.170074]
    Covariance(r_h, r_e) [Ang^2]:        -0.034601
    Correlation coefficient:             -0.019156
    Center-of-mass size [Ang]:            0.950917
      Cartesian components [Ang]:       [  0.528067,   0.516288,   0.599029]

  Decomposition into state-averaged NTOs
    H- 0 -> L+ 0: -0.6696 ( 89.7%)
    H- 2 -> L+ 5: -0.0834 (  1.4%)
                   omega =  95.3%
  ----------------------------------------------------------------------------


  Excited state 2 (singlet, A)                                     [converged]
  ----------------------------------------------------------------------------
  Term symbol:  3 (1) A                                     R^2 =  1.04841e-12

  Total energy:                                            -77.9914292999 a.u.
  Excitation energy:                                               8.945881 eV

  Osc. strength:                                                      0.000000
  Trans. dip. moment [a.u.]:           [   0.000517,   -0.000474,   -0.000010]
  <i|r^2|0> [a.u.]:                    [   0.068922,    0.086633,   -0.152624]
  Two-photon absorption cross-section (SoS) [a.u.]:                   4.539499
  Two-photon absorption matrix (SoS) [a.u.]:
                                       |    0.049786    0.057244   -0.512952 |
                                       |    0.057244    0.065350   -0.539479 |
                                       |   -0.512952   -0.539479   -0.115137 |
  Two-photon absorption cross-section [a.u.]:                         0.175279
  Two-photon absorption matrix [a.u.]:
                                       |   -0.009001   -0.011209    0.100862 |
                                       |   -0.011209   -0.013622    0.105933 |
                                       |    0.100862    0.105933    0.022623 |

  Dip. moment [a.u.]:                  [  -0.000048,    0.000052,    0.000037]
  Total dipole [Debye]:                                               0.000205
  <r^2> [a.u.]:                        [ 174.993215,   34.406822,   13.218004]
  Total <r^2> [a.u.]:                                               222.618041

  V1^2 = 0.9540, V2^2 = 0.0460

  Important amplitudes:
      occ i     occ j     vir a      vir b          v   
    -----------------------------------------------------
     7 (A) A              9 (A) A                 0.6687
     8 (A) A             11 (A) A                 0.1506
     7 (A) A             20 (A) A                 0.0755
     5 (A) A   8 (A) B    9 (A) A    9 (A) B      0.0316
     8 (A) A             16 (A) A                 0.0280
     8 (A) A             21 (A) A                -0.0177
     5 (A) A             28 (A) A                 0.0150
     4 (A) A   7 (A) B    9 (A) A   19 (A) B      0.0136
     5 (A) A   7 (A) B    9 (A) A   16 (A) B      0.0134
     7 (A) A   8 (A) B   20 (A) A   17 (A) B     -0.0106
     7 (A) A   8 (A) A    9 (A) A   28 (A) A      0.0098
     5 (A) A   8 (A) B    9 (A) A   20 (A) B      0.0095
     4 (A) A   6 (A) B    9 (A) A   16 (A) B      0.0091
     5 (A) A   6 (A) A    9 (A) A   23 (A) A      0.0090
     5 (A) A   6 (A) A    9 (A) A   14 (A) A      0.0089
     5 (A) A   6 (A) B    9 (A) A   19 (A) B      0.0086
     8 (A) A   7 (A) B    9 (A) A   28 (A) B     -0.0086
     6 (A) A   7 (A) B    9 (A) A   18 (A) B     -0.0085
     4 (A) A   5 (A) A    9 (A) A   10 (A) A      0.0085
     3 (A) A   7 (A) B    9 (A) A   18 (A) B      0.0080
     5 (A) A   6 (A) B    9 (A) A   23 (A) B      0.0080
     5 (A) A   7 (A) A    9 (A) A   16 (A) A      0.0078
     4 (A) A   8 (A) B    9 (A) A   25 (A) B      0.0076
     4 (A) A   7 (A) B   19 (A) A    9 (A) B      0.0075
     7 (A) A   8 (A) B   17 (A) A   20 (A) B     -0.0074
     5 (A) A   5 (A) B    9 (A) A   13 (A) B      0.0073
     7 (A) A   8 (A) B   19 (A) A   18 (A) B      0.0071
     4 (A) A   5 (A) B    9 (A) A   18 (A) B     -0.0069
     5 (A) A   8 (A) A    9 (A) A   20 (A) A      0.0068
     7 (A) A   7 (A) B   20 (A) A   22 (A) B      0.0066
     7 (A) A   8 (A) B   17 (A) A    9 (A) B     -0.0065
     5 (A) A   6 (A) B    9 (A) A   14 (A) B      0.0064
     5 (A) A   7 (A) B   11 (A) A   20 (A) B      0.0062
     4 (A) A   5 (A) B   10 (A) A    9 (A) B     -0.0061
     4 (A) A   7 (A) A    9 (A) A   19 (A) A      0.0061
     5 (A) A             38 (A) A                 0.0060
     4 (A) A   6 (A) B   16 (A) A    9 (A) B      0.0058
     4 (A) A   8 (A) A    9 (A) A   25 (A) A      0.0056
     6 (A) A   7 (A) A   19 (A) A   28 (A) A     -0.0056
     5 (A) A   7 (A) A   11 (A) A   20 (A) A      0.0054
    -----------------------------------------------------

  Density matrix analysis:
  ------------------------
  NOs
    Occupation of frontier NOs:
       0.9566   1.0549
    Number of electrons: 16.000000
    Number of unpaired electrons: n_u =  2.35872, n_u,nl =  2.06467
    NO participation ratio (PR_NO):  3.043252
  
  
  Mulliken Population Analysis
  Atom      Charge (e)              h+              e-           Del q
  --------------------------------------------------------------------
   1 H        0.155269        0.124851       -0.024679        0.100172
   2 C       -0.310523        0.272783       -0.473110       -0.200327
   3 H        0.155248        0.124829       -0.024687        0.100142
   4 C       -0.310531        0.272801       -0.473126       -0.200325
   5 H        0.155261        0.124838       -0.024681        0.100157
   6 H        0.155276        0.124863       -0.024682        0.100181
  --------------------------------------------------------------------
  Sum:       -0.000000        1.044965       -1.044965        0.000000
  
  Multipole moment analysis of the density matrix
    Molecular charge:                      -0.000000
    Number of electrons:                   16.000000
      Center of electronic charge [Ang]: [ -1.561337,  -0.065288,   0.002126]
    Total nuclear charge:                  16.000000
      Center of nuclear charge [Ang]:    [ -1.561339,  -0.065287,   0.002127]
    Dipole moment [D]:                     0.000205
      Cartesian components [D]:          [ -0.000123,   0.000133,   0.000095]
    RMS size of the density [Ang]:         1.205891
      Cartesian components [Ang]:        [  0.790519,   0.773252,   0.480972]
  
  Exciton analysis of the difference density matrix
    <r_h> [Ang]:                  [ -1.561370,  -0.065262,   0.002129]
    <r_e> [Ang]:                  [ -1.561348,  -0.065288,   0.002118]
    |<r_e - r_h>| [Ang]:            0.000036
    Hole size [Ang]:                1.496504
      Cartesian components [Ang]: [  1.014270,   1.001550,   0.455717]
    Electron size [Ang]:            1.479755
      Cartesian components [Ang]: [  0.884221,   0.861883,   0.815466]

  Transition density matrix analysis:
  -----------------------------------
  
  CT numbers (Mulliken)
    omega =     0.9212
    <Phe> =    -0.0115
  
  Exciton analysis of the transition density matrix
    Trans. dipole moment [D]:             0.000891
      Cartesian components [D]:         [  0.000656,  -0.000602,  -0.000012]
    <r_h> [Ang]:                        [ -1.561376,  -0.065257,   0.002131]
    <r_e> [Ang]:                        [ -1.561344,  -0.065291,   0.002116]
    |<r_e - r_h>| [Ang]:                  0.000049
    Hole size [Ang]:                      1.527614
      Cartesian components [Ang]:       [  1.039200,   1.026441,   0.447312]
    Electron size [Ang]:                  1.475097
      Cartesian components [Ang]:       [  0.873085,   0.849975,   0.831370]
    RMS electron-hole separation [Ang]:   2.103558
      Cartesian components [Ang]:       [  1.341238,   1.317660,   0.943297]
    Covariance(r_h, r_e) [Ang^2]:         0.042280
    Correlation coefficient:              0.018763
    Center-of-mass size [Ang]:            1.071690
      Cartesian components [Ang]:       [  0.686569,   0.673767,   0.472419]

  Decomposition into state-averaged NTOs
    H- 1 -> L+ 0:  0.6609 ( 87.4%)
    H- 0 -> L+ 2: -0.1505 (  4.5%)
                   omega =  92.1%
  ----------------------------------------------------------------------------


  Excited state 3 (singlet, A)                                     [converged]
  ----------------------------------------------------------------------------
  Term symbol:  4 (1) A                                     R^2 =  1.39580e-11

  Total energy:                                            -77.9844232405 a.u.
  Excitation energy:                                               9.136525 eV

  Osc. strength:                                                      0.023711
  Trans. dip. moment [a.u.]:           [  -0.015456,   -0.019725,    0.324497]
  <i|r^2|0> [a.u.]:                    [  -0.090985,   -0.005062,   -0.002617]
  Two-photon absorption cross-section (SoS) [a.u.]:                   0.000016
  Two-photon absorption matrix (SoS) [a.u.]:
                                       |    0.001349    0.000070    0.000151 |
                                       |    0.000070   -0.001416   -0.000032 |
                                       |    0.000151   -0.000032   -0.000134 |
  Two-photon absorption cross-section [a.u.]:                         0.000008
  Two-photon absorption matrix [a.u.]:
                                       |    0.000914    0.000073    0.000133 |
                                       |    0.000073   -0.001083   -0.000037 |
                                       |    0.000133   -0.000037   -0.000079 |

  Dip. moment [a.u.]:                  [   0.000037,    0.000053,   -0.000016]
  Total dipole [Debye]:                                               0.000170
  <r^2> [a.u.]:                        [ 181.448866,   41.061719,   11.061225]
  Total <r^2> [a.u.]:                                               233.571810

  V1^2 = 0.9580, V2^2 = 0.0420

  Important amplitudes:
      occ i     occ j     vir a      vir b          v   
    -----------------------------------------------------
     8 (A) A             10 (A) A                -0.6888
     8 (A) A             24 (A) A                -0.0508
     8 (A) A             18 (A) A                 0.0331
     4 (A) A              9 (A) A                -0.0246
     8 (A) A   8 (A) B    9 (A) A   12 (A) B      0.0224
     8 (A) A   8 (A) B   10 (A) A   17 (A) B     -0.0172
     5 (A) A   8 (A) B   11 (A) A   10 (A) B      0.0169
     8 (A) A             15 (A) A                -0.0147
     7 (A) A   8 (A) B   13 (A) A   10 (A) B     -0.0143
     4 (A) A   8 (A) B   12 (A) A   10 (A) B      0.0113
     6 (A) A   8 (A) A   10 (A) A   15 (A) A      0.0112
     6 (A) A   8 (A) B   15 (A) A   10 (A) B     -0.0109
     7 (A) A   8 (A) B   22 (A) A   10 (A) B      0.0109
     4 (A) A   8 (A) A   10 (A) A   12 (A) A     -0.0108
     7 (A) A   8 (A) A   10 (A) A   22 (A) A     -0.0099
     7 (A) A   8 (A) A   10 (A) A   13 (A) A      0.0098
     5 (A) A   8 (A) A   10 (A) A   11 (A) A     -0.0097
     5 (A) A   8 (A) B   21 (A) A   10 (A) B     -0.0094
     6 (A) A   8 (A) B   10 (A) A   10 (A) B      0.0089
     6 (A) A   8 (A) A   10 (A) A   18 (A) A      0.0086
     7 (A) A   8 (A) A   12 (A) A   16 (A) A     -0.0084
     3 (A) A   4 (A) B   10 (A) A    9 (A) B      0.0080
     5 (A) A   8 (A) A   10 (A) A   21 (A) A      0.0079
     8 (A) A   8 (A) B    9 (A) A   23 (A) B     -0.0076
     4 (A) A   8 (A) B   19 (A) A   10 (A) B      0.0075
     8 (A) A   8 (A) B   10 (A) A   28 (A) B      0.0074
     5 (A) A   8 (A) B   10 (A) A   11 (A) B      0.0072
     7 (A) A   8 (A) B   16 (A) A   12 (A) B      0.0072
     3 (A) A   8 (A) A   10 (A) A   24 (A) A      0.0072
     3 (A) A   8 (A) B   10 (A) A   10 (A) B     -0.0071
     8 (A) A   8 (A) B    9 (A) A   19 (A) B      0.0069
     3 (A) A   8 (A) B   10 (A) A   18 (A) B      0.0068
     6 (A) A   8 (A) B   18 (A) A   10 (A) B     -0.0065
     3 (A) A   6 (A) B   10 (A) A   28 (A) B      0.0062
     7 (A) A   8 (A) B   12 (A) A   11 (A) B      0.0059
     6 (A) A             28 (A) A                -0.0058
     5 (A) A   8 (A) A   10 (A) A   16 (A) A     -0.0057
     3 (A) A   5 (A) B   10 (A) A   25 (A) B      0.0056
     6 (A) A   8 (A) A   11 (A) A   16 (A) A     -0.0055
     4 (A) A   8 (A) A   10 (A) A   23 (A) A      0.0055
    -----------------------------------------------------

  Density matrix analysis:
  ------------------------
  NOs
    Occupation of frontier NOs:
       0.9812   0.9846
    Number of electrons: 16.000000
    Number of unpaired electrons: n_u =  2.28870, n_u,nl =  2.02506
    NO participation ratio (PR_NO):  2.701554
  
  
  Mulliken Population Analysis
  Atom      Charge (e)              h+              e-           Del q
  --------------------------------------------------------------------
   1 H       -0.155415        0.054309       -0.264821       -0.210512
   2 C        0.310831        0.538112       -0.117085        0.421027
   3 H       -0.155415        0.054310       -0.264831       -0.210520
   4 C        0.310822        0.538108       -0.117080        0.421028
   5 H       -0.155397        0.054311       -0.264813       -0.210501
   6 H       -0.155427        0.054309       -0.264831       -0.210522
  --------------------------------------------------------------------
  Sum:       -0.000000        1.293459       -1.293459        0.000000
  
  Multipole moment analysis of the density matrix
    Molecular charge:                      -0.000000
    Number of electrons:                   16.000000
      Center of electronic charge [Ang]: [ -1.561340,  -0.065288,   0.002128]
    Total nuclear charge:                  16.000000
      Center of nuclear charge [Ang]:    [ -1.561339,  -0.065287,   0.002127]
    Dipole moment [D]:                     0.000170
      Cartesian components [D]:          [  0.000094,   0.000135,  -0.000042]
    RMS size of the density [Ang]:         1.282916
      Cartesian components [Ang]:        [  0.859009,   0.845216,   0.439985]
  
  Exciton analysis of the difference density matrix
    <r_h> [Ang]:                  [ -1.561337,  -0.065288,   0.002122]
    <r_e> [Ang]:                  [ -1.561354,  -0.065309,   0.002135]
    |<r_e - r_h>| [Ang]:            0.000030
    Hole size [Ang]:                1.413628
      Cartesian components [Ang]: [  0.837082,   0.823161,   0.787430]
    Electron size [Ang]:            2.080723
      Cartesian components [Ang]: [  1.377953,   1.381336,   0.722885]

  Transition density matrix analysis:
  -----------------------------------
  
  CT numbers (Mulliken)
    omega =     0.9249
    <Phe> =    -0.0109
  
  Exciton analysis of the transition density matrix
    Trans. dipole moment [D]:             0.413622
      Cartesian components [D]:         [ -0.019642,  -0.025068,   0.412394]
    <r_h> [Ang]:                        [ -1.561334,  -0.065288,   0.002118]
    <r_e> [Ang]:                        [ -1.561359,  -0.065318,   0.002139]
    |<r_e - r_h>| [Ang]:                  0.000044
    Hole size [Ang]:                      1.213652
      Cartesian components [Ang]:       [  0.636977,   0.624394,   0.823010]
    Electron size [Ang]:                  2.303354
      Cartesian components [Ang]:       [  1.524481,   1.530526,   0.799305]
    RMS electron-hole separation [Ang]:   2.593389
      Cartesian components [Ang]:       [  1.644526,   1.645809,   1.145651]
    Covariance(r_h, r_e) [Ang^2]:         0.026361
    Correlation coefficient:              0.009430
    Center-of-mass size [Ang]:            1.306820
      Cartesian components [Ang]:       [  0.829924,   0.830070,   0.574445]

  Decomposition into state-averaged NTOs
    H- 0 -> L+ 1: -0.6794 ( 92.3%)
                   omega =  92.5%
  ----------------------------------------------------------------------------


  Excited state 4 (singlet, A)                                     [converged]
  ----------------------------------------------------------------------------
  Term symbol:  5 (1) A                                     R^2 =  2.21855e-12

  Total energy:                                            -77.9624171427 a.u.
  Excitation energy:                                               9.735342 eV

  Osc. strength:                                                      0.000000
  Trans. dip. moment [a.u.]:           [   0.000163,   -0.000152,   -0.000007]
  <i|r^2|0> [a.u.]:                    [  -0.012844,   -0.018288,    0.032055]
  Two-photon absorption cross-section (SoS) [a.u.]:                 135.618246
  Two-photon absorption matrix (SoS) [a.u.]:
                                       |   -0.271652   -0.312865    2.804064 |
                                       |   -0.312865   -0.357657    2.948347 |
                                       |    2.804064    2.948347    0.629310 |
  Two-photon absorption cross-section [a.u.]:                        80.722654
  Two-photon absorption matrix [a.u.]:
                                       |   -0.210177   -0.241406    2.163247 |
                                       |   -0.241406   -0.275340    2.274766 |
                                       |    2.163247    2.274766    0.485517 |

  Dip. moment [a.u.]:                  [  -0.000054,   -0.000047,   -0.000028]
  Total dipole [Debye]:                                               0.000195
  <r^2> [a.u.]:                        [ 181.554124,   41.061630,   10.787171]
  Total <r^2> [a.u.]:                                               233.402925

  V1^2 = 0.9633, V2^2 = 0.0367

  Important amplitudes:
      occ i     occ j     vir a      vir b          v   
    -----------------------------------------------------
     8 (A) A             11 (A) A                -0.6689
     7 (A) A              9 (A) A                 0.1527
     8 (A) A             21 (A) A                 0.0779
     8 (A) A             16 (A) A                -0.0674
     8 (A) A   8 (A) B    9 (A) A   13 (A) B     -0.0168
     5 (A) A   8 (A) B   11 (A) A   11 (A) B      0.0156
     7 (A) A             20 (A) A                 0.0139
     8 (A) A   8 (A) B   11 (A) A   17 (A) B     -0.0137
     7 (A) A   8 (A) B   13 (A) A   11 (A) B     -0.0127
     4 (A) A   8 (A) B   12 (A) A   11 (A) B      0.0110
     8 (A) A   8 (A) B    9 (A) A   22 (A) B      0.0110
     5 (A) A   8 (A) A   11 (A) A   21 (A) A      0.0109
     7 (A) A   8 (A) A   11 (A) A   22 (A) A     -0.0095
     6 (A) A   8 (A) B   10 (A) A   11 (A) B      0.0091
     6 (A) A   8 (A) B   15 (A) A   11 (A) B     -0.0089
     7 (A) A   8 (A) B   22 (A) A   11 (A) B      0.0088
     3 (A) A   4 (A) B   11 (A) A    9 (A) B      0.0083
     3 (A) A   8 (A) B   11 (A) A   18 (A) B      0.0080
     6 (A) A   8 (A) A   11 (A) A   15 (A) A      0.0079
     7 (A) A   8 (A) A   13 (A) A   16 (A) A      0.0079
     7 (A) A   8 (A) A   11 (A) A   13 (A) A      0.0075
     4 (A) A   8 (A) B   19 (A) A   11 (A) B      0.0070
     5 (A) A   8 (A) B   21 (A) A   11 (A) B     -0.0069
     5 (A) A   8 (A) B    9 (A) A    9 (A) B      0.0069
     4 (A) A   8 (A) A   11 (A) A   12 (A) A     -0.0062
     3 (A) A   6 (A) B   11 (A) A   28 (A) B      0.0060
     6 (A) A   8 (A) A   11 (A) A   18 (A) A      0.0059
     6 (A) A   8 (A) B   18 (A) A   11 (A) B     -0.0058
     7 (A) A   8 (A) B   16 (A) A   13 (A) B     -0.0057
     3 (A) A   8 (A) B   11 (A) A   30 (A) B      0.0056
     5 (A) A   8 (A) B   10 (A) A   10 (A) B      0.0055
     7 (A) A   8 (A) B   12 (A) A   10 (A) B      0.0055
     8 (A) A   8 (A) B   20 (A) A   22 (A) B      0.0055
     6 (A) A   8 (A) B   11 (A) A   10 (A) B      0.0055
     3 (A) A   5 (A) B   11 (A) A   25 (A) B      0.0054
     3 (A) A   8 (A) A   11 (A) A   18 (A) A      0.0054
     3 (A) A   8 (A) A   11 (A) A   24 (A) A      0.0053
     5 (A) A   8 (A) A   11 (A) A   16 (A) A     -0.0049
     6 (A) A   8 (A) A   10 (A) A   16 (A) A     -0.0047
     8 (A) A   8 (A) B   11 (A) A   28 (A) B      0.0043
    -----------------------------------------------------

  Density matrix analysis:
  ------------------------
  NOs
    Occupation of frontier NOs:
       0.9391   1.0290
    Number of electrons: 16.000000
    Number of unpaired electrons: n_u =  2.32250, n_u,nl =  2.05078
    NO participation ratio (PR_NO):  2.930413
  
  
  Mulliken Population Analysis
  Atom      Charge (e)              h+              e-           Del q
  --------------------------------------------------------------------
   1 H       -0.125328        0.045909       -0.226335       -0.180425
   2 C        0.250912        0.495436       -0.134328        0.361108
   3 H       -0.125580        0.045897       -0.226583       -0.180686
   4 C        0.250897        0.495436       -0.134333        0.361103
   5 H       -0.125594        0.045897       -0.226596       -0.180699
   6 H       -0.125306        0.045910       -0.226311       -0.180401
  --------------------------------------------------------------------
  Sum:       -0.000000        1.174485       -1.174485        0.000000
  
  Multipole moment analysis of the density matrix
    Molecular charge:                      -0.000000
    Number of electrons:                   16.000000
      Center of electronic charge [Ang]: [ -1.561337,  -0.065285,   0.002128]
    Total nuclear charge:                  16.000000
      Center of nuclear charge [Ang]:    [ -1.561339,  -0.065287,   0.002127]
    Dipole moment [D]:                     0.000195
      Cartesian components [D]:          [ -0.000137,  -0.000120,  -0.000070]
    RMS size of the density [Ang]:         1.281767
      Cartesian components [Ang]:        [  0.860086,   0.845216,   0.434500]
  
  Exciton analysis of the difference density matrix
    <r_h> [Ang]:                  [ -1.561337,  -0.065284,   0.002122]
    <r_e> [Ang]:                  [ -1.561314,  -0.065263,   0.002141]
    |<r_e - r_h>| [Ang]:            0.000037
    Hole size [Ang]:                1.395402
      Cartesian components [Ang]: [  0.819854,   0.806547,   0.790234]
    Electron size [Ang]:            2.115233
      Cartesian components [Ang]: [  1.420139,   1.416209,   0.672139]

  Transition density matrix analysis:
  -----------------------------------
  
  CT numbers (Mulliken)
    omega =     0.9292
    <Phe> =    -0.0146
  
  Exciton analysis of the transition density matrix
    Trans. dipole moment [D]:             0.000283
      Cartesian components [D]:         [  0.000207,  -0.000193,  -0.000008]
    <r_h> [Ang]:                        [ -1.561338,  -0.065286,   0.002119]
    <r_e> [Ang]:                        [ -1.561311,  -0.065257,   0.002144]
    |<r_e - r_h>| [Ang]:                  0.000047
    Hole size [Ang]:                      1.229870
      Cartesian components [Ang]:       [  0.662397,   0.649900,   0.807118]
    Electron size [Ang]:                  2.248873
      Cartesian components [Ang]:       [  1.509696,   1.506805,   0.712592]
    RMS electron-hole separation [Ang]:   2.552025
      Cartesian components [Ang]:       [  1.639739,   1.632762,   1.076186]
    Covariance(r_h, r_e) [Ang^2]:         0.028588
    Correlation coefficient:              0.010336
    Center-of-mass size [Ang]:            1.287166
      Cartesian components [Ang]:       [  0.828728,   0.824583,   0.538581]

  Decomposition into state-averaged NTOs
    H- 0 -> L+ 2:  0.6643 ( 88.2%)
    H- 1 -> L+ 0:  0.1506 (  4.5%)
                   omega =  92.9%
  ----------------------------------------------------------------------------


  Excited state 5 (singlet, A)                                     [converged]
  ----------------------------------------------------------------------------
  Term symbol:  6 (1) A                                     R^2 =  4.43746e-11

  Total energy:                                            -77.9473113961 a.u.
  Excitation energy:                                              10.146390 eV

  Osc. strength:                                                      0.000000
  Trans. dip. moment [a.u.]:           [  -0.000034,   -0.000021,    0.000001]
  <i|r^2|0> [a.u.]:                    [   0.081169,   -0.097117,    0.015811]
  Two-photon absorption cross-section (SoS) [a.u.]:                 224.967287
  Two-photon absorption matrix (SoS) [a.u.]:
                                       |    0.369199    0.056256   -3.836512 |
                                       |    0.056256   -0.438962    3.637566 |
                                       |   -3.836512    3.637566    0.071288 |
  Two-photon absorption cross-section [a.u.]:                       116.437605
  Two-photon absorption matrix [a.u.]:
                                       |    0.266161    0.040836   -2.760091 |
                                       |    0.040836   -0.315215    2.616968 |
                                       |   -2.760091    2.616968    0.051159 |

  Dip. moment [a.u.]:                  [   0.000035,   -0.000054,   -0.000001]
  Total dipole [Debye]:                                               0.000163
  <r^2> [a.u.]:                        [ 180.412007,   39.785774,   11.606554]
  Total <r^2> [a.u.]:                                               231.804334

  V1^2 = 0.9555, V2^2 = 0.0445

  Important amplitudes:
      occ i     occ j     vir a      vir b          v   
    -----------------------------------------------------
     8 (A) A             12 (A) A                -0.5691
     6 (A) A              9 (A) A                -0.3830
     8 (A) A             19 (A) A                -0.0523
     6 (A) A             20 (A) A                -0.0521
     8 (A) A             23 (A) A                 0.0294
     8 (A) A   8 (A) B    9 (A) A   10 (A) B      0.0205
     8 (A) A             26 (A) A                 0.0185
     4 (A) A   8 (A) B    9 (A) A    9 (A) B     -0.0158
     3 (A) A              9 (A) A                -0.0158
     5 (A) A   8 (A) B   11 (A) A   12 (A) B      0.0149
     8 (A) A   8 (A) B   12 (A) A   17 (A) B     -0.0133
     7 (A) A   8 (A) B   13 (A) A   12 (A) B     -0.0129
     4 (A) A   8 (A) B   12 (A) A   12 (A) B      0.0124
     5 (A) A   8 (A) A   11 (A) A   12 (A) A      0.0108
     6 (A) A   8 (A) B   15 (A) A   12 (A) B     -0.0102
     7 (A) A   8 (A) B   22 (A) A   12 (A) B      0.0093
     6 (A) A   8 (A) A   12 (A) A   15 (A) A      0.0091
     8 (A) A             14 (A) A                -0.0089
[...]
    16   -1.435239242536e-03
    17   -1.745474438202e-03
    18    1.359580578980e-04
    19   -2.902017984138e-03
    20    1.137684470015e-02
    21    9.286196302516e-01
    22   -4.864944882101e-04
    23    1.375556356753e-02
    24    8.091991193636e-04
    25    7.035019538193e-02
    26   -5.224894485828e-02
    27   -1.384691737645e+00
    28    9.973506617832e-02
    29   -9.471520579619e-02
    30   -9.624092895936e-04
    31    3.851440672086e-01
    32   -3.657616830005e-01
    33   -3.717713699214e-03
    34    1.514183350175e-02
    35   -1.432921492399e-03
    36   -1.744280855076e-03
    37    1.361188312137e-04
    38   -2.901348609434e-03
    39    1.137254717027e-02
    40    9.286169812861e-01
    41    4.862081733901e-04
    42   -1.375535567595e-02
    43   -8.087439888384e-04
    44    1.137720166153e-02
    45    9.286215722571e-01
    46    1.376880701466e-02
    47    2.181478954066e-04
    48    6.725253768118e-04
Sym=X
Ene= 0.231259
Spin=Alpha
Occup=0
     1   -2.981680413094e-02
     2   -1.168430804835e+00
     3    1.295237090061e-02
     4    3.523377068151e-03
     5    8.351787071844e-04
     6    6.541928952915e-05
     7   -6.926167742639e-05
     8   -1.034776194212e-03
     9    1.545339588635e-01
    10    1.626265691487e-01
    11    1.725997551216e-02
    12    5.301746854966e-01
    13    5.580748736142e-01
    14    5.923115747733e-02
    15    1.368401138871e-05
    16   -7.025911146727e-05
    17    7.148249635919e-05
    18   -1.314262371760e-03
    19   -7.487981175938e-05
    20    2.985172018716e-02
    21    1.169952636514e+00
    22    2.872061319842e-03
    23    1.312842652161e-02
    24    9.322969113251e-04
    25   -6.680981591935e-05
    26    7.037073494949e-05
    27    1.069671039618e-03
    28    1.545317750559e-01
    29    1.626323078345e-01
    30    1.723251377733e-02
    31    5.301359027429e-01
    32    5.580666979813e-01
    33    5.911882252931e-02
    34   -1.371217573207e-05
    35    7.188584030440e-05
    36   -7.228975496570e-05
    37    1.312878208604e-03
    38    7.476534902469e-05
    39   -2.985193548567e-02
    40   -1.169935527633e+00
    41    2.871901730127e-03
    42    1.312862805422e-02
    43    9.308179460962e-04
    44    2.981665951763e-02
    45    1.168369130979e+00
    46    1.295202749375e-02
    47    3.523143282288e-03
    48    8.335624972374e-04
Sym=X
Ene= 0.236288
Spin=Alpha
Occup=0
     1    1.931127338270e-02
     2    1.072644327629e+00
     3   -1.586859344504e-02
     4   -9.251252784821e-03
     5   -1.320757932804e-03
     6    8.717127056652e-02
     7   -8.242606088808e-02
     8   -1.544658179978e+00
     9   -5.872547512678e-02
    10    5.554042180186e-02
    11    5.394247360909e-04
    12   -2.425731282779e-01
    13    2.295417529645e-01
    14    2.223363823479e-03
    15    2.125798275639e-02
    16   -2.500461148108e-03
    17   -2.871998785223e-03
    18    6.107403075279e-04
    19   -1.235194818514e-02
    20    1.927729207437e-02
    21    1.070840328385e+00
    22    8.430451133733e-03
    23    1.628984109978e-02
    24    1.389657958177e-03
    25   -8.716996911881e-02
    26    8.242261678083e-02
    27    1.544649294265e+00
    28   -5.872637273196e-02
    29    5.554268601874e-02
    30    5.537934407216e-04
    31   -2.425710802270e-01
    32    2.295638897364e-01
    33    2.282471729649e-03
    34   -2.125804861575e-02
    35    2.498131263270e-03
    36    2.872292187383e-03
    37   -6.117404423584e-04
    38    1.235152470342e-02
    39   -1.927685632508e-02
    40   -1.070855918546e+00
    41    8.430915095706e-03
    42    1.629014921082e-02
    43    1.390158089414e-03
    44   -1.931013307177e-02
    45   -1.072614762617e+00
    46   -1.586786846567e-02
    47   -9.252213629927e-03
    48   -1.319396823519e-03
Sym=X
Ene= 0.302860
Spin=Alpha
Occup=0
     1   -2.096054828099e-02
     2    1.657091047457e+00
     3   -2.355049694938e-02
     4    4.258674085006e-04
     5   -1.106621772062e-03
     6    6.170724754123e-08
     7   -3.090628108870e-06
     8    1.778445927919e-05
     9   -1.357269782020e-01
    10   -1.427758218269e-01
    11   -1.515106277157e-02
    12   -1.122822735150e+00
    13   -1.181035806317e+00
    14   -1.252968377335e-01
    15    3.218734642433e-05
    16   -1.751481885441e-03
    17    1.984676445297e-03
    18   -3.424988378860e-02
    19   -1.750221441500e-03
    20    2.096081754270e-02
    21   -1.657096390091e+00
    22    1.626548005283e-03
    23   -2.348655963915e-02
    24   -1.340492050341e-03
    25    1.713308691899e-06
    26   -2.435993274888e-06
    27   -4.800047658058e-05
    28    1.357319275198e-01
    29    1.427802946445e-01
    30    1.513681316144e-02
    31    1.122795424579e+00
    32    1.181053659472e+00
    33    1.252478970982e-01
    34    3.373368758941e-05
    35   -1.748615451291e-03
    36    1.985998091199e-03
    37   -3.424841355317e-02
    38   -1.751111714842e-03
    39    2.095682213556e-02
    40   -1.657090636532e+00
    41   -1.627533181827e-03
    42    2.348598885397e-02
    43    1.340019534388e-03
    44   -2.095570181255e-02
    45    1.657119265222e+00
    46    2.355114799937e-02
    47   -4.261898549931e-04
    48    1.104884393549e-03
Sym=X
Ene= 0.462621
Spin=Alpha
Occup=0
     1   -1.134976601392e-01
     2   -6.999972304867e-01
     3   -1.472675301925e-02
     4   -1.037455476657e-02
     5   -1.335059344189e-03
     6    6.276193970289e-02
     7    1.587370033780e-02
     8   -3.618378806657e+00
     9    1.049906920448e-01
    10   -9.970506941035e-02
    11   -9.990050338737e-04
    12    2.428291933749e+00
    13   -2.306244861091e+00
    14   -2.253979169547e-02
    15    5.248666407046e-02
    16   -3.230955254475e-03
    17   -4.493837192518e-03
    18   -1.072844659663e-03
    19    2.001787154847e-02
    20   -1.134603062126e-01
    21   -7.000399422884e-01
    22    9.620759936370e-03
    23    1.522601400861e-02
    24    1.382420374725e-03
    25   -6.276302995423e-02
    26   -1.586669168206e-02
    27    3.618384340269e+00
    28    1.050042065874e-01
    29   -9.971358189436e-02
    30   -1.006842139370e-03
    31    2.428273159081e+00
    32   -2.306210364022e+00
    33   -2.257372383787e-02
    34   -5.248193238094e-02
    35    3.226481164795e-03
    36    4.487714218632e-03
    37    1.072105433166e-03
    38   -2.002392808135e-02
    39    1.134250137770e-01
    40    7.000726952857e-01
    41    9.619968696690e-03
    42    1.522524101047e-02
    43    1.380394840225e-03
    44    1.134686518904e-01
    45    7.000203571037e-01
    46   -1.472549611471e-02
    47   -1.037235557428e-02
    48   -1.333598058644e-03
Sym=X
Ene= 0.580487
Spin=Alpha
Occup=0
     1    2.375995477050e-01
     2    4.940617766786e-02
     3   -2.228305050221e-02
     4    2.704769044055e-02
     5    5.640228473705e-04
     6   -6.186025035960e-03
     7   -1.687030828456e-01
     8   -4.196530309015e-01
     9    3.061057303511e-01
    10   -2.906935724487e-01
    11   -2.842823294371e-03
    12   -7.482111206700e-01
    13    7.104879262572e-01
    14    6.995809706493e-03
    15   -1.505171954423e-03
    16    3.632815606823e-03
    17    3.257434784178e-03
    18   -3.069911226722e-03
    19    6.021080142487e-02
    20    2.375850384413e-01
    21    4.942827486300e-02
    22   -2.816179299831e-02
    23    2.086410802752e-02
    24   -9.203567579389e-05
    25   -6.193825512037e-03
    26   -1.687071045718e-01
    27   -4.193005543047e-01
    28   -3.060970101347e-01
    29    2.906757211324e-01
    30    2.840883372718e-03
    31    7.484762502470e-01
    32   -7.107033357389e-01
    33   -7.003833551185e-03
    34   -1.504607155720e-03
    35    3.632876271213e-03
    36    3.256824752981e-03
    37   -3.063014850902e-03
    38    6.021116252353e-02
    39    2.375423220757e-01
    40    4.955713398766e-02
    41    2.816830198904e-02
    42   -2.086949964399e-02
    43    9.107654216530e-05
    44    2.376211354085e-01
    45    4.949072776169e-02
    46    2.228220791256e-02
    47   -2.704834345370e-02
    48   -5.647108618465e-04
Sym=X
Ene= 0.608114
Spin=Alpha
Occup=0
     1   -5.189408685636e-01
     2    2.437190447489e-01
     3   -5.918871934879e-02
     4    3.691455451571e-02
     5   -6.116479128675e-04
     6    3.822851322522e-06
     7   -1.370070368649e-05
     8    2.401271749184e-04
     9   -3.648541736193e-02
    10   -3.838228254288e-02
    11   -4.066821243019e-03
    12    2.627251987867e-01
    13    2.765630202101e-01
    14    2.935516265201e-02
    15    1.190824586638e-04
    16   -7.573028381421e-03
    17    8.584655835640e-03
    18   -1.481319749164e-01
    19   -7.577650098053e-03
    20    5.190296927837e-01
    21   -2.437598319361e-01
    22    3.990214240095e-02
    23   -5.720694798202e-02
    24   -1.538712576694e-03
    25   -4.491124290156e-06
    26    1.527399648770e-05
    27   -1.907703956986e-04
    28   -3.647225285553e-02
    29   -3.839742118741e-02
    30   -4.075384090323e-03
    31    2.626880997226e-01
    32    2.766294732699e-01
    33    2.929733668481e-02
    34   -1.176532707409e-04
    35    7.566028245625e-03
    36   -8.590196517901e-03
    37    1.481402635547e-01
    38    7.575892153504e-03
    39   -5.190777356623e-01
    40    2.437940487302e-01
    41    3.989683515047e-02
    42   -5.720703547416e-02
    43   -1.542678168477e-03
    44    5.189358065809e-01
    45   -2.437603571278e-01
    46   -5.919059512559e-02
    47    3.691533226944e-02
    48   -6.115540343963e-04
Sym=X
Ene= 0.689095
Spin=Alpha
Occup=0
     1    4.501334338549e-05
     2    3.219126102596e-05
     3    9.105155297363e-04
     4    1.151393809621e-03
     5   -1.893710390525e-02
     6    2.421212359507e-06
     7   -2.647118122856e-06
     8    5.479101183215e-05
     9    3.224457106734e-02
    10    4.056096251926e-02
    11   -6.711633207024e-01
    12   -2.955277273431e-02
    13   -3.693191374205e-02
    14    6.127500599610e-01
    15   -1.332605037843e-03
    16    8.257493628671e-02
    17   -7.834125051320e-02
    18   -8.695673680685e-03
    19   -1.206400402919e-03
    20    3.956194648297e-05
    21    5.789192906475e-05
    22    9.061420096609e-04
    23    1.145174750920e-03
    24   -1.893336522870e-02
    25   -5.319981472646e-07
    26    3.257208985350e-05
    27   -7.706833304368e-05
    28    3.222665599169e-02
    29    4.052639470735e-02
    30   -6.711652912776e-01
    31   -2.952417332082e-02
    32   -3.689198722454e-02
    33    6.127514339117e-01
    34    1.321361512782e-03
    35   -8.257371450958e-02
    36    7.834252235084e-02
    37    8.704574507763e-03
    38    1.211031148740e-03
    39   -1.883645465745e-05
    40   -5.054817713958e-05
    41    9.040329170549e-04
    42    1.150122740178e-03
    43   -1.893302238258e-02
    44   -1.337280442302e-05
    45   -7.626096047701e-05
    46    9.003049330773e-04
    47    1.144669748713e-03
    48   -1.893780482100e-02
Sym=X
Ene= 0.705184
Spin=Alpha
Occup=0
     1   -4.881263068711e-01
     2    1.628041989736e-01
     3   -7.824979296160e-02
     4   -4.447443390461e-02
     5   -6.452057578918e-03
     6   -4.597802852348e-02
     7   -3.013505881910e-01
     8    4.659272845720e-01
     9    1.957765268215e-01
    10   -1.859703824344e-01
    11   -1.850064027355e-03
    12   -5.587441844562e-02
    13    5.322925989882e-02
    14    4.804891467302e-04
    15    1.913725011789e-01
    16   -2.048260776979e-02
    17   -2.406946804066e-02
    18    3.742606289020e-03
    19   -7.642741681985e-02
    20   -4.881615531914e-01
    21    1.629866201536e-01
    22    4.044040484605e-02
    23    8.039333319579e-02
    24    6.795411681145e-03
    25   -4.597232936627e-02
    26   -3.013515506273e-01
    27    4.656404801745e-01
    28   -1.957769819778e-01
    29    1.859708732964e-01
    30    1.809389861082e-03
    31    5.567839110834e-02
    32   -5.306047190276e-02
    33   -4.341561375157e-04
    34    1.913750091255e-01
    35   -2.047296757732e-02
    36   -2.405787879675e-02
    37    3.738999522001e-03
    38   -7.641772724358e-02
    39   -4.881373252066e-01
    40    1.629161199846e-01
    41   -4.043936234350e-02
    42   -8.039075246836e-02
    43   -6.792830477843e-03
    44   -4.881278921006e-01
    45    1.627433381848e-01
    46    7.825005609762e-02
    47    4.447350065343e-02
    48    6.446703621464e-03
Sym=X
Ene= 0.775013
Spin=Alpha
Occup=0
     1    5.384550998694e-01
     2   -4.730680779194e-01
     3    1.073366788964e-01
     4    2.613054886319e-02
     5    6.737710252908e-03
     6    8.882255251255e-02
     7   -2.266468449588e-01
     8   -5.429841334005e-01
     9    1.061549912159e-01
    10   -1.007816635611e-01
    11   -9.536615046465e-04
    12    2.753943010221e-01
    13   -2.617072607237e-01
    14   -2.610373568486e-03
    15   -2.034286220227e-01
    16    1.739374317695e-02
    17    2.172408638664e-02
    18   -1.169050923334e-04
    19    6.064912938487e-03
    20    5.383577202305e-01
    21   -4.731619338077e-01
    22   -2.064684044492e-02
    23   -1.084665558968e-01
    24   -7.545637625502e-03
    25   -8.882377550958e-02
    26    2.266483261737e-01
    27    5.430400381164e-01
    28    1.061690391184e-01
    29   -1.007784824281e-01
    30   -9.851849521258e-04
    31    2.753368795411e-01
    32   -2.616881182600e-01
    33   -2.538257842700e-03
    34    2.034356535208e-01
    35   -1.737033595011e-02
    36   -2.171195099964e-02
    37    1.211548043207e-04
    38   -6.064050169677e-03
    39   -5.383881463894e-01
    40    4.731662707749e-01
    41   -2.064823685032e-02
    42   -1.084691808828e-01
    43   -7.540580450789e-03
    44   -5.384780591502e-01
    45    4.730428775486e-01
    46    1.073331938663e-01
    47    2.613517485900e-02
    48    6.731828291990e-03
Sym=X
Ene= 0.807149
Spin=Alpha
Occup=0
     1    1.046924981924e-05
     2    2.998347585511e-05
     3    1.501274742761e-03
     4    1.894115840381e-03
     5   -3.138182158668e-02
     6    3.467605106479e-06
     7   -3.302833201433e-05
     8    1.810589596197e-05
     9    3.674861740097e-02
    10    4.617228778499e-02
    11   -7.642304972453e-01
    12   -5.400784435938e-02
    13   -6.787002284726e-02
    14    1.123192494031e+00
    15    1.035834055592e-03
    16   -6.478283746324e-02
    17    6.146328452046e-02
    18    6.815945477061e-03
    19    9.493922971812e-04
    20    1.241856193769e-05
    21   -4.206384198463e-05
    22    1.503363992284e-03
    23    1.893672659594e-03
    24   -3.137247458967e-02
    25   -4.003988757295e-07
    26   -2.502175453560e-05
    27    1.093667217053e-05
    28   -3.668391523150e-02
    29   -4.613925614640e-02
    30    7.642372452949e-01
    31    5.393028439668e-02
    32    6.778719022424e-02
    33   -1.123201434321e+00
    34    1.049198474936e-03
    35   -6.478246587144e-02
    36    6.146091479437e-02
    37    6.834799105391e-03
    38    9.549735506829e-04
    39   -9.325867536436e-06
    40    5.824347463982e-05
    41   -1.505213246489e-03
    42   -1.909622588149e-03
    43    3.136896864575e-02
    44   -7.362290715975e-06
    45   -1.377652486115e-05
    46   -1.499722619419e-03
    47   -1.901405822739e-03
    48    3.138048539183e-02
Sym=X
Ene= 0.858740
Spin=Alpha
Occup=0
     1    1.561354429443e-02
     2   -1.076104689005e+00
     3    1.466129980042e-01
     4    5.579287379067e-02
     5    1.040891278140e-02
     6    4.450061592671e-06
     7    8.633701642051e-06
     8    1.042409520336e-05
     9   -4.116742921036e-01
    10   -4.330340508501e-01
    11   -4.597128929449e-02
    12    9.361504591539e-01
    13    9.846633344673e-01
    14    1.045318879767e-01
    15   -2.241687543243e-04
    16    1.181889442844e-02
    17   -1.339409966186e-02
    18    2.311766190442e-01
    19    1.181901520784e-02
    20   -1.557028165694e-02
    21    1.076009486049e+00
    22    4.826408425325e-02
    23    1.491765376114e-01
    24    1.133836353336e-02
    25   -4.076426666525e-06
    26   -4.504067703241e-06
    27   -9.735661135426e-06
    28   -4.116861877527e-01
    29   -4.330538527002e-01
    30   -4.589283348348e-02
    31    9.361686393458e-01
    32    9.847127465511e-01
    33    1.043604878783e-01
    34    2.229313461064e-04
    35   -1.181825334809e-02
    36    1.339560034027e-02
    37   -2.311839593328e-01
    38   -1.182335787244e-02
    39    1.556597381837e-02
    40   -1.076017115887e+00
    41    4.825550135470e-02
    42    1.491810185962e-01
    43    1.133482119351e-02
    44   -1.560775926249e-02
    45    1.076109761479e+00
    46    1.466179386281e-01
    47    5.578837462774e-02
    48    1.040095786982e-02
Sym=X
Ene= 0.927700
Spin=Alpha
Occup=0
     1   -1.425792643462e-01
     2    1.230157650661e+00
     3   -1.828337330629e-01
     4    5.972038692503e-03
     5   -8.430329202369e-03
     6   -2.154846609758e-06
     7   -7.518605818816e-05
     8    1.213705444552e-04
     9    4.735719304540e-01
    10    4.981424680565e-01
    11    5.284912828348e-02
    12   -1.378570824007e+00
    13   -1.450169254522e+00
    14   -1.538473670218e-01
    15    1.296969042324e-04
    16   -6.492776561524e-03
    17    7.337535054168e-03
    18   -1.267074301258e-01
    19   -6.484913829173e-03
    20    1.425580558749e-01
    21   -1.230256422144e+00
    22    1.530266131917e-02
    23   -1.821996662249e-01
    24   -1.026961699201e-02
    25   -2.552817816428e-06
    26   -6.603965166583e-05
    27    1.274726220324e-04
    28   -4.735732489679e-01
    29   -4.981301469188e-01
    30   -5.282450631084e-02
    31    1.378571827481e+00
    32    1.450113710096e+00
    33    1.537767794974e-01
    34    1.343516325288e-04
    35   -6.474246412085e-03
    36    7.332809620923e-03
    37   -1.267032113549e-01
    38   -6.497431867897e-03
    39    1.425518771914e-01
    40   -1.230203336516e+00
    41   -1.531264762158e-02
    42    1.821908423335e-01
    43    1.026478349432e-02
    44   -1.425895097406e-01
    45    1.230167371121e+00
    46    1.828346628463e-01
    47   -5.973231748282e-03
    48    8.418173407569e-03
Sym=X
Ene= 0.969618
Spin=Alpha
Occup=0
     1   -6.286994498289e-02
     2    8.994283236259e-01
     3   -8.827660240382e-02
     4   -9.648223940729e-02
     5   -1.006176028202e-02
     6    2.632365948460e-02
     7    2.510479355725e-01
     8    5.232834597023e-01
     9    4.831157696484e-01
    10   -4.588117204748e-01
    11   -4.502055316181e-03
    12   -1.480499033512e+00
    13    1.405998073901e+00
    14    1.378159178845e-02
    15   -5.620393644268e-02
    16   -1.250765083629e-02
    17   -9.335639141010e-03
    18    1.516167637312e-02
    19   -2.959056852575e-01
    20   -6.289601718452e-02
    21    8.993790693192e-01
    22    9.189159596606e-02
    23    9.303505236424e-02
    24    1.004203107924e-02
    25   -2.632296857690e-02
    26   -2.509823475053e-01
    27   -5.233883758320e-01
    28    4.831023397919e-01
    29   -4.588180725022e-01
    30   -4.522841610970e-03
    31   -1.480453070680e+00
    32    1.406051875848e+00
    33    1.384134478065e-02
    34    5.619902214118e-02
    35    1.250666791566e-02
    36    9.337779329577e-03
    37   -1.516520654792e-02
    38    2.958930709795e-01
    39    6.289541975621e-02
    40   -8.993885707250e-01
    41    9.188597674660e-02
    42    9.303678748989e-02
    43    1.004382350763e-02
    44    6.287822294160e-02
    45   -8.993592585499e-01
    46   -8.826817947398e-02
    47   -9.647975182686e-02
    48   -1.005511614138e-02
[5D]

======= END OF MOLDEN-FORMATTED INPUT FILE =======


        *************************************************************
        *                                                           *
        *  Thank you very much for using Q-Chem.  Have a nice day.  *
        *                                                           *
        *************************************************************


