                  Welcome to Q-Chem
     A Quantum Leap Into The Future Of Chemistry


 Q-Chem 5.4 (devel), Q-Chem, Inc., Pleasanton, CA (2021)

 E. Epifanovsky,  A. T. B. Gilbert,  Xintian Feng,  Joonho Lee,  Yuezhi Mao,  
 N. Mardirossian,  P. Pokhilko,  A. White,  M. Wormit,  M. P. Coons,  
 A. L. Dempwolff,  Zhengting Gan,  D. Hait,  P. R. Horn,  L. D. Jacobson,  
 I. Kaliman,  J. Kussmann,  A. W. Lange,  Ka Un Lao,  D. S. Levine,  Jie Liu,  
 S. C. McKenzie,  A. F. Morrison,  K. Nanda,  F. Plasser,  D. R. Rehn,  
 M. L. Vidal,  Zhi-Qiang You,  Ying Zhu,  B. Alam,  B. Albrecht,  
 A. Aldossary,  E. Alguire,  J. H. Andersen,  D. Barton,  K. Begam,  A. Behn,  
 Y. A. Bernard,  E. J. Berquist,  H. Burton,  A. Carreras,  K. Carter-Fenk,  
 R. Chakraborty,  A. D. Chien,  K. D. Closser,  V. Cofer-Shabica,  
 S. Dasgupta,  Jia Deng,  M. de Wergifosse,  M. Diedenhofen,  Hainam Do,  
 S. Ehlert,  Po-Tung Fang,  S. Fatehi,  Qingguo Feng,  T. Friedhoff,  
 J. Gayvert,  Qinghui Ge,  G. Gidofalvi,  M. Goldey,  J. Gomes,  
 C. Gonzalez-Espinoza,  S. Gulania,  A. Gunina,  M. W. D. Hanson-Heine,  
 P. H. P. Harbach,  A. W. Hauser,  M. F. Herbst,  M. Hernandez Vera,  
 M. Hodecker,  Z. C. Holden,  S. Houck,  Xunkun Huang,  Kerwin Hui,  
 B. C. Huynh,  M. Ivanov,  Hyunjun Ji,  Hanjie Jiang,  B. Kaduk,  S. Kaehler,  
 K. Khistyaev,  Jaehoon Kim,  P. Klunzinger,  Z. Koczor-Benda,  
 Joong Hoon Koh,  D. Kosenkov,  L. Koulias,  T. Kowalczyk,  C. M. Krauter,  
 K. Kue,  A. Kunitsa,  T. Kus,  A. Landau,  K. V. Lawler,  D. Lefrancois,  
 S. Lehtola,  Rain Li,  Yi-Pei Li,  Jiashu Liang,  M. Liebenthal,  
 Hung-Hsuan Lin,  You-Sheng Lin,  Fenglai Liu,  Kuan-Yu Liu,  
 M. Loipersberger,  A. Luenser,  A. Manjanath,  P. Manohar,  E. Mansoor,  
 S. F. Manzer,  Shan-Ping Mao,  A. V. Marenich,  T. Markovich,  S. Mason,  
 S. A. Maurer,  P. F. McLaughlin,  M. F. S. J. Menger,  J.-M. Mewes,  
 S. A. Mewes,  P. Morgante,  J. W. Mullinax,  K. J. Oosterbaan,  G. Paran,  
 Alexander C. Paul,  Suranjan K. Paul,  F. Pavosevic,  Zheng Pei,  S. Prager,  
 E. I. Proynov,  E. Ramos,  B. Rana,  A. E. Rask,  A. Rettig,  R. M. Richard,  
 F. Rob,  E. Rossomme,  T. Scheele,  M. Scheurer,  M. Schneider,  
 N. Sergueev,  S. M. Sharada,  W. Skomorowski,  D. W. Small,  C. J. Stein,  
 Yu-Chuan Su,  E. J. Sundstrom,  Zhen Tao,  J. Thirman,  T. Tsuchimochi,  
 N. M. Tubman,  S. P. Veccham,  O. Vydrov,  J. Wenzel,  J. Witte,  A. Yamada,  
 Kun Yao,  S. Yeganeh,  S. R. Yost,  A. Zech,  Igor Ying Zhang,  Xing Zhang,  
 Yu Zhang,  D. Zuev,  A. Aspuru-Guzik,  A. T. Bell,  N. A. Besley,  
 K. B. Bravaya,  B. R. Brooks,  D. Casanova,  Jeng-Da Chai,  S. Coriani,  
 C. J. Cramer,  A. E. DePrince, III,  R. A. DiStasio Jr.,  A. Dreuw,  
 B. D. Dunietz,  T. R. Furlani,  W. A. Goddard III,  S. Grimme,  
 S. Hammes-Schiffer,  T. Head-Gordon,  W. J. Hehre,  Chao-Ping Hsu,  
 T.-C. Jagau,  Yousung Jung,  A. Klamt,  Jing Kong,  D. S. Lambrecht,  
 WanZhen Liang,  N. J. Mayhall,  C. W. McCurdy,  J. B. Neaton,  
 C. Ochsenfeld,  J. A. Parkhill,  R. Peverati,  V. A. Rassolov,  Yihan Shao,  
 L. V. Slipchenko,  T. Stauch,  R. P. Steele,  J. E. Subotnik,  
 A. J. W. Thom,  A. Tkatchenko,  D. G. Truhlar,  T. Van Voorhis,  
 T. A. Wesolowski,  K. B. Whaley,  H. L. Woodcock III,  P. M. Zimmerman,  
 S. Faraji,  P. M. W. Gill,  M. Head-Gordon,  J. M. Herbert,  A. I. Krylov

 Additional authors for Version 5.4.1: 
 S. Kotaru,  Shaozhi Li,  Xiangyuan Li,  F. Matz,  A. Molle,  Haisheng Ren,  
 Yingli Su,  Hung-Yi Tsai,  C. Utku,  Fang Wang

 Contributors to earlier versions of Q-Chem not listed above: 
 R. D. Adamson,  B. Austin,  R. Baer,  J. Baker,  G. J. O. Beran,  
 K. Brandhorst,  S. T. Brown,  E. F. C. Byrd,  A. K. Chakraborty,  
 G. K. L. Chan,  Chun-Min Chang,  Yunqing Chen,  C.-L. Cheng,  
 Siu Hung Chien,  D. M. Chipman,  D. L. Crittenden,  H. Dachsel,  
 R. J. Doerksen,  A. D. Dutoi,  R. G. Edgar,  J. Fosso-Tande,  
 L. Fusti-Molnar,  D. Ghosh,  A. Ghysels,  A. Golubeva-Zadorozhnaya,  
 J. Gonthier,  M. S. Gordon,  S. R. Gwaltney,  G. Hawkins,  J. E. Herr,  
 A. Heyden,  S. Hirata,  E. G. Hohenstein,  G. Kedziora,  F. J. Keil,  
 C. Kelley,  Jihan Kim,  R. A. King,  R. Z. Khaliullin,  P. P. Korambath,  
 W. Kurlancheek,  A. Laurent,  A. M. Lee,  M. S. Lee,  S. V. Levchenko,  
 Ching Yeh Lin,  D. Liotard,  E. Livshits,  R. C. Lochan,  I. Lotan,  
 L. A. Martinez-Martinez,  P. E. Maslen,  N. Nair,  D. P. O'Neill,  
 D. Neuhauser,  E. Neuscamman,  C. M. Oana,  R. Olivares-Amaya,  R. Olson,  
 T. M. Perrine,  B. Peters,  P. A. Pieniazek,  A. Prociuk,  Y. M. Rhee,  
 J. Ritchie,  M. A. Rohrdanz,  E. Rosta,  N. J. Russ,  H. F. Schaefer III,  
 M. W. Schmidt,  N. E. Schultz,  S. Sharma,  N. Shenvi,  C. D. Sherrill,  
 A. C. Simmonett,  A. Sodt,  T. Stein,  D. Stuck,  K. S. Thanthiriwatte,  
 V. Vanovschi,  L. Vogt,  Tao Wang,  A. Warshel,  M. A. Watson,  
 C. F. Williams,  Q. Wu,  X. Xu,  Jun Yang,  W. Zhang,  Yan Zhao

 Please cite Q-Chem as follows:
 Y. Shao et al., Mol. Phys. 113, 184-215 (2015)
 DOI: 10.1080/00268976.2014.952696

 Q-Chem 5.4.1 for Intel X86 EM64T Linux

 Parts of Q-Chem use Armadillo 9.800.1 (Horizon Scraper).
 http://arma.sourceforge.net/

 Q-Chem begins on Thu Nov 17 15:41:06 2022  

 Host: cpu184.baobab
0

     Scratch files written to /scratch/fum/qchem27689//
 Processing $rem in /home/share/wesolowski/qc5.aug2021.FDE/config/preferences:
 Processing $rem in /home/fum/.qchemrc:

 Checking the input file for inconsistencies... 	...done.

--------------------------------------------------------------
User input:
--------------------------------------------------------------
$comment
generated from CCJob.Templates
$end

$rem
sym_ignore = true
method = adc(2)
ee_states = 10
basis = cc-pVDZ
mem_static = 1024
mem_total = 40000
adc_davidson_maxiter = 900
adc_davidson_conv = 6
adc_print = 3
adc_prop_es = true
adc_prop_es2es = true
adc_prop_tpa = true
molden_format = True
state_analysis = true
print_orbitals = 15
gen_scfman = false
fde_export_density = true
fde_details = 3
$end

$molecule
0 1
H -0.0348278765 -0.2442097827 0.0636489606
C -1.0765972949 -0.5242748755 -0.0023551776
H -1.313264467 -1.5767591607 -0.0757276926
C -2.043634118 0.3926884087 0.0061254933
H -1.8137616575 1.4459188338 0.0804456828
H -3.0759772930000002 0.114931858 -0.0593381042                     
$end
--------------------------------------------------------------
 ----------------------------------------------------------------
             Standard Nuclear Orientation (Angstroms)
    I     Atom           X                Y                Z
 ----------------------------------------------------------------
    1      H      -0.0348278765    -0.2442097827     0.0636489606
    2      C      -1.0765972949    -0.5242748755    -0.0023551776
    3      H      -1.3132644670    -1.5767591607    -0.0757276926
    4      C      -2.0436341180     0.3926884087     0.0061254933
    5      H      -1.8137616575     1.4459188338     0.0804456828
    6      H      -3.0759772930     0.1149318580    -0.0593381042
 ----------------------------------------------------------------
 Nuclear Repulsion Energy =          33.45919289 hartrees
 There are        8 alpha and        8 beta electrons
 Requested basis set is cc-pVDZ
 There are 24 shells and 48 basis functions
 Total memory of 40000 MB is distributed as follows: 
   MEM_STATIC is set to 1024 MB
   QALLOC/CCMAN JOB total memory use is  38976 MB
 Warning: actual memory use might exceed 40000 MB

 Total QAlloc Memory Limit  40000 MB
 Mega-Array Size      1001 MB
 MEM_STATIC part      1024 MB

                       Distance Matrix (Angstroms)
             H (  1)   C (  2)   H (  3)   C (  4)   H (  5)
   C (  2)  1.080776
   H (  3)  1.851895  1.081258
   C (  4)  2.108139  1.332687  2.102109
   H (  5)  2.453859  2.105215  3.067812  1.080583
   H (  6)  3.064751  2.099846  2.443204  1.071059  1.839634

 A cutoff of  1.0D-11 yielded    300 shell pairs
 There are      1220 function pairs (      1329 Cartesian)
 Smallest overlap matrix eigenvalue = 4.80E-03

 Scale SEOQF with 1.000000e-01/1.000000e-01/1.000000e+00

 Standard Electronic Orientation quadrupole field applied
 Nucleus-field energy     =     0.0000000022 hartrees
 Guess from superposition of atomic densities
 Warning:  Energy on first SCF cycle will be non-variational
 SAD guess density has 16.000000 electrons
 A restricted Hartree-Fock SCF calculation will be
 performed using Pulay DIIS extrapolation
 SCF converges when DIIS error is below 1.0E-08
 using 10 threads for integral computing
 -------------------------------------------------------
 OpenMP Integral computing Module                
 Release: version 1.0, May 2013, Q-Chem Inc. Pittsburgh 
 -------------------------------------------------------
 ---------------------------------------
  Cycle       Energy         DIIS Error
 ---------------------------------------
    1     -78.4458011300      1.01E-01
    2     -78.0175454398      7.23E-03
    3     -78.0382089821      1.85E-03
    4     -78.0396936033      5.75E-04
    5     -78.0398160994      5.89E-05
    6     -78.0398179972      1.15E-05
    7     -78.0398180691      4.75E-06
    8     -78.0398180774      9.91E-07
    9     -78.0398180780      1.67E-07
   10     -78.0398180781      5.39E-08
   11     -78.0398180781      7.87E-09 Convergence criterion met
 ---------------------------------------
 SCF time:  CPU 1.56 s  wall 2.90 s
 SCF   energy in the final basis set = -78.03981808
 Total energy in the final basis set = -78.03981808
Exporting Density Matrix to file 'Densmat_SCF.txt'.
Export successful
================================================================================
|                                                                              |
|                                 A D C  M A N                                 |
|                                                                              |
 ------------------------------------------------------------------------------ 
|                                                                              |
| Components:                                                                  |
|                                                                              |
| - libvmm - 1.3-trunk                                                         |
|   Authors:                                                                   |
|   Evgeny Epifanovsky, Ilya Kaliman                                           |
|                                                                              |
| - libtensor - 2.5-trunk                                                      |
|   Authors:                                                                   |
|   Evgeny Epifanovsky, Michael Wormit, Dmitry Zuev, Sam Manzer,               |
|   Ilya Kaliman                                                               |
|                                                                              |
| - libwfa - 1.1-trunk                                                         |
|   Authors:                                                                   |
|   Felix Plasser, Stefanie Mewes (Baeppler), Benjamin Thomitzni,              |
|   Michael Wormit, Feng Chen, Anna I. Krylov, Pavel Pokhilko                  |
|                                                                              |
| - libadc - 1.1-trunk                                                         |
|   Authors:                                                                   |
|   Michael Wormit, Adrian L. Dempwolff, Philipp H. P. Harbach,                |
|   Caroline Krauter, Dirk Rehn, Matthias Schneider, Jan Wenzel                |
|                                                                              |
| - adcman - 2.6-trunk                                                         |
|   Authors:                                                                   |
|   Michael Wormit, Adrian L. Dempwolff, Philipp H. P. Harbach,                |
|   Caroline Krauter, Daniel Lefrancois, Jan-Michael Mewes, Dirk Rehn,         |
|   Matthias Schneider, Jan Wenzel, Andreas Dreuw                              |
|                                                                              |
| Authors of earlier versions of ADCMAN:                                       |
| Andreas Dreuw, Jan Hendrik Starcke, Dirk Rehn, Michael Wormit                |
|                                                                              |
================================================================================

 Created directory /scratch/fum/qchem27689/plots
  Import QC data ...  CPU 0.00 s  wall 0.00 s

 Alpha MOs, Restricted
 -- Occupied --                  
-11.235 -11.233  -1.033  -0.791  -0.642  -0.582  -0.505  -0.374
  1 A     2 A     3 A     4 A     5 A     6 A     7 A     8 A                  
 -- Virtual --                   
  0.168   0.204   0.233   0.240   0.303   0.462   0.577   0.616
  9 A    10 A    11 A    12 A    13 A    14 A    15 A    16 A                  
  0.689   0.710   0.786   0.808   0.863   0.937   0.973   1.010
 17 A    18 A    19 A    20 A    21 A    22 A    23 A    24 A                  
  1.131   1.234   1.255   1.266   1.294   1.603   1.727   1.752
 25 A    26 A    27 A    28 A    29 A    30 A    31 A    32 A                  
  1.821   1.860   1.869   1.924   1.977   1.981   2.222   2.259
 33 A    34 A    35 A    36 A    37 A    38 A    39 A    40 A                  
  2.379   2.459   2.509   2.637   2.728   2.828   3.147   3.405
 41 A    42 A    43 A    44 A    45 A    46 A    47 A    48 A                  

 Beta MOs, Restricted
 -- Occupied --                  
-11.235 -11.233  -1.033  -0.791  -0.642  -0.582  -0.505  -0.374
  1 A     2 A     3 A     4 A     5 A     6 A     7 A     8 A                  
 -- Virtual --                   
  0.168   0.204   0.233   0.240   0.303   0.462   0.577   0.616
  9 A    10 A    11 A    12 A    13 A    14 A    15 A    16 A                  
  0.689   0.710   0.786   0.808   0.863   0.937   0.973   1.010
 17 A    18 A    19 A    20 A    21 A    22 A    23 A    24 A                  
  1.131   1.234   1.255   1.266   1.294   1.603   1.727   1.752
 25 A    26 A    27 A    28 A    29 A    30 A    31 A    32 A                  
  1.821   1.860   1.869   1.924   1.977   1.981   2.222   2.259
 33 A    34 A    35 A    36 A    37 A    38 A    39 A    40 A                  
  2.379   2.459   2.509   2.637   2.728   2.828   3.147   3.405
 41 A    42 A    43 A    44 A    45 A    46 A    47 A    48 A                  
  Import AO data ...  CPU 0.00 s  wall 0.01 s
  Using point group: C1
  Irreducible representations in point group: A
  Molecular orbitals: 
  Occupied MOs:
  Block   0:   1 (  A) A   2 (  A) A   3 (  A) A   4 (  A) A   5 (  A) A
                  -11.23      -11.23      -1.033     -0.7907      -0.642
               6 (  A) A   7 (  A) A   8 (  A) A
                 -0.5821     -0.5054     -0.3739
  Block   1:   1 (  A) B   2 (  A) B   3 (  A) B   4 (  A) B   5 (  A) B
                  -11.23      -11.23      -1.033     -0.7907      -0.642
               6 (  A) B   7 (  A) B   8 (  A) B
                 -0.5821     -0.5054     -0.3739
  Virtual MOs:
  Block   0:   9 (  A) A  10 (  A) A  11 (  A) A  12 (  A) A  13 (  A) A
                  0.1684      0.2039      0.2333      0.2398      0.3033
              14 (  A) A  15 (  A) A  16 (  A) A  17 (  A) A  18 (  A) A
                  0.4621      0.5773      0.6158      0.6892      0.7098
              19 (  A) A  20 (  A) A  21 (  A) A  22 (  A) A
                   0.786       0.808      0.8629      0.9372
  Block   1:  23 (  A) A  24 (  A) A  25 (  A) A  26 (  A) A  27 (  A) A
                  0.9728        1.01       1.131       1.234       1.255
              28 (  A) A  29 (  A) A  30 (  A) A  31 (  A) A  32 (  A) A
                   1.266       1.294       1.603       1.727       1.752
              33 (  A) A  34 (  A) A  35 (  A) A  36 (  A) A
                   1.821        1.86       1.869       1.924
  Block   2:  37 (  A) A  38 (  A) A  39 (  A) A  40 (  A) A  41 (  A) A
                   1.977       1.981       2.222       2.259       2.379
              42 (  A) A  43 (  A) A  44 (  A) A  45 (  A) A  46 (  A) A
                   2.459       2.509       2.637       2.728       2.828
              47 (  A) A  48 (  A) A
                   3.147       3.405
  Block   3:   9 (  A) B  10 (  A) B  11 (  A) B  12 (  A) B  13 (  A) B
                  0.1684      0.2039      0.2333      0.2398      0.3033
              14 (  A) B  15 (  A) B  16 (  A) B  17 (  A) B  18 (  A) B
                  0.4621      0.5773      0.6158      0.6892      0.7098
              19 (  A) B  20 (  A) B  21 (  A) B  22 (  A) B
                   0.786       0.808      0.8629      0.9372
  Block   4:  23 (  A) B  24 (  A) B  25 (  A) B  26 (  A) B  27 (  A) B
                  0.9728        1.01       1.131       1.234       1.255
              28 (  A) B  29 (  A) B  30 (  A) B  31 (  A) B  32 (  A) B
                   1.266       1.294       1.603       1.727       1.752
              33 (  A) B  34 (  A) B  35 (  A) B  36 (  A) B
                   1.821        1.86       1.869       1.924
  Block   5:  37 (  A) B  38 (  A) B  39 (  A) B  40 (  A) B  41 (  A) B
                   1.977       1.981       2.222       2.259       2.379
              42 (  A) B  43 (  A) B  44 (  A) B  45 (  A) B  46 (  A) B
                   2.459       2.509       2.637       2.728       2.828
              47 (  A) B  48 (  A) B
                   3.147       3.405
  Import MO data ...  CPU 0.01 s  wall 0.02 s
  Import HF data ...  CPU 0.08 s  wall 0.04 s
  Import 2e integrals ...  CPU 0.67 s  wall 0.12 s

--------------------------------------------------------------------------------
                                   HF Summary                                   
--------------------------------------------------------------------------------
  Energy:                                                  -78.0398180781 a.u.
  Dip. moment [a.u.]:                  [  -0.002336,    0.000332,    0.000233]
  Total dipole [Debye]:                                               0.006027
  <r^2> [a.u.]:                        [ 175.090392,   34.914454,   11.616943]
  Total <r^2> [a.u.]:                                               221.621789
--------------------------------------------------------------------------------
  HF properties ...  CPU 0.01 s  wall 0.01 s
  MP(1) calculation ...  CPU 0.01 s  wall 0.01 s
  N^6 prerequesite intermediates ...  CPU 0.51 s  wall 0.09 s
  Difference density matrix of state mp2_gs printed to ASCII file 'State_mp2_gs_Difference.txt'
Exporting MP density matrix to file 'Densmat_MP.txt'.
Export successful
  Total density matrix of state mp2_gs printed to ASCII file 'State_mp2_gs_Total.txt'
Exporting MP density matrix to file 'Densmat_MP.txt'.
Export successful

--------------------------------------------------------------------------------
                                 MP(2) Summary                                  
--------------------------------------------------------------------------------
  MP energy contribution:                                   -0.2795697756 a.u.
  Total energy:                                            -78.3193878536 a.u.
  Dip. moment [a.u.]:                  [  -0.002179,    0.000362,    0.000238]
  Total dipole [Debye]:                                               0.005648
  <r^2> [a.u.]:                        [ 175.139354,   34.955464,   11.449450]
  Total <r^2> [a.u.]:                                               221.544268

  Density matrix analysis:
  ------------------------
  NOs
    Occupation of frontier NOs:
       0.0453   1.9383
    Number of electrons: 16.000000
    Number of unpaired electrons: n_u =  0.40279, n_u,nl =  0.04496
    NO participation ratio (PR_NO): 13.849029
  
  
  Mulliken Population Analysis
  Atom      Charge (e)              h+              e-           Del q
  --------------------------------------------------------------------
   1 H        0.050762        0.014028       -0.011199        0.002829
   2 C       -0.102296        0.093314       -0.098863       -0.005549
   3 H        0.050394        0.014070       -0.011184        0.002885
   4 C       -0.096611        0.092372       -0.098600       -0.006228
   5 H        0.049860        0.014134       -0.011157        0.002977
   6 H        0.047891        0.014230       -0.011145        0.003085
  --------------------------------------------------------------------
  Sum:        0.000000        0.242148       -0.242148       -0.000000
  
  Multipole moment analysis of the density matrix
    Molecular charge:                      -0.000000
    Number of electrons:                   16.000000
      Center of electronic charge [Ang]: [ -1.559879,  -0.065614,   0.001970]
    Total nuclear charge:                  16.000000
      Center of nuclear charge [Ang]:    [ -1.559951,  -0.065602,   0.001978]
    Dipole moment [D]:                     0.005648
      Cartesian components [D]:          [ -0.005539,   0.000919,   0.000606]
    RMS size of the density [Ang]:         1.199953
      Cartesian components [Ang]:        [  0.795002,   0.779409,   0.447640]
  
  Exciton analysis of the difference density matrix
    <r_h> [Ang]:                  [ -1.558351,  -0.066263,   0.001952]
    <r_e> [Ang]:                  [ -1.558694,  -0.066329,   0.001941]
    |<r_e - r_h>| [Ang]:            0.000350
    Hole size [Ang]:                1.392462
      Cartesian components [Ang]: [  0.844664,   0.834190,   0.727750]
    Electron size [Ang]:            1.359494
      Cartesian components [Ang]: [  0.876931,   0.862143,   0.579591]
--------------------------------------------------------------------------------
  MP(2) calculation ...  CPU 0.13 s  wall 0.11 s
  Start ADC(2)-s ...  CPU 0.01 s  wall 0.00 s
  ADC(2) intermediates ...  CPU 0.02 s  wall 0.01 s
  Starting Davidson for singlet states of irrep A ... 
--------------------------------------------------------------------------------
   It NVec Conv  Avg. Norm  Max. Norm  Conv. states           Remark
--------------------------------------------------------------------------------
        10    0  1.330e-01  4.688e-01  0.4120 n n n n n n n n Guess.
    1   20    0  2.305e-02  1.108e-01  0.3262 n n n n n n n n 
    2   30    0  5.910e-03  2.707e-02  0.3215 n n n n n n n n 
    3   40    0  2.108e-03  1.526e-02  0.3211 n n n n n n n n 
    4   50    0  6.353e-04  4.845e-03  0.3211 n n n n n n n n 
    5   20    0  2.661e-04  1.918e-03  0.3211 n n n n n n n n Subspace collapsed.
    6   30    0  1.903e-04  1.730e-03  0.3211 n n n n n n n n 
    7   40    0  9.421e-05  8.623e-04  0.3211 n n n n n n n n 
    8   50    0  1.127e-04  1.079e-03  0.3211 n n n n n n n n 
    9   20    2  9.334e-05  8.809e-04  0.3211 n y n y n n n n Subspace collapsed.
   10   30    4  1.171e-04  1.159e-03  0.3211 n y y y n y n n 
   11   40    5  1.233e-04  1.231e-03  0.3211 n y y y y y n n 
   12   50    5  9.983e-05  9.979e-04  0.3211 n y y y y y n n 
   13   20    6  5.411e-05  5.408e-04  0.3211 y y y y y y n n Subspace collapsed.
   14   30    6  3.196e-05  3.193e-04  0.3211 y y y y y y n n 
   15   40    7  1.936e-05  1.932e-04  0.3211 y y y y y y n y 
   16   50    7  2.533e-05  2.533e-04  0.3211 y y y y y y n y 
   17   20    8  1.179e-05  1.178e-04  0.3211 y y y y y y n y Subspace collapsed.
   18   30    8  2.075e-05  2.075e-04  0.3211 y y y y y y n y 
   19   40    8  2.101e-05  2.101e-04  0.3211 y y y y y y n y 
   20   50    9  1.893e-05  1.893e-04  0.3211 y y y y y y y y 
   21   20    9  8.310e-06  8.309e-05  0.3211 y y y y y y y y Subspace collapsed.
   22   30    9  7.445e-06  7.444e-05  0.3211 y y y y y y y y 
   23   32    9  7.227e-06  7.226e-05  0.3211 y y y y y y y y 
   24   33    9  7.034e-06  7.034e-05  0.3211 y y y y y y y y 
   25   34    9  7.103e-06  7.103e-05  0.3211 y y y y y y y y 
   26   35    9  7.098e-06  7.098e-05  0.3211 y y y y y y y y 
   27   35    9  7.098e-06  7.098e-05  0.3211 y y y y y y y y 
   28   45    9  3.348e-06  3.348e-05  0.3211 y y y y y y y y 
   29   50    9  3.648e-06  3.648e-05  0.3211 y y y y y y y y 
   30   16    9  2.284e-06  2.284e-05  0.3211 y y y y y y y y Subspace collapsed.
   31   22    9  3.930e-06  3.930e-05  0.3211 y y y y y y y y 
   32   27    9  3.544e-06  3.544e-05  0.3211 y y y y y y y y 
   33   31    9  3.680e-06  3.680e-05  0.3211 y y y y y y y y 
   34   35    9  2.082e-06  2.082e-05  0.3211 y y y y y y y y 
   35   39    9  1.450e-06  1.450e-05  0.3211 y y y y y y y y 
   36   43    9  7.117e-07  7.117e-06  0.3211 y y y y y y y y 
   37   47    9  3.847e-07  3.847e-06  0.3211 y y y y y y y y 
   38   50    9  1.686e-07  1.686e-06  0.3211 y y y y y y y y 
   39   14   10  8.139e-08  8.139e-07  0.3211 y y y y y y y y Converged.
--------------------------------------------------------------------------------
  Davidson Summary: 
 ------------------------------------------------------------
  State  0: excitation energy =   0.3211 a.u.   (converged)
  State  1: excitation energy =   0.3333 a.u.   (converged)
  State  2: excitation energy =   0.3373 a.u.   (converged)
  State  3: excitation energy =   0.3620 a.u.   (converged)
  State  4: excitation energy =   0.3756 a.u.   (converged)
  State  5: excitation energy =   0.3874 a.u.   (converged)
  State  6: excitation energy =   0.4255 a.u.   (converged)
  State  7: excitation energy =   0.4475 a.u.   (converged)
  State  8: excitation energy =   0.4567 a.u.   (converged)
  State  9: excitation energy =   0.4657 a.u.   (converged)
 ------------------------------------------------------------

  Singlet states of irrep A ...  CPU 89.61 s  wall 31.95 s
  TDMs ...  CPU 0.67 s  wall 0.28 s
  SDMs ...  CPU 1.47 s  wall 0.52 s
  Starting TPA DIIS iterations ... 
------------------------------------ 
   It     Res. Norm  Remark
------------------------------------
                       Guess.
    1     4.411e+00  
    2     5.847e+00  
    3     1.075e+00  
    4     2.541e-01  
    5     6.556e-02  
    6     2.634e-02  
    7     8.184e-03  
    8     1.400e-03  
    9     5.174e-04  
   10     8.805e-05  
   11     2.713e-05  
   12     4.281e-06  
   13     1.368e-06  
   14     4.412e-07  Converged.
   ... Converged in 14 steps (norm: 4.41221e-07)
------------------------------------
  Starting TPA DIIS iterations ... 
------------------------------------ 
   It     Res. Norm  Remark
------------------------------------
                       Guess.
    1     4.184e+00  
    2     5.542e+00  
    3     1.030e+00  
    4     2.561e-01  
    5     6.554e-02  
    6     2.683e-02  
    7     8.107e-03  
    8     1.458e-03  
    9     5.375e-04  
   10     8.954e-05  
   11     2.834e-05  
   12     4.342e-06  
   13     1.420e-06  
   14     4.460e-07  Converged.
   ... Converged in 14 steps (norm: 4.45961e-07)
------------------------------------
  Starting TPA DIIS iterations ... 
------------------------------------ 
   It     Res. Norm  Remark
------------------------------------
                       Guess.
    1     6.880e-01  
    2     4.837e-01  
    3     1.709e-01  
    4     6.037e-02  
    5     1.824e-02  
    6     6.607e-03  
    7     1.035e-03  
    8     4.430e-04  
    9     1.258e-04  
   10     2.550e-05  
   11     6.903e-06  
   12     2.011e-06  
   13     1.395e-06  
   14     5.823e-07  Converged.
   ... Converged in 14 steps (norm: 5.8232e-07)
------------------------------------
  Starting TPA DIIS iterations ... 
------------------------------------ 
   It     Res. Norm  Remark
------------------------------------
                       Guess.
    1     4.713e+00  
    2     6.390e+00  
    3     1.160e+00  
    4     2.839e-01  
    5     7.428e-02  
    6     3.011e-02  
    7     9.335e-03  
    8     1.593e-03  
    9     5.936e-04  
   10     1.016e-04  
   11     3.165e-05  
   12     5.044e-06  
   13     1.623e-06  
   14     5.286e-07  Converged.
   ... Converged in 14 steps (norm: 5.28613e-07)
------------------------------------
  Starting TPA DIIS iterations ... 
------------------------------------ 
   It     Res. Norm  Remark
------------------------------------
                       Guess.
    1     4.470e+00  
    2     6.057e+00  
    3     1.111e+00  
    4     2.859e-01  
    5     7.427e-02  
    6     3.069e-02  
    7     9.252e-03  
    8     1.662e-03  
    9     6.172e-04  
   10     1.034e-04  
   11     3.305e-05  
   12     5.111e-06  
   13     1.685e-06  
   14     5.340e-07  Converged.
   ... Converged in 14 steps (norm: 5.34041e-07)
------------------------------------
  Starting TPA DIIS iterations ... 
------------------------------------ 
   It     Res. Norm  Remark
------------------------------------
                       Guess.
    1     7.006e-01  
    2     5.020e-01  
    3     1.813e-01  
    4     6.874e-02  
    5     1.972e-02  
    6     7.255e-03  
    7     1.175e-03  
    8     5.246e-04  
    9     1.521e-04  
   10     2.856e-05  
   11     7.999e-06  
   12     2.396e-06  
   13     1.762e-06  
   14     7.478e-07  Converged.
   ... Converged in 14 steps (norm: 7.47771e-07)
------------------------------------
  Starting TPA DIIS iterations ... 
------------------------------------ 
   It     Res. Norm  Remark
------------------------------------
                       Guess.
    1     4.820e+00  
    2     6.583e+00  
    3     1.189e+00  
    4     2.946e-01  
    5     7.744e-02  
    6     3.148e-02  
    7     9.753e-03  
    8     1.663e-03  
    9     6.214e-04  
   10     1.066e-04  
   11     3.332e-05  
   12     5.326e-06  
   13     1.718e-06  
   14     5.615e-07  Converged.
   ... Converged in 14 steps (norm: 5.61455e-07)
------------------------------------
  Starting TPA DIIS iterations ... 
------------------------------------ 
   It     Res. Norm  Remark
------------------------------------
                       Guess.
    1     4.571e+00  
    2     6.240e+00  
    3     1.140e+00  
    4     2.967e-01  
    5     7.744e-02  
    6     3.210e-02  
    7     9.667e-03  
    8     1.736e-03  
    9     6.462e-04  
   10     1.084e-04  
   11     3.478e-05  
   12     5.395e-06  
   13     1.784e-06  
   14     5.672e-07  Converged.
   ... Converged in 14 steps (norm: 5.67168e-07)
------------------------------------
  Starting TPA DIIS iterations ... 
------------------------------------ 
   It     Res. Norm  Remark
------------------------------------
                       Guess.
    1     7.048e-01  
    2     5.083e-01  
    3     1.849e-01  
    4     7.182e-02  
    5     2.023e-02  
    6     7.490e-03  
    7     1.227e-03  
    8     5.550e-04  
    9     1.618e-04  
   10     2.944e-05  
   11     8.403e-06  
   12     2.541e-06  
   13     1.904e-06  
   14     8.132e-07  Converged.
   ... Converged in 14 steps (norm: 8.13156e-07)
------------------------------------
  Starting TPA DIIS iterations ... 
------------------------------------ 
   It     Res. Norm  Remark
------------------------------------
                       Guess.
    1     5.574e+00  
    2     7.992e+00  
    3     1.400e+00  
    4     3.754e-01  
    5     1.012e-01  
    6     4.186e-02  
    7     1.289e-02  
    8     2.186e-03  
    9     8.316e-04  
   10     1.442e-04  
   11     4.622e-05  
   12     7.519e-06  
   13     2.475e-06  
   14     8.279e-07  Converged.
   ... Converged in 14 steps (norm: 8.27903e-07)
------------------------------------
  Starting TPA DIIS iterations ... 
------------------------------------ 
   It     Res. Norm  Remark
------------------------------------
                       Guess.
    1     5.284e+00  
    2     7.574e+00  
    3     1.341e+00  
    4     3.774e-01  
    5     1.012e-01  
    6     4.279e-02  
    7     1.279e-02  
    8     2.290e-03  
    9     8.657e-04  
   10     1.468e-04  
   11     4.816e-05  
   12     7.598e-06  
   13     2.566e-06  
   14     8.366e-07  Converged.
   ... Converged in 14 steps (norm: 8.3656e-07)
------------------------------------
  Starting TPA DIIS iterations ... 
------------------------------------ 
   It     Res. Norm  Remark
------------------------------------
                       Guess.
    1     7.321e-01  
    2     5.505e-01  
    3     2.098e-01  
    4     9.568e-02  
    5     2.383e-02  
    6     9.260e-03  
    7     1.633e-03  
    8     7.873e-04  
    9     2.355e-04  
   10     3.327e-05  
   11     1.156e-05  
   12     3.722e-06  
   13     3.112e-06  
   14     1.386e-06  
   15     5.526e-07  Converged.
   ... Converged in 15 steps (norm: 5.52645e-07)
------------------------------------
  Starting TPA DIIS iterations ... 
------------------------------------ 
   It     Res. Norm  Remark
------------------------------------
                       Guess.
    1     6.078e+00  
    2     8.964e+00  
    3     1.540e+00  
    4     4.333e-01  
    5     1.182e-01  
    6     4.938e-02  
    7     1.514e-02  
    8     2.560e-03  
    9     9.838e-04  
   10     1.715e-04  
   11     5.579e-05  
   12     9.154e-06  
   13     3.053e-06  
   14     1.041e-06  
   15     3.506e-07  Converged.
   ... Converged in 15 steps (norm: 3.50563e-07)
------------------------------------
  Starting TPA DIIS iterations ... 
------------------------------------ 
   It     Res. Norm  Remark
------------------------------------
                       Guess.
    1     5.760e+00  
    2     8.494e+00  
    3     1.474e+00  
    4     4.352e-01  
    5     1.182e-01  
    6     5.055e-02  
    7     1.503e-02  
    8     2.686e-03  
    9     1.025e-03  
   10     1.746e-04  
   11     5.804e-05  
   12     9.235e-06  
   13     3.161e-06  
   14     1.053e-06  
   15     3.499e-07  Converged.
   ... Converged in 15 steps (norm: 3.49881e-07)
------------------------------------
  Starting TPA DIIS iterations ... 
------------------------------------ 
   It     Res. Norm  Remark
------------------------------------
                       Guess.
    1     7.481e-01  
    2     5.768e-01  
    3     2.259e-01  
    4     1.134e-01  
    5     2.627e-02  
    6     1.054e-02  
    7     1.940e-03  
    8     9.476e-04  
    9     2.861e-04  
   10     3.473e-05  
   11     1.398e-05  
   12     4.664e-06  
   13     4.116e-06  
   14     1.877e-06  
   15     7.402e-07  Converged.
   ... Converged in 15 steps (norm: 7.40184e-07)
------------------------------------
  Starting TPA DIIS iterations ... 
------------------------------------ 
   It     Res. Norm  Remark
------------------------------------
                       Guess.
    1     6.576e+00  
    2     9.951e+00  
    3     1.677e+00  
    4     4.935e-01  
    5     1.358e-01  
    6     5.728e-02  
    7     1.748e-02  
    8     2.946e-03  
    9     1.143e-03  
   10     2.002e-04  
   11     6.593e-05  
   12     1.090e-05  
   13     3.680e-06  
   14     1.283e-06  
   15     4.367e-07  Converged.
   ... Converged in 15 steps (norm: 4.36745e-07)
------------------------------------
  Starting TPA DIIS iterations ... 
------------------------------------ 
   It     Res. Norm  Remark
------------------------------------
                       Guess.
    1     6.232e+00  
    2     9.429e+00  
    3     1.605e+00  
    4     4.953e-01  
    5     1.360e-01  
    6     5.870e-02  
    7     1.735e-02  
    8     3.096e-03  
    9     1.191e-03  
   10     2.037e-04  
   11     6.847e-05  
   12     1.098e-05  
   13     3.801e-06  
   14     1.299e-06  
   15     4.351e-07  Converged.
   ... Converged in 15 steps (norm: 4.35074e-07)
------------------------------------
  Starting TPA DIIS iterations ... 
------------------------------------ 
   It     Res. Norm  Remark
------------------------------------
                       Guess.
    1     7.626e-01  
    2     6.015e-01  
    3     2.414e-01  
    4     1.322e-01  
    5     2.874e-02  
    6     1.187e-02  
    7     2.271e-03  
    8     1.101e-03  
    9     3.357e-04  
   10     3.663e-05  
   11     1.665e-05  
   12     5.725e-06  
   13     5.269e-06  
   14     2.446e-06  
   15     9.747e-07  Converged.
   ... Converged in 15 steps (norm: 9.74722e-07)
------------------------------------
  Starting TPA DIIS iterations ... 
------------------------------------ 
   It     Res. Norm  Remark
------------------------------------
                       Guess.
    1     8.735e+00  
    2     1.448e+01  
    3     2.263e+00  
    4     7.821e-01  
    5     2.207e-01  
    6     9.594e-02  
    7     2.870e-02  
    8     4.789e-03  
    9     1.922e-03  
   10     3.395e-04  
   11     1.155e-04  
   12     1.963e-05  
   13     6.860e-06  
   14     2.758e-06  
   15     9.388e-07  Converged.
   ... Converged in 15 steps (norm: 9.38808e-07)
------------------------------------
  Starting TPA DIIS iterations ... 
------------------------------------ 
   It     Res. Norm  Remark
------------------------------------
                       Guess.
    1     8.275e+00  
    2     1.371e+01  
    3     2.163e+00  
    4     7.826e-01  
    5     2.211e-01  
    6     9.872e-02  
    7     2.854e-02  
    8     5.058e-03  
    9     2.003e-03  
   10     3.453e-04  
   11     1.190e-04  
   12     1.968e-05  
   13     6.981e-06  
   14     2.807e-06  
   15     9.336e-07  Converged.
   ... Converged in 15 steps (norm: 9.33586e-07)
------------------------------------
  Starting TPA DIIS iterations ... 
------------------------------------ 
   It     Res. Norm  Remark
------------------------------------
                       Guess.
    1     8.136e-01  
    2     6.976e-01  
    3     3.047e-01  
    4     2.237e-01  
    5     4.035e-02  
    6     1.821e-02  
    7     3.968e-03  
    8     1.594e-03  
    9     5.352e-04  
   10     5.821e-05  
   11     3.119e-05  
   12     1.191e-05  
   13     1.200e-05  
   14     5.832e-06  
   15     2.644e-06  
   16     1.125e-06  
   17     2.982e-07  Converged.
   ... Converged in 17 steps (norm: 2.98232e-07)
------------------------------------
  Starting TPA DIIS iterations ... 
------------------------------------ 
   It     Res. Norm  Remark
------------------------------------
                       Guess.
    1     1.055e+01  
    2     1.856e+01  
    3     2.741e+00  
    4     1.052e+00  
    5     3.008e-01  
    6     1.332e-01  
    7     3.928e-02  
    8     6.512e-03  
    9     2.669e-03  
   10     4.722e-04  
   11     1.613e-04  
   12     2.831e-05  
   13     9.931e-06  
   14     4.622e-06  
   15     1.565e-06  
   16     1.130e-06  
   17     2.882e-07  Converged.
   ... Converged in 17 steps (norm: 2.88203e-07)
------------------------------------
  Starting TPA DIIS iterations ... 
------------------------------------ 
   It     Res. Norm  Remark
------------------------------------
                       Guess.
    1     9.991e+00  
    2     1.758e+01  
    3     2.619e+00  
    4     1.050e+00  
    5     3.015e-01  
    6     1.374e-01  
    7     3.908e-02  
    8     6.896e-03  
    9     2.783e-03  
   10     4.801e-04  
   11     1.653e-04  
   12     2.838e-05  
   13     9.995e-06  
   14     4.713e-06  
   15     1.577e-06  
   16     1.214e-06  
   17     3.160e-07  Converged.
   ... Converged in 17 steps (norm: 3.15972e-07)
------------------------------------
  Starting TPA DIIS iterations ... 
------------------------------------ 
   It     Res. Norm  Remark
------------------------------------
                       Guess.
    1     8.467e-01  
    2     7.682e-01  
    3     3.537e-01  
    4     3.052e-01  
    5     5.098e-02  
    6     2.382e-02  
    7     5.624e-03  
    8     1.792e-03  
    9     6.872e-04  
   10     8.645e-05  
   11     4.690e-05  
   12     1.929e-05  
   13     1.970e-05  
   14     9.733e-06  
   15     4.809e-06  
   16     2.014e-06  
   17     6.364e-07  Converged.
   ... Converged in 17 steps (norm: 6.36414e-07)
------------------------------------
  Starting TPA DIIS iterations ... 
------------------------------------ 
   It     Res. Norm  Remark
------------------------------------
                       Guess.
    1     1.149e+01  
    2     2.077e+01  
    3     2.986e+00  
    4     1.199e+00  
    5     3.450e-01  
    6     1.541e-01  
    7     4.512e-02  
    8     7.458e-03  
    9     3.086e-03  
   10     5.457e-04  
   11     1.860e-04  
   12     3.331e-05  
   13     1.167e-05  
   14     5.836e-06  
   15     1.996e-06  
   16     1.520e-06  
   17     3.795e-07  Converged.
   ... Converged in 17 steps (norm: 3.79469e-07)
------------------------------------
  Starting TPA DIIS iterations ... 
------------------------------------ 
   It     Res. Norm  Remark
------------------------------------
                       Guess.
    1     1.088e+01  
    2     1.968e+01  
    3     2.852e+00  
    4     1.196e+00  
    5     3.459e-01  
    6     1.591e-01  
    7     4.490e-02  
    8     7.908e-03  
    9     3.217e-03  
   10     5.546e-04  
   11     1.901e-04  
   12     3.344e-05  
   13     1.171e-05  
   14     5.951e-06  
   15     2.032e-06  
   16     1.630e-06  
   17     4.265e-07  Converged.
   ... Converged in 17 steps (norm: 4.26487e-07)
------------------------------------
  Starting TPA DIIS iterations ... 
------------------------------------ 
   It     Res. Norm  Remark
------------------------------------
                       Guess.
    1     8.616e-01  
    2     8.022e-01  
    3     3.780e-01  
    4     3.464e-01  
    5     5.672e-02  
    6     2.667e-02  
    7     6.532e-03  
    8     1.850e-03  
    9     7.627e-04  
   10     1.023e-04  
   11     5.619e-05  
   12     2.400e-05  
   13     2.457e-05  
   14     1.211e-05  
   15     6.183e-06  
   16     2.570e-06  
   17     8.724e-07  Converged.
   ... Converged in 17 steps (norm: 8.72442e-07)
------------------------------------
  Starting TPA DIIS iterations ... 
------------------------------------ 
   It     Res. Norm  Remark
------------------------------------
                       Guess.
    1     1.255e+01  
    2     2.332e+01  
    3     3.257e+00  
    4     1.370e+00  
    5     3.967e-01  
    6     1.787e-01  
    7     5.194e-02  
    8     8.562e-03  
    9     3.577e-03  
   10     6.317e-04  
   11     2.143e-04  
   12     3.937e-05  
   13     1.379e-05  
   14     7.407e-06  
   15     2.593e-06  
   16     2.053e-06  
   17     5.147e-07  Converged.
   ... Converged in 17 steps (norm: 5.14735e-07)
------------------------------------
  Starting TPA DIIS iterations ... 
------------------------------------ 
   It     Res. Norm  Remark
------------------------------------
                       Guess.
    1     1.189e+01  
    2     2.210e+01  
    3     3.110e+00  
    4     1.364e+00  
    5     3.977e-01  
    6     1.846e-01  
    7     5.170e-02  
    8     9.089e-03  
    9     3.727e-03  
   10     6.417e-04  
   11     2.187e-04  
   12     3.962e-05  
   13     1.383e-05  
   14     7.549e-06  
   15     2.668e-06  
   16     2.195e-06  
   17     5.814e-07  Converged.
   ... Converged in 17 steps (norm: 5.81408e-07)
------------------------------------
  Starting TPA DIIS iterations ... 
------------------------------------ 
   It     Res. Norm  Remark
------------------------------------
                       Guess.
    1     8.768e-01  
    2     8.389e-01  
    3     4.044e-01  
    4     3.904e-01  
    5     6.330e-02  
    6     2.976e-02  
    7     7.576e-03  
    8     1.902e-03  
    9     8.456e-04  
   10     1.204e-04  
   11     6.752e-05  
   12     3.005e-05  
   13     3.100e-05  
   14     1.507e-05  
   15     7.925e-06  
   16     3.260e-06  
   17     1.178e-06  
   18     5.538e-07  Converged.
   ... Converged in 18 steps (norm: 5.53825e-07)
------------------------------------
  Two-photon absorbption ...  CPU 68.08 s  wall 17.82 s
  Transition density matrix of state singlet_A_1 printed to ASCII file 'State_singlet_A_1_Transition.txt'
  Transition density matrix of state singlet_A_2 printed to ASCII file 'State_singlet_A_2_Transition.txt'
  Transition density matrix of state singlet_A_3 printed to ASCII file 'State_singlet_A_3_Transition.txt'
  Transition density matrix of state singlet_A_4 printed to ASCII file 'State_singlet_A_4_Transition.txt'
  Transition density matrix of state singlet_A_5 printed to ASCII file 'State_singlet_A_5_Transition.txt'
  Transition density matrix of state singlet_A_6 printed to ASCII file 'State_singlet_A_6_Transition.txt'
  Transition density matrix of state singlet_A_7 printed to ASCII file 'State_singlet_A_7_Transition.txt'
  Transition density matrix of state singlet_A_8 printed to ASCII file 'State_singlet_A_8_Transition.txt'
  Transition density matrix of state singlet_A_9 printed to ASCII file 'State_singlet_A_9_Transition.txt'
  Transition density matrix of state singlet_A_10 printed to ASCII file 'State_singlet_A_10_Transition.txt'
  Transition properties ...  CPU 0.16 s  wall 0.42 s
  Difference density matrix of state singlet_A_1 printed to ASCII file 'State_singlet_A_1_Difference.txt'
  Total density matrix of state singlet_A_1 printed to ASCII file 'State_singlet_A_1_Total.txt'
  Difference density matrix of state singlet_A_2 printed to ASCII file 'State_singlet_A_2_Difference.txt'
  Total density matrix of state singlet_A_2 printed to ASCII file 'State_singlet_A_2_Total.txt'
  Difference density matrix of state singlet_A_3 printed to ASCII file 'State_singlet_A_3_Difference.txt'
  Total density matrix of state singlet_A_3 printed to ASCII file 'State_singlet_A_3_Total.txt'
  Difference density matrix of state singlet_A_4 printed to ASCII file 'State_singlet_A_4_Difference.txt'
  Total density matrix of state singlet_A_4 printed to ASCII file 'State_singlet_A_4_Total.txt'
  Difference density matrix of state singlet_A_5 printed to ASCII file 'State_singlet_A_5_Difference.txt'
  Total density matrix of state singlet_A_5 printed to ASCII file 'State_singlet_A_5_Total.txt'
  Difference density matrix of state singlet_A_6 printed to ASCII file 'State_singlet_A_6_Difference.txt'
  Total density matrix of state singlet_A_6 printed to ASCII file 'State_singlet_A_6_Total.txt'
  Difference density matrix of state singlet_A_7 printed to ASCII file 'State_singlet_A_7_Difference.txt'
  Total density matrix of state singlet_A_7 printed to ASCII file 'State_singlet_A_7_Total.txt'
  Difference density matrix of state singlet_A_8 printed to ASCII file 'State_singlet_A_8_Difference.txt'
  Total density matrix of state singlet_A_8 printed to ASCII file 'State_singlet_A_8_Total.txt'
  Difference density matrix of state singlet_A_9 printed to ASCII file 'State_singlet_A_9_Difference.txt'
  Total density matrix of state singlet_A_9 printed to ASCII file 'State_singlet_A_9_Total.txt'
  Difference density matrix of state singlet_A_10 printed to ASCII file 'State_singlet_A_10_Difference.txt'
  Total density matrix of state singlet_A_10 printed to ASCII file 'State_singlet_A_10_Total.txt'
  Properties ...  CPU 0.30 s  wall 0.56 s
  ISR TDMS ...  CPU 9.01 s  wall 3.17 s
  ISR transition properties ...  CPU 0.18 s  wall 0.08 s
  Sum-over-states TPA ...  CPU 0.00 s  wall 0.00 s

--------------------------------------------------------------------------------
                   State-averaged natural transition orbitals
--------------------------------------------------------------------------------
--------------------------------------------------------------------------------
  SA-NTO decomposition ...  CPU 0.01 s  wall 0.02 s

--------------------------------------------------------------------------------
                             Excited State Summary
--------------------------------------------------------------------------------
--------------------------------------------------------------------------------

  Excited state 1 (singlet, A)                                     [converged]
  ----------------------------------------------------------------------------
  Term symbol:  2 (1) A                                     R^2 =  1.83729e-13

  Total energy:                                            -77.9983208046 a.u.
  Excitation energy:                                               8.736679 eV

  Osc. strength:                                                      0.445436
  Trans. dip. moment [a.u.]:           [   1.044428,   -0.995050,   -0.009383]
  <i|r^2|0> [a.u.]:                    [   6.151005,   -0.246225,   -0.000750]
  Two-photon absorption cross-section (SoS) [a.u.]:                   0.002825
  Two-photon absorption matrix (SoS) [a.u.]:
                                       |   -0.004714   -0.014172   -0.001911 |
                                       |   -0.014172   -0.001344   -0.001472 |
                                       |   -0.001911   -0.001472    0.015102 |
  Two-photon absorption cross-section [a.u.]:                         0.002102
  Two-photon absorption matrix [a.u.]:
                                       |   -0.002229   -0.010112    0.000309 |
                                       |   -0.010112   -0.003480    0.001447 |
                                       |    0.000309    0.001447    0.015779 |

  Dip. moment [a.u.]:                  [  -0.001996,    0.000238,    0.000307]
  Total dipole [Debye]:                                               0.005169
  <r^2> [a.u.]:                        [ 175.895795,   35.645408,   11.859096]
  Total <r^2> [a.u.]:                                               223.400299

  V1^2 = 0.9715, V2^2 = 0.0285

  Important amplitudes:
      occ i     occ j     vir a      vir b          v   
    -----------------------------------------------------
     8 (A) A              9 (A) A                -0.6811
     6 (A) A             14 (A) A                 0.0624
     4 (A) A             10 (A) A                -0.0604
     7 (A) A             16 (A) A                 0.0569
     5 (A) A             13 (A) A                -0.0511
     6 (A) A             23 (A) A                 0.0485
     8 (A) A             20 (A) A                 0.0350
     6 (A) A             19 (A) A                 0.0310
     3 (A) A             12 (A) A                 0.0281
     5 (A) A             22 (A) A                -0.0214
     7 (A) A             11 (A) A                -0.0212
     4 (A) A             24 (A) A                -0.0187
     3 (A) A             26 (A) A                 0.0185
     8 (A) A   8 (A) B   17 (A) A   20 (A) B     -0.0184
     8 (A) A   8 (A) B    9 (A) A   28 (A) B      0.0168
     6 (A) A             26 (A) A                -0.0163
     7 (A) A             21 (A) A                 0.0147
     3 (A) A             14 (A) A                -0.0139
     6 (A) A             12 (A) A                 0.0130
     3 (A) A   4 (A) B    9 (A) A    9 (A) B      0.0129
     3 (A) A             19 (A) A                -0.0119
     8 (A) A   8 (A) B   18 (A) A   19 (A) B      0.0113
     7 (A) A             32 (A) A                 0.0095
     7 (A) A             36 (A) A                -0.0086
     3 (A) A             23 (A) A                -0.0080
     8 (A) A   8 (A) B   25 (A) A   29 (A) B      0.0076
     6 (A) A             35 (A) A                 0.0073
     6 (A) A             40 (A) A                -0.0068
     3 (A) A   6 (A) B    9 (A) A   28 (A) B     -0.0065
     6 (A) A   8 (A) A   19 (A) A   28 (A) A      0.0061
     5 (A) A   7 (A) B    9 (A) A    9 (A) B     -0.0060
     5 (A) A   8 (A) B   11 (A) A   20 (A) B      0.0059
     7 (A) A   8 (A) B   13 (A) A   20 (A) B      0.0059
     5 (A) A   8 (A) B   16 (A) A    9 (A) B      0.0059
     5 (A) A   8 (A) B   11 (A) A    9 (A) B      0.0058
     3 (A) A   5 (A) B    9 (A) A   25 (A) B      0.0058
     3 (A) A             40 (A) A                 0.0057
     7 (A) A   8 (A) B   22 (A) A   20 (A) B      0.0057
     6 (A) A   8 (A) A    9 (A) A   18 (A) A     -0.0057
     8 (A) A   8 (A) B   19 (A) A   30 (A) B      0.0056
    -----------------------------------------------------

  Density matrix analysis:
  ------------------------
  NOs
    Occupation of frontier NOs:
       0.9496   1.0216
    Number of electrons: 16.000000
    Number of unpaired electrons: n_u =  2.31281, n_u,nl =  2.03253
    NO participation ratio (PR_NO):  2.862119
  
  
  Mulliken Population Analysis
  Atom      Charge (e)              h+              e-           Del q
  --------------------------------------------------------------------
   1 H        0.058470        0.020235       -0.012527        0.007708
   2 C       -0.117566        0.490909       -0.506179       -0.015270
   3 H        0.057964        0.020179       -0.012609        0.007570
   4 C       -0.111965        0.490725       -0.506080       -0.015355
   5 H        0.057549        0.020250       -0.012561        0.007689
   6 H        0.055548        0.020223       -0.012565        0.007658
  --------------------------------------------------------------------
  Sum:        0.000000        1.062521       -1.062521       -0.000000
  
  Multipole moment analysis of the density matrix
    Molecular charge:                      -0.000000
    Number of electrons:                   16.000000
      Center of electronic charge [Ang]: [ -1.559885,  -0.065610,   0.001968]
    Total nuclear charge:                  16.000000
      Center of nuclear charge [Ang]:    [ -1.559951,  -0.065602,   0.001978]
    Dipole moment [D]:                     0.005169
      Cartesian components [D]:          [ -0.005074,   0.000604,   0.000781]
    RMS size of the density [Ang]:         1.213406
      Cartesian components [Ang]:        [  0.803273,   0.787117,   0.455578]
  
  Exciton analysis of the difference density matrix
    <r_h> [Ang]:                  [ -1.559987,  -0.065808,   0.001783]
    <r_e> [Ang]:                  [ -1.560078,  -0.065746,   0.001749]
    |<r_e - r_h>| [Ang]:            0.000115
    Hole size [Ang]:                1.285161
      Cartesian components [Ang]: [  0.727862,   0.712690,   0.783536]
    Electron size [Ang]:            1.463052
      Cartesian components [Ang]: [  0.853733,   0.830524,   0.849642]

  Transition density matrix analysis:
  -----------------------------------
  
  CT numbers (Mulliken)
    omega =     0.9536
    <Phe> =    -0.1608
  
  Exciton analysis of the transition density matrix
    Trans. dipole moment [D]:             1.833339
      Cartesian components [D]:         [  1.327336,  -1.264583,  -0.011924]
    <r_h> [Ang]:                        [ -1.560116,  -0.065855,   0.001807]
    <r_e> [Ang]:                        [ -1.560040,  -0.065736,   0.001729]
    |<r_e - r_h>| [Ang]:                  0.000162
    Hole size [Ang]:                      1.214148
      Cartesian components [Ang]:       [  0.649466,   0.636488,   0.804506]
    Electron size [Ang]:                  1.485888
      Cartesian components [Ang]:       [  0.864183,   0.839408,   0.869738]
    RMS electron-hole separation [Ang]:   1.936712
      Cartesian components [Ang]:       [  1.106708,   1.075159,   1.170506]
    Covariance(r_h, r_e) [Ang^2]:        -0.034418
    Correlation coefficient:             -0.019078
    Center-of-mass size [Ang]:            0.950418
      Cartesian components [Ang]:       [  0.527360,   0.515626,   0.599430]

  Decomposition into state-averaged NTOs
    H- 0 -> L+ 0:  0.6699 ( 89.8%)
    H- 2 -> L+ 5:  0.0837 (  1.4%)
                   omega =  95.4%
  ----------------------------------------------------------------------------


  Excited state 2 (singlet, A)                                     [converged]
  ----------------------------------------------------------------------------
  Term symbol:  3 (1) A                                     R^2 =  3.63940e-13

  Total energy:                                            -77.9861080504 a.u.
  Excitation energy:                                               9.069005 eV

  Osc. strength:                                                      0.000032
  Trans. dip. moment [a.u.]:           [  -0.005222,    0.004241,    0.010016]
  <i|r^2|0> [a.u.]:                    [   0.032509,    0.088521,   -0.150805]
  Two-photon absorption cross-section (SoS) [a.u.]:                   4.936634
  Two-photon absorption matrix (SoS) [a.u.]:
                                       |    0.049791    0.058741   -0.519740 |
                                       |    0.058741    0.068760   -0.576917 |
                                       |   -0.519740   -0.576917   -0.118847 |
  Two-photon absorption cross-section [a.u.]:                         0.072181
  Two-photon absorption matrix [a.u.]:
                                       |   -0.002381   -0.006324    0.039814 |
                                       |   -0.006324   -0.011705    0.085028 |
                                       |    0.039814    0.085028    0.013879 |

  Dip. moment [a.u.]:                  [  -0.007065,   -0.014107,   -0.000431]
  Total dipole [Debye]:                                               0.040117
  <r^2> [a.u.]:                        [ 174.312192,   33.947646,   13.164723]
  Total <r^2> [a.u.]:                                               221.424561

  V1^2 = 0.9542, V2^2 = 0.0458

  Important amplitudes:
      occ i     occ j     vir a      vir b          v   
    -----------------------------------------------------
     7 (A) A              9 (A) A                 0.6692
     8 (A) A             11 (A) A                 0.1474
     7 (A) A             20 (A) A                -0.0759
     5 (A) A   8 (A) B    9 (A) A    9 (A) B      0.0317
     8 (A) A             16 (A) A                 0.0272
     8 (A) A             10 (A) A                -0.0178
     8 (A) A             21 (A) A                -0.0175
     5 (A) A             28 (A) A                 0.0151
     4 (A) A   7 (A) B    9 (A) A   19 (A) B     -0.0135
     5 (A) A   7 (A) B    9 (A) A   16 (A) B      0.0134
     7 (A) A   8 (A) B   20 (A) A   17 (A) B      0.0105
     7 (A) A   8 (A) A    9 (A) A   28 (A) A      0.0098
     5 (A) A   8 (A) B    9 (A) A   20 (A) B     -0.0096
     4 (A) A   6 (A) B    9 (A) A   16 (A) B     -0.0091
     5 (A) A   6 (A) A    9 (A) A   23 (A) A      0.0091
     5 (A) A   6 (A) A    9 (A) A   14 (A) A      0.0089
     5 (A) A   6 (A) B    9 (A) A   19 (A) B      0.0087
     8 (A) A   7 (A) B    9 (A) A   28 (A) B     -0.0085
     4 (A) A   5 (A) A    9 (A) A   10 (A) A      0.0084
     6 (A) A   7 (A) B    9 (A) A   18 (A) B      0.0083
     5 (A) A   6 (A) B    9 (A) A   23 (A) B      0.0080
     3 (A) A   7 (A) B    9 (A) A   18 (A) B      0.0080
     5 (A) A   7 (A) A    9 (A) A   16 (A) A      0.0079
     4 (A) A   8 (A) B    9 (A) A   25 (A) B      0.0077
     7 (A) A   8 (A) B   17 (A) A   20 (A) B      0.0074
     4 (A) A   7 (A) B   19 (A) A    9 (A) B     -0.0074
     5 (A) A   5 (A) B    9 (A) A   13 (A) B     -0.0072
     7 (A) A   8 (A) B   19 (A) A   18 (A) B     -0.0072
     5 (A) A   8 (A) A    9 (A) A   20 (A) A     -0.0069
     4 (A) A   5 (A) B    9 (A) A   18 (A) B     -0.0067
     7 (A) A   7 (A) B   20 (A) A   22 (A) B     -0.0065
     7 (A) A   8 (A) B   17 (A) A    9 (A) B     -0.0065
     5 (A) A   6 (A) B    9 (A) A   14 (A) B      0.0063
     4 (A) A   7 (A) A    9 (A) A   19 (A) A     -0.0061
     4 (A) A   5 (A) B   10 (A) A    9 (A) B     -0.0061
     5 (A) A   7 (A) B   11 (A) A   20 (A) B     -0.0060
     4 (A) A   7 (A) B    9 (A) A   14 (A) B      0.0060
     6 (A) A   7 (A) A   19 (A) A   28 (A) A     -0.0057
     4 (A) A   8 (A) A    9 (A) A   25 (A) A      0.0057
     5 (A) A   7 (A) A   11 (A) A   20 (A) A     -0.0052
    -----------------------------------------------------

  Density matrix analysis:
  ------------------------
  NOs
    Occupation of frontier NOs:
       0.9580   1.0538
    Number of electrons: 16.000000
    Number of unpaired electrons: n_u =  2.35479, n_u,nl =  2.06266
    NO participation ratio (PR_NO):  3.026416
  
  
  Mulliken Population Analysis
  Atom      Charge (e)              h+              e-           Del q
  --------------------------------------------------------------------
   1 H        0.146636        0.122870       -0.026996        0.095874
   2 C       -0.302911        0.272831       -0.473446       -0.200615
   3 H        0.156768        0.128293       -0.021920        0.106374
   4 C       -0.298067        0.271035       -0.472492       -0.201457
   5 H        0.150967        0.129106       -0.027999        0.101107
   6 H        0.146607        0.119570       -0.020853        0.098717
  --------------------------------------------------------------------
  Sum:        0.000000        1.043706       -1.043706       -0.000000
  
  Multipole moment analysis of the density matrix
    Molecular charge:                      0.000000
    Number of electrons:                   16.000000
      Center of electronic charge [Ang]: [ -1.559718,  -0.065136,   0.001992]
    Total nuclear charge:                  16.000000
      Center of nuclear charge [Ang]:    [ -1.559951,  -0.065602,   0.001978]
    Dipole moment [D]:                     0.040117
      Cartesian components [D]:          [ -0.017957,  -0.035857,  -0.001097]
    RMS size of the density [Ang]:         1.199316
      Cartesian components [Ang]:        [  0.786165,   0.768051,   0.480002]
  
  Exciton analysis of the difference density matrix
    <r_h> [Ang]:                  [ -1.554014,  -0.065060,   0.002344]
    <r_e> [Ang]:                  [ -1.551537,  -0.057724,   0.002683]
    |<r_e - r_h>| [Ang]:            0.007750
    Hole size [Ang]:                1.484823
      Cartesian components [Ang]: [  0.993645,   1.005426,   0.454411]
    Electron size [Ang]:            1.476880
      Cartesian components [Ang]: [  0.879257,   0.861036,   0.816516]

  Transition density matrix analysis:
  -----------------------------------
  
  CT numbers (Mulliken)
    omega =     0.9218
    <Phe> =    -0.0123
  
  Exciton analysis of the transition density matrix
    Trans. dipole moment [D]:             0.015334
      Cartesian components [D]:         [ -0.006637,   0.005390,   0.012729]
    <r_h> [Ang]:                        [ -1.553735,  -0.065456,   0.002377]
    <r_e> [Ang]:                        [ -1.551360,  -0.056861,   0.002692]
    |<r_e - r_h>| [Ang]:                  0.008922
    Hole size [Ang]:                      1.513017
      Cartesian components [Ang]:       [  1.015624,   1.029988,   0.443680]
    Electron size [Ang]:                  1.474236
      Cartesian components [Ang]:       [  0.870184,   0.850571,   0.832274]
    RMS electron-hole separation [Ang]:   2.092721
      Cartesian components [Ang]:       [  1.321635,   1.320844,   0.942408]
    Covariance(r_h, r_e) [Ang^2]:         0.041595
    Correlation coefficient:              0.018648
    Center-of-mass size [Ang]:            1.066042
      Cartesian components [Ang]:       [  0.676519,   0.675303,   0.471946]

  Decomposition into state-averaged NTOs
    H- 1 -> L+ 0: -0.6616 ( 87.5%)
    H- 0 -> L+ 2: -0.1478 (  4.4%)
                   omega =  92.2%
  ----------------------------------------------------------------------------


  Excited state 3 (singlet, A)                                     [converged]
  ----------------------------------------------------------------------------
  Term symbol:  4 (1) A                                     R^2 =  1.09936e-13

  Total energy:                                            -77.9821141356 a.u.
  Excitation energy:                                               9.177685 eV

  Osc. strength:                                                      0.025507
  Trans. dip. moment [a.u.]:           [  -0.015530,   -0.020376,    0.335836]
  <i|r^2|0> [a.u.]:                    [  -0.095229,   -0.004631,    0.001141]
  Two-photon absorption cross-section (SoS) [a.u.]:                   0.003713
  Two-photon absorption matrix (SoS) [a.u.]:
                                       |   -0.017891   -0.001607    0.003095 |
                                       |   -0.001607    0.015893    0.012742 |
                                       |    0.003095    0.012742   -0.001195 |
  Two-photon absorption cross-section [a.u.]:                         0.001561
  Two-photon absorption matrix [a.u.]:
                                       |   -0.014028   -0.000110    0.001448 |
                                       |   -0.000110    0.012015   -0.003939 |
                                       |    0.001448   -0.003939   -0.002204 |

  Dip. moment [a.u.]:                  [  -0.046782,    0.014438,   -0.001800]
  Total dipole [Debye]:                                               0.124527
  <r^2> [a.u.]:                        [ 180.347527,   40.616845,   11.026080]
  Total <r^2> [a.u.]:                                               231.990452

  V1^2 = 0.9588, V2^2 = 0.0412

  Important amplitudes:
      occ i     occ j     vir a      vir b          v   
    -----------------------------------------------------
     8 (A) A             10 (A) A                -0.6889
     8 (A) A             24 (A) A                -0.0506
     8 (A) A             18 (A) A                 0.0309
     4 (A) A              9 (A) A                -0.0236
     8 (A) A   8 (A) B    9 (A) A   12 (A) B      0.0219
     7 (A) A              9 (A) A                -0.0182
     8 (A) A   8 (A) B   10 (A) A   17 (A) B     -0.0173
     8 (A) A             15 (A) A                -0.0171
     5 (A) A   8 (A) B   11 (A) A   10 (A) B      0.0165
     7 (A) A   8 (A) B   13 (A) A   10 (A) B      0.0141
     4 (A) A   8 (A) B   12 (A) A   10 (A) B      0.0111
     6 (A) A   8 (A) A   10 (A) A   15 (A) A     -0.0110
     7 (A) A   8 (A) B   22 (A) A   10 (A) B      0.0108
     6 (A) A   8 (A) B   15 (A) A   10 (A) B      0.0108
     4 (A) A   8 (A) A   10 (A) A   12 (A) A     -0.0106
     7 (A) A   8 (A) A   10 (A) A   22 (A) A     -0.0099
     7 (A) A   8 (A) A   10 (A) A   13 (A) A     -0.0097
     5 (A) A   8 (A) B   21 (A) A   10 (A) B     -0.0094
     5 (A) A   8 (A) A   10 (A) A   11 (A) A     -0.0094
     6 (A) A   8 (A) A   10 (A) A   18 (A) A     -0.0088
     6 (A) A   8 (A) B   10 (A) A   10 (A) B     -0.0086
     7 (A) A   8 (A) A   12 (A) A   16 (A) A     -0.0081
     5 (A) A   8 (A) A   10 (A) A   21 (A) A      0.0080
     3 (A) A   4 (A) B   10 (A) A    9 (A) B      0.0079
     4 (A) A   8 (A) B   19 (A) A   10 (A) B     -0.0075
     8 (A) A   8 (A) B    9 (A) A   23 (A) B      0.0075
     8 (A) A   8 (A) B   10 (A) A   28 (A) B      0.0073
     3 (A) A   8 (A) B   10 (A) A   10 (A) B     -0.0072
     5 (A) A   8 (A) B   10 (A) A   11 (A) B      0.0071
     3 (A) A   8 (A) A   10 (A) A   24 (A) A      0.0071
     7 (A) A   8 (A) B   16 (A) A   12 (A) B      0.0070
     3 (A) A   8 (A) B   10 (A) A   18 (A) B      0.0069
     8 (A) A   8 (A) B    9 (A) A   19 (A) B     -0.0067
     6 (A) A   8 (A) B   18 (A) A   10 (A) B      0.0067
     3 (A) A   6 (A) B   10 (A) A   28 (A) B     -0.0062
     7 (A) A   8 (A) B   12 (A) A   11 (A) B      0.0057
     6 (A) A             28 (A) A                 0.0057
     3 (A) A   5 (A) B   10 (A) A   25 (A) B      0.0056
     3 (A) A   8 (A) A   10 (A) A   18 (A) A      0.0056
     5 (A) A   8 (A) A   10 (A) A   16 (A) A     -0.0056
    -----------------------------------------------------

  Density matrix analysis:
  ------------------------
  NOs
    Occupation of frontier NOs:
       0.9821   0.9844
    Number of electrons: 16.000000
    Number of unpaired electrons: n_u =  2.28603, n_u,nl =  2.02459
    NO participation ratio (PR_NO):  2.693420
  
  
  Mulliken Population Analysis
  Atom      Charge (e)              h+              e-           Del q
  --------------------------------------------------------------------
   1 H       -0.170525        0.053412       -0.274699       -0.221287
   2 C        0.329298        0.540407       -0.108812        0.431594
   3 H       -0.167378        0.054119       -0.271890       -0.217771
   4 C        0.331324        0.534802       -0.106867        0.427935
   5 H       -0.162899        0.053833       -0.266592       -0.212759
   6 H       -0.159822        0.054002       -0.261714       -0.207712
  --------------------------------------------------------------------
  Sum:        0.000000        1.290575       -1.290575       -0.000000
  
  Multipole moment analysis of the density matrix
    Molecular charge:                      0.000000
    Number of electrons:                   16.000000
      Center of electronic charge [Ang]: [ -1.558404,  -0.066080,   0.002038]
    Total nuclear charge:                  16.000000
      Center of nuclear charge [Ang]:    [ -1.559951,  -0.065602,   0.001978]
    Dipole moment [D]:                     0.124527
      Cartesian components [D]:          [ -0.118909,   0.036697,  -0.004575]
    RMS size of the density [Ang]:         1.275638
      Cartesian components [Ang]:        [  0.853100,   0.840536,   0.439286]
  
  Exciton analysis of the difference density matrix
    <r_h> [Ang]:                  [ -1.558069,  -0.067840,   0.001835]
    <r_e> [Ang]:                  [ -1.539780,  -0.073611,   0.002670]
    |<r_e - r_h>| [Ang]:            0.019196
    Hole size [Ang]:                1.410067
      Cartesian components [Ang]: [  0.833108,   0.820321,   0.788222]
    Electron size [Ang]:            2.076231
      Cartesian components [Ang]: [  1.371420,   1.378591,   0.727617]

  Transition density matrix analysis:
  -----------------------------------
  
  CT numbers (Mulliken)
    omega =     0.9261
    <Phe> =    -0.0109
  
  Exciton analysis of the transition density matrix
    Trans. dipole moment [D]:             0.428045
      Cartesian components [D]:         [ -0.019736,  -0.025895,   0.426805]
    <r_h> [Ang]:                        [ -1.560661,  -0.067092,   0.001668]
    <r_e> [Ang]:                        [ -1.533202,  -0.076442,   0.002896]
    |<r_e - r_h>| [Ang]:                  0.029033
    Hole size [Ang]:                      1.213244
      Cartesian components [Ang]:       [  0.636785,   0.623992,   0.822861]
    Electron size [Ang]:                  2.295693
      Cartesian components [Ang]:       [  1.514931,   1.525823,   0.804396]
    RMS electron-hole separation [Ang]:   2.586849
      Cartesian components [Ang]:       [  1.636075,   1.641551,   1.149067]
    Covariance(r_h, r_e) [Ang^2]:         0.025612
    Correlation coefficient:              0.009196
    Center-of-mass size [Ang]:            1.303207
      Cartesian components [Ang]:       [  0.825384,   0.827708,   0.576184]

  Decomposition into state-averaged NTOs
    H- 0 -> L+ 1:  0.6791 ( 92.2%)
                   omega =  92.6%
  ----------------------------------------------------------------------------


  Excited state 4 (singlet, A)                                     [converged]
  ----------------------------------------------------------------------------
  Term symbol:  5 (1) A                                     R^2 =  6.65982e-13

  Total energy:                                            -77.9574330915 a.u.
  Excitation energy:                                               9.849290 eV

  Osc. strength:                                                      0.000015
  Trans. dip. moment [a.u.]:           [   0.002240,   -0.001448,   -0.007279]
  <i|r^2|0> [a.u.]:                    [   0.029491,    0.020769,   -0.037406]
  Two-photon absorption cross-section (SoS) [a.u.]:                 152.183985
  Two-photon absorption matrix (SoS) [a.u.]:
                                       |    0.283627    0.326744   -2.945231 |
                                       |    0.326744    0.374250   -3.148803 |
                                       |   -2.945231   -3.148803   -0.658229 |
  Two-photon absorption cross-section [a.u.]:                        93.984890
  Two-photon absorption matrix [a.u.]:
                                       |    0.222253    0.256478   -2.294618 |
                                       |    0.256478    0.295034   -2.492970 |
                                       |   -2.294618   -2.492970   -0.517573 |

  Dip. moment [a.u.]:                  [   0.018318,    0.048329,    0.003251]
  Total dipole [Debye]:                                               0.131627
  <r^2> [a.u.]:                        [ 180.792253,   40.972618,   10.760645]
  Total <r^2> [a.u.]:                                               232.525516

  V1^2 = 0.9636, V2^2 = 0.0364

  Important amplitudes:
      occ i     occ j     vir a      vir b          v   
    -----------------------------------------------------
     8 (A) A             11 (A) A                 0.6701
     7 (A) A              9 (A) A                -0.1493
     8 (A) A             21 (A) A                -0.0781
     8 (A) A             16 (A) A                 0.0641
     8 (A) A   8 (A) B    9 (A) A   13 (A) B     -0.0167
     5 (A) A   8 (A) B   11 (A) A   11 (A) B     -0.0155
     8 (A) A   8 (A) B   11 (A) A   17 (A) B      0.0140
     7 (A) A             20 (A) A                 0.0136
     7 (A) A   8 (A) B   13 (A) A   11 (A) B     -0.0128
     5 (A) A   8 (A) A   11 (A) A   21 (A) A     -0.0110
     4 (A) A   8 (A) B   12 (A) A   11 (A) B     -0.0110
     8 (A) A   8 (A) B    9 (A) A   22 (A) B     -0.0107
     7 (A) A   8 (A) A   11 (A) A   22 (A) A      0.0097
     6 (A) A   8 (A) B   15 (A) A   11 (A) B     -0.0090
     6 (A) A   8 (A) B   10 (A) A   11 (A) B      0.0089
     7 (A) A   8 (A) B   22 (A) A   11 (A) B     -0.0089
     3 (A) A   4 (A) B   11 (A) A    9 (A) B     -0.0083
     3 (A) A   8 (A) B   11 (A) A   18 (A) B     -0.0081
     6 (A) A   8 (A) A   11 (A) A   15 (A) A      0.0081
     7 (A) A   8 (A) A   13 (A) A   16 (A) A      0.0078
     7 (A) A   8 (A) A   11 (A) A   13 (A) A      0.0077
     5 (A) A   8 (A) B   21 (A) A   11 (A) B      0.0071
     4 (A) A   8 (A) B   19 (A) A   11 (A) B      0.0070
     5 (A) A   8 (A) B    9 (A) A    9 (A) B     -0.0067
     4 (A) A   8 (A) A   11 (A) A   12 (A) A      0.0063
     6 (A) A   8 (A) A   11 (A) A   18 (A) A      0.0062
     3 (A) A   6 (A) B   11 (A) A   28 (A) B      0.0061
     6 (A) A   8 (A) B   18 (A) A   11 (A) B     -0.0060
     7 (A) A   8 (A) B   16 (A) A   13 (A) B     -0.0057
     3 (A) A   8 (A) A   11 (A) A   18 (A) A     -0.0056
     5 (A) A   8 (A) B   10 (A) A   10 (A) B     -0.0056
     3 (A) A   8 (A) B   11 (A) A   30 (A) B     -0.0055
     3 (A) A   5 (A) B   11 (A) A   25 (A) B     -0.0055
     6 (A) A   8 (A) B   11 (A) A   10 (A) B      0.0054
     7 (A) A   8 (A) B   12 (A) A   10 (A) B     -0.0054
     8 (A) A   8 (A) B   20 (A) A   22 (A) B      0.0053
     3 (A) A   8 (A) A   11 (A) A   24 (A) A     -0.0053
     8 (A) A             12 (A) A                 0.0050
     5 (A) A   8 (A) A   11 (A) A   16 (A) A      0.0048
     6 (A) A   8 (A) A   10 (A) A   16 (A) A     -0.0047
    -----------------------------------------------------

  Density matrix analysis:
  ------------------------
  NOs
    Occupation of frontier NOs:
       0.9414   1.0271
    Number of electrons: 16.000000
    Number of unpaired electrons: n_u =  2.31855, n_u,nl =  2.04853
    NO participation ratio (PR_NO):  2.909222
  
  
  Mulliken Population Analysis
  Atom      Charge (e)              h+              e-           Del q
  --------------------------------------------------------------------
   1 H       -0.125576        0.046173       -0.222511       -0.176338
   2 C        0.275929        0.498530       -0.120306        0.378224
   3 H       -0.154740        0.046608       -0.251741       -0.205133
   4 C        0.280332        0.496331       -0.119388        0.376943
   5 H       -0.137843        0.046586       -0.234288       -0.187703
   6 H       -0.138103        0.046298       -0.232292       -0.185994
  --------------------------------------------------------------------
  Sum:        0.000000        1.180526       -1.180526       -0.000000
  
  Multipole moment analysis of the density matrix
    Molecular charge:                      0.000000
    Number of electrons:                   16.000000
      Center of electronic charge [Ang]: [ -1.560557,  -0.067201,   0.001871]
    Total nuclear charge:                  16.000000
      Center of nuclear charge [Ang]:    [ -1.559951,  -0.065602,   0.001978]
    Dipole moment [D]:                     0.131627
      Cartesian components [D]:          [  0.046561,   0.122839,   0.008264]
    RMS size of the density [Ang]:         1.276618
      Cartesian components [Ang]:        [  0.853726,   0.844143,   0.433967]
  
  Exciton analysis of the difference density matrix
    <r_h> [Ang]:                  [ -1.560037,  -0.067467,   0.001749]
    <r_e> [Ang]:                  [ -1.569226,  -0.088968,   0.000399]
    |<r_e - r_h>| [Ang]:            0.023421
    Hole size [Ang]:                1.394702
      Cartesian components [Ang]: [  0.817351,   0.807421,   0.790697]
    Electron size [Ang]:            2.125536
      Cartesian components [Ang]: [  1.407201,   1.440789,   0.679570]

  Transition density matrix analysis:
  -----------------------------------
  
  CT numbers (Mulliken)
    omega =     0.9299
    <Phe> =    -0.0134
  
  Exciton analysis of the transition density matrix
    Trans. dipole moment [D]:             0.009852
      Cartesian components [D]:         [  0.002847,  -0.001840,  -0.009250]
    <r_h> [Ang]:                        [ -1.559968,  -0.065826,   0.001787]
    <r_e> [Ang]:                        [ -1.570771,  -0.093522,   0.000107]
    |<r_e - r_h>| [Ang]:                  0.029776
    Hole size [Ang]:                      1.227722
      Cartesian components [Ang]:       [  0.659026,   0.648338,   0.807863]
    Electron size [Ang]:                  2.264435
      Cartesian components [Ang]:       [  1.497909,   1.536994,   0.722208]
    RMS electron-hole separation [Ang]:   2.565394
      Cartesian components [Ang]:       [  1.628208,   1.660413,   1.083150]
    Covariance(r_h, r_e) [Ang^2]:         0.027304
    Correlation coefficient:              0.009821
    Center-of-mass size [Ang]:            1.293211
      Cartesian components [Ang]:       [  0.822367,   0.838030,   0.542043]

  Decomposition into state-averaged NTOs
    H- 0 -> L+ 2: -0.6644 ( 88.3%)
    H- 1 -> L+ 0:  0.1473 (  4.3%)
                   omega =  93.0%
  ----------------------------------------------------------------------------


  Excited state 5 (singlet, A)                                     [converged]
  ----------------------------------------------------------------------------
  Term symbol:  6 (1) A                                     R^2 =  2.13192e-13

  Total energy:                                            -77.9438044420 a.u.
  Excitation energy:                                              10.220144 eV

  Osc. strength:                                                      0.000003
  Trans. dip. moment [a.u.]:           [  -0.000412,   -0.000439,    0.003246]
  <i|r^2|0> [a.u.]:                    [  -0.092130,    0.103200,   -0.013723]
  Two-photon absorption cross-section (SoS) [a.u.]:                 172.808113
  Two-photon absorption matrix (SoS) [a.u.]:
                                       |   -0.326468   -0.053550    3.416829 |
                                       |   -0.053550    0.371124   -3.130512 |
                                       |    3.416829   -3.130512   -0.048110 |
  Two-photon absorption cross-section [a.u.]:                        75.889007
  Two-photon absorption matrix [a.u.]:
                                       |   -0.217191   -0.035792    2.260586 |
                                       |   -0.035792    0.245260   -2.078558 |
[...]
    16   -1.486003934329e-03
    17   -1.788394056028e-03
    18    1.444725896505e-04
    19   -3.450395605831e-03
    20    1.015322431026e-02
    21    9.350037516242e-01
    22   -2.534629925941e-04
    23    1.402752634856e-02
    24    8.169885879561e-04
    25    6.949141010584e-02
    26   -5.127897237920e-02
    27   -1.396812225550e+00
    28    9.519711284928e-02
    29   -9.380573943099e-02
    30   -1.175461836178e-03
    31    3.782360703415e-01
    32   -3.639736088874e-01
    33   -4.156086996176e-03
    34    1.573128621713e-02
    35   -1.494948355284e-03
    36   -1.789145413460e-03
    37   -2.177380916741e-04
    38   -3.077657085531e-03
    39    9.486354149353e-03
    40    9.329893255593e-01
    41    1.892817804791e-04
    42   -1.395663972041e-02
    43   -8.334301048676e-04
    44    8.971342053651e-03
    45    9.309860105727e-01
    46    1.413959562944e-02
    47    3.732506499806e-04
    48    6.923779584880e-04
Sym=X
Ene= 0.233335
Spin=Alpha
Occup=0
     1   -2.442165299948e-02
     2   -1.169765465867e+00
     3    1.342499011385e-02
     4    3.298516397183e-03
     5    8.233759064610e-04
     6    2.430789891844e-03
     7   -1.781549169925e-03
     8   -4.960205639907e-02
     9    1.516119284858e-01
    10    1.626742900260e-01
    11    1.670762265310e-02
    12    5.423877476248e-01
    13    5.762466648375e-01
    14    5.933330379752e-02
    15    8.577902929595e-04
    16   -7.396655081403e-05
    17   -1.412551756398e-04
    18    6.614777617050e-04
    19   -4.038115256150e-04
    20    2.534912388818e-02
    21    1.231288335230e+00
    22    2.952621940115e-03
    23    1.472273620853e-02
    24    1.007267666210e-03
    25   -1.738118040762e-03
    26    1.452553242071e-03
    27    2.650505337861e-02
    28    1.497871989924e-01
    29    1.610167866020e-01
    30    1.686906058883e-02
    31    5.379622059444e-01
    32    5.669851113489e-01
    33    6.000668988714e-02
    34   -2.879461709472e-04
    35    8.137332982599e-06
    36    8.128966289148e-05
    37   -4.772045962967e-04
    38    7.801451879425e-05
    39   -2.638415717934e-02
    40   -1.213153785734e+00
    41    2.806506246567e-03
    42    1.438165172725e-02
    43    1.001057554864e-03
    44    2.390188009982e-02
    45    1.179757768087e+00
    46    1.383067487838e-02
    47    3.363762186562e-03
    48    8.647384122716e-04
Sym=X
Ene= 0.239824
Spin=Alpha
Occup=0
     1   -1.656422238004e-02
     2   -1.116930591758e+00
     3    1.736619992994e-02
     4    9.276993873562e-03
     5    1.379713035863e-03
     6   -8.593071017386e-02
     7    7.895645898679e-02
     8    1.585805169442e+00
     9    6.195649867687e-02
    10   -5.066960244122e-02
    11    2.346647253799e-05
    12    2.414142085944e-01
    13   -1.971201967118e-01
    14    1.724924996366e-04
    15   -2.246747213014e-02
    16    2.624334371191e-03
    17    2.930813355919e-03
    18   -1.257596263909e-04
    19    1.281223527970e-02
    20   -1.621515607534e-02
    21   -1.047060714411e+00
    22   -8.418082691397e-03
    23   -1.680674138080e-02
    24   -1.390705411809e-03
    25    8.680126408387e-02
    26   -7.932691521748e-02
    27   -1.618325518391e+00
    28    6.114269830300e-02
    29   -5.330269965632e-02
    30   -4.260138571491e-04
    31    2.423914259282e-01
    32   -2.115971279104e-01
    33   -1.715688385413e-03
    34    2.311056123956e-02
    35   -2.653601904286e-03
    36   -3.065792014549e-03
    37    5.415211375779e-04
    38   -1.293111041058e-02
    39    1.482694833187e-02
    40    1.072198160100e+00
    41   -8.598590479057e-03
    42   -1.732267725270e-02
    43   -1.453598600372e-03
    44    1.571792262813e-02
    45    1.131944614838e+00
    46    1.777665946057e-02
    47    9.508539621534e-03
    48    1.402114511080e-03
Sym=X
Ene= 0.303320
Spin=Alpha
Occup=0
     1   -2.012807819564e-02
     2    1.686919902166e+00
     3   -2.271220493823e-02
     4    3.016948824650e-04
     5   -1.061370770458e-03
     6   -3.131789099751e-04
     7   -1.474137531749e-04
     8    9.418853247361e-03
     9   -1.331695451186e-01
    10   -1.393129358286e-01
    11   -1.451750446063e-02
    12   -1.144958416319e+00
    13   -1.191229335853e+00
    14   -1.249362221482e-01
    15   -1.687790755665e-04
    16   -1.620336063943e-03
    17    1.842192178051e-03
    18   -3.224933316014e-02
    19   -1.529264569135e-03
    20    1.923947647450e-02
    21   -1.690384279029e+00
    22    1.377006899820e-03
    23   -2.287675814208e-02
    24   -1.281028672789e-03
    25    3.624597217304e-04
    26    2.765755187906e-04
    27   -3.236090002134e-02
    28    1.342593529165e-01
    29    1.403984123142e-01
    30    1.482941949881e-02
    31    1.143527319623e+00
    32    1.203867147344e+00
    33    1.262779633424e-01
    34    5.838324278354e-04
    35   -1.694628049494e-03
    36    1.813508187083e-03
    37   -3.256259383526e-02
    38   -2.076048034564e-03
    39    1.916358148620e-02
    40   -1.695384249985e+00
    41   -1.780715669924e-03
    42    2.270150050162e-02
    43    1.279088085376e-03
    44   -2.129075810721e-02
    45    1.723475454370e+00
    46    2.311112055676e-02
    47   -3.283499554508e-04
    48    1.079756797898e-03
Sym=X
Ene= 0.462107
Spin=Alpha
Occup=0
     1   -1.151378999847e-01
     2   -7.132153165236e-01
     3   -1.573639374570e-02
     4   -1.027046948043e-02
     5   -1.345565423472e-03
     6    6.077467289815e-02
     7    1.693838140923e-02
     8   -3.590630075448e+00
     9    1.037202154341e-01
    10   -9.956180680904e-02
    11   -9.759820526285e-04
    12    2.422317575969e+00
    13   -2.304177469713e+00
    14   -2.137461225050e-02
    15    5.360052230584e-02
    16   -3.361916249047e-03
    17   -4.614835912620e-03
    18   -9.063474687925e-04
    19    1.804046411873e-02
    20   -1.209066244983e-01
    21   -7.058636395053e-01
    22    8.656861196731e-03
    23    1.632721883180e-02
    24    1.373742267316e-03
    25   -6.064926260503e-02
    26   -1.633491604149e-02
    27    3.578728178899e+00
    28    1.048643828871e-01
    29   -9.975783131818e-02
    30   -1.092515368703e-03
    31    2.431992014297e+00
    32   -2.293694248126e+00
    33   -2.101509595599e-02
    34   -5.261491317773e-02
    35    3.292547415589e-03
    36    4.574996228844e-03
    37    2.527746989709e-04
    38   -1.858346939363e-02
    39    1.156533390406e-01
    40    7.038544120391e-01
    41    8.596349010960e-03
    42    1.641622573750e-02
    43    1.391804644451e-03
    44    1.100239608247e-01
    45    7.354589214455e-01
    46   -1.556836686900e-02
    47   -9.790407238795e-03
    48   -1.336957858559e-03
Sym=X
Ene= 0.577304
Spin=Alpha
Occup=0
     1    2.438161891597e-01
     2    4.519592951275e-02
     3   -1.880193297336e-02
     4    2.615495856269e-02
     5    6.558978890735e-04
     6   -4.590486529956e-03
     7   -1.563983263596e-01
     8   -4.563316568854e-01
     9    2.977547297534e-01
    10   -2.872150237069e-01
    11   -2.918732576659e-03
    12   -7.263865131808e-01
    13    7.017096579573e-01
    14    7.222433846835e-03
    15   -6.285956328413e-03
    16    3.860283874531e-03
    17    3.849035735155e-03
    18   -5.409545340986e-03
    19    6.019920393363e-02
    20    2.599958739814e-01
    21    2.801804438562e-02
    22   -2.614577537589e-02
    23    1.581638531889e-02
    24   -3.041627347809e-04
    25   -5.223673952660e-03
    26   -1.562088087141e-01
    27   -4.275915572575e-01
    28   -2.983287668574e-01
    29    2.839417898324e-01
    30    2.676646567410e-03
    31    7.664076298501e-01
    32   -7.181769924899e-01
    33   -6.465694876537e-03
    34   -5.961383665991e-03
    35    3.948415131433e-03
    36    3.684604785831e-03
    37   -3.076332576877e-03
    38    6.022436579023e-02
    39    2.470827926361e-01
    40    4.630699342644e-02
    41    2.744588610798e-02
    42   -1.714185966537e-02
    43    2.759648578786e-04
    44    2.553272055519e-01
    45    6.003671513804e-02
    46    1.682479155215e-02
    47   -2.466410712928e-02
    48   -6.798124296747e-04
Sym=X
Ene= 0.615841
Spin=Alpha
Occup=0
     1   -5.268467953654e-01
     2    1.994663795871e-01
     3   -6.159421259918e-02
     4    3.733318287923e-02
     5   -7.318537211672e-04
     6   -5.575961310101e-04
     7   -7.784176218602e-04
     8   -1.085444253657e-02
     9   -4.103822115897e-02
    10   -3.717632367258e-02
    11   -4.209148683433e-03
    12    3.106251494726e-01
    13    2.690499505812e-01
    14    3.034928014177e-02
    15    2.303480192892e-03
    16   -7.718888317717e-03
    17    8.190939762866e-03
    18   -1.484498561628e-01
    19   -7.521764122129e-03
    20    5.055038527604e-01
    21   -2.098520412048e-01
    22    4.235974247776e-02
    23   -5.875788055036e-02
    24   -1.478873139531e-03
    25    5.170837019110e-05
    26    1.987089243212e-03
    27    1.915769299617e-02
    28   -4.095663984527e-02
    29   -4.340189838340e-02
    30   -4.477563291593e-03
    31    3.137435091714e-01
    32    3.030634033221e-01
    33    3.335527141265e-02
    34    7.853811430335e-04
    35    7.209645682205e-03
    36   -8.743387846860e-03
    37    1.481250436830e-01
    38    5.254649203613e-03
    39   -5.227912227269e-01
    40    2.032238335710e-01
    41    4.034822594396e-02
    42   -5.895639682787e-02
    43   -1.604318373370e-03
    44    5.097550949318e-01
    45   -1.758252217603e-01
    46   -6.095870771220e-02
    47    3.813937020799e-02
    48   -5.907257755981e-04
Sym=X
Ene= 0.689248
Spin=Alpha
Occup=0
     1    2.131659413574e-04
     2    1.505272412885e-04
     3    1.036762158814e-03
     4    1.250455666267e-03
     5   -2.104541262393e-02
     6    1.718176647081e-05
     7    2.108806298464e-04
     8   -2.509173366155e-05
     9    3.162511182012e-02
    10    3.976119179020e-02
    11   -6.704975033173e-01
    12   -2.911119299892e-02
    13   -3.605270399792e-02
    14    6.134724226489e-01
    15   -1.330961732355e-03
    16    8.264989392371e-02
    17   -7.819682588289e-02
    18   -8.645547028665e-03
    19   -1.139975363835e-03
    20    2.982869354671e-04
    21   -1.850011212261e-04
    22    9.406983685047e-04
    23    1.170397617980e-03
    24   -2.094232854991e-02
    25    6.635962613847e-06
    26    3.045347065776e-04
    27   -2.752966231349e-04
    28    3.203254283119e-02
    29    3.999264718548e-02
    30   -6.698115688408e-01
    31   -2.968085144563e-02
    32   -3.646842143758e-02
    33    6.136238216126e-01
    34    1.156093892766e-03
    35   -8.301118474518e-02
    36    7.841952996694e-02
    37    8.549820020670e-03
    38    1.207647065233e-03
    39    1.259743324664e-04
    40   -4.504818595359e-04
    41    1.029231999437e-03
    42    1.341510224363e-03
    43   -2.096827383834e-02
    44    5.765448324157e-05
    45   -1.186105444416e-04
    46    1.021714862980e-03
    47    1.376485980039e-03
    48   -2.274584688474e-02
Sym=X
Ene= 0.709839
Spin=Alpha
Occup=0
     1   -4.758028064466e-01
     2    1.622273093120e-01
     3   -8.130333043694e-02
     4   -4.513716338920e-02
     5   -6.544985327975e-03
     6   -4.896885533569e-02
     7   -3.189053690744e-01
     8    5.173170282045e-01
     9    2.029985466966e-01
    10   -1.920781393954e-01
    11   -2.073553498731e-03
    12   -1.055448622617e-01
    13    8.758614616249e-02
    14    3.608644772767e-04
    15    1.969578435681e-01
    16   -2.065746751786e-02
    17   -2.431881196296e-02
    18    4.692822914422e-03
    19   -7.754334933220e-02
    20   -4.902273882803e-01
    21    1.613473424933e-01
    22    4.053878467816e-02
    23    8.397452398485e-02
    24    6.873358385816e-03
    25   -4.598741611119e-02
    26   -3.282498625295e-01
    27    4.679162404681e-01
    28   -2.017021604076e-01
    29    1.969923245604e-01
    30    1.836996996974e-03
    31    4.372113385670e-02
    32   -6.209536989215e-02
    33   -1.074393515380e-03
    34    1.916620405176e-01
    35   -2.032562995326e-02
    36   -2.367026582560e-02
    37    2.212471381405e-03
    38   -7.536750074881e-02
    39   -4.618226372463e-01
    40    1.370424084500e-01
    41   -4.092037316420e-02
    42   -8.012019718996e-02
    43   -6.737401168336e-03
    44   -4.662389118491e-01
    45    1.146577866651e-01
    46    7.954095399063e-02
    47    4.370583013209e-02
    48    6.400022730015e-03
Sym=X
Ene= 0.785973
Spin=Alpha
Occup=0
     1    5.256926258174e-01
     2   -4.657859418147e-01
     3    1.098166131412e-01
     4    2.436613653591e-02
     5    6.645884962558e-03
     6    9.042766015149e-02
     7   -2.235652284889e-01
     8   -6.311939934208e-01
     9    1.151484228561e-01
    10   -1.091087961180e-01
    11   -3.911661202977e-04
    12    3.123105736723e-01
    13   -2.910480743624e-01
    14   -3.578043705498e-03
    15   -2.036529163089e-01
    16    1.721522307373e-02
    17    2.134899713523e-02
    18   -9.458880238546e-04
    19    7.767254599517e-03
    20    5.253428160935e-01
    21   -4.664302416699e-01
    22   -2.067048095647e-02
    23   -1.110401011040e-01
    24   -7.530763069234e-03
    25   -9.256320266136e-02
    26    2.004798209916e-01
    27    6.801562554891e-01
    28    1.208953565685e-01
    29   -9.490185074112e-02
    30   -4.333179051741e-04
    31    2.790886291730e-01
    32   -3.110734365478e-01
    33   -4.109255104884e-03
    34    2.117109933881e-01
    35   -1.790600770759e-02
    36   -2.287548238973e-02
    37    4.266168009388e-03
    38   -9.400572583659e-03
    39   -5.472197968149e-01
    40    4.859654423644e-01
    41   -2.146394238507e-02
    42   -1.164789269486e-01
    43   -8.005822250106e-03
    44   -5.339391571363e-01
    45    4.288754353489e-01
    46    1.098939448263e-01
    47    2.649972901106e-02
    48    6.820323478334e-03
Sym=X
Ene= 0.808030
Spin=Alpha
Occup=0
     1    3.799428442799e-04
     2   -8.655641307426e-04
     3    1.758080978280e-03
     4    2.032330112540e-03
     5   -3.378370027325e-02
     6    7.309462773987e-05
     7   -2.356457144323e-04
     8   -9.303494355526e-05
     9    3.618093840566e-02
    10    4.484666486557e-02
    11   -7.629053564070e-01
    12   -5.298452291605e-02
    13   -6.659503419169e-02
    14    1.127111681323e+00
    15    7.771593440938e-04
    16   -6.523528431393e-02
    17    6.168592287235e-02
    18    6.892748843145e-03
    19    8.976649816640e-04
    20    3.549074061052e-04
    21    4.043246443775e-05
    22    1.680963585275e-03
    23    1.986109350877e-03
    24   -3.445369210679e-02
    25   -6.769753852216e-05
    26    5.816911123267e-05
    27    2.152003805507e-04
    28   -3.633110530545e-02
    29   -4.587943229819e-02
    30    7.628914781885e-01
    31    5.418992107994e-02
    32    6.745150454342e-02
    33   -1.127577599304e+00
    34    1.211828123624e-03
    35   -6.516492906966e-02
    36    6.174144296674e-02
    37    6.651657294209e-03
    38    9.589168466656e-04
    39   -3.737696476758e-04
    40    1.761869549076e-05
    41   -1.563218425834e-03
    42   -2.132402418687e-03
    43    3.407198669003e-02
    44   -3.755026506459e-04
    45    8.774574300698e-04
    46   -1.505958902858e-03
    47   -2.110460535857e-03
    48    3.568555738960e-02
Sym=X
Ene= 0.862940
Spin=Alpha
Occup=0
     1    2.101706491546e-02
     2   -1.113001475712e+00
     3    1.519442628685e-01
     4    5.601865728628e-02
     5    1.051496360567e-02
     6    1.137980716490e-03
     7   -7.353351331296e-03
     8    1.116231761402e-02
     9   -4.089989301715e-01
    10   -4.371745809423e-01
    11   -4.493638786210e-02
    12    9.583328986882e-01
    13    1.011873798007e+00
    14    1.045945347140e-01
    15   -2.825921166492e-03
    16    1.197567179116e-02
    17   -1.346963669183e-02
    18    2.374599687848e-01
    19    8.142775906448e-03
    20   -1.329267210938e-02
    21    1.110529577811e+00
    22    5.021067476094e-02
    23    1.523522267145e-01
    24    1.140896738174e-02
    25   -1.647412394952e-03
    26   -4.386503319270e-03
    27    6.335549569529e-04
    28   -3.947521315879e-01
    29   -4.270746717085e-01
    30   -4.466449726618e-02
    31    9.314234249770e-01
    32    9.988687685837e-01
    33    1.048056352535e-01
    34    5.293358990718e-03
    35   -1.223425513084e-02
    36    1.310124664096e-02
    37   -2.366371752309e-01
    38   -9.958130033115e-03
    39    3.001800845142e-03
    40   -1.094959169982e+00
    41    4.906704874673e-02
    42    1.487738419920e-01
    43    1.125983282578e-02
    44   -1.342467879198e-02
    45    1.093439092382e+00
    46    1.487842067780e-01
    47    5.551428066568e-02
    48    1.036666335277e-02
Sym=X
Ene= 0.937247
Spin=Alpha
Occup=0
     1    1.066813315911e-01
     2   -1.274236711173e+00
     3    1.780421557276e-01
     4   -4.584389759774e-03
     5    8.187521451220e-03
     6   -1.010119578652e-03
     7    1.707835475366e-02
     8   -4.155166039354e-02
     9   -4.779791298974e-01
    10   -4.864854738584e-01
    11   -5.148747232464e-02
    12    1.487432249534e+00
    13    1.520255800481e+00
    14    1.606499155248e-01
    15    3.099586920996e-03
    16    5.643903785878e-03
    17   -6.692853463733e-03
    18    1.153181036641e-01
    19    6.968377754368e-03
    20   -1.144503142082e-01
    21    1.275948312731e+00
    22   -1.298319400301e-02
    23    1.816545056182e-01
    24    1.008858261931e-02
    25    1.861050521948e-03
    26    2.197244010697e-02
    27   -1.528343107152e-02
    28    4.646827892185e-01
    29    5.135409163330e-01
    30    5.280517646252e-02
    31   -1.458571915425e+00
    32   -1.589830702819e+00
    33   -1.643789678804e-01
    34   -5.643986562915e-03
    35    6.361906931066e-03
    36   -6.992673347677e-03
    37    1.245239211800e-01
    38   -5.236296652765e-04
    39   -1.097844884426e-01
    40    1.326095362912e+00
    41    1.114269838736e-02
    42   -1.854869716397e-01
    43   -1.058156490037e-02
    44    1.150500784784e-01
    45   -1.290116850573e+00
    46   -1.824615604253e-01
    47    7.222317190675e-03
    48   -8.268890969112e-03
Sym=X
Ene= 0.972841
Spin=Alpha
Occup=0
     1   -6.604638047636e-02
     2    9.189783497414e-01
     3   -9.063937538623e-02
     4   -9.965668542906e-02
     5   -1.023522049265e-02
     6    2.512591381893e-02
     7    2.703657297571e-01
     8    4.900047448474e-01
     9    4.756174541540e-01
    10   -4.641170727096e-01
    11   -4.828219266675e-03
    12   -1.476788572233e+00
    13    1.445491143226e+00
    14    1.527826351529e-02
    15   -5.331775058258e-02
    16   -1.300955145000e-02
    17   -9.866231674003e-03
    18    1.421875543381e-02
    19   -3.033707659336e-01
    20   -6.519781294907e-02
    21    9.452098365550e-01
    22    9.595124291019e-02
    23    9.809407281656e-02
    24    1.036185438266e-02
    25   -2.445069382978e-02
    26   -2.189728155412e-01
    27   -5.757329310952e-01
    28    4.847368885598e-01
    29   -4.402811402245e-01
    30   -3.368774046755e-03
    31   -1.518974774291e+00
    32    1.371127113916e+00
    33    9.928328228375e-03
    34    5.067071818700e-02
    35    1.310616654444e-02
    36    9.611672154493e-03
    37   -9.400185019116e-03
    38    2.979518923342e-01
    39    6.188164777637e-02
    40   -8.642653269700e-01
    41    9.353830349306e-02
    42    8.677375552695e-02
    43    9.678392013208e-03
    44    6.690001738542e-02
    45   -9.418797034755e-01
    46   -9.241037607983e-02
    47   -9.808173272107e-02
    48   -1.017774181425e-02
[5D]

======= END OF MOLDEN-FORMATTED INPUT FILE =======


        *************************************************************
        *                                                           *
        *  Thank you very much for using Q-Chem.  Have a nice day.  *
        *                                                           *
        *************************************************************


