                  Welcome to Q-Chem
     A Quantum Leap Into The Future Of Chemistry


 Q-Chem 5.4 (devel), Q-Chem, Inc., Pleasanton, CA (2021)

 E. Epifanovsky,  A. T. B. Gilbert,  Xintian Feng,  Joonho Lee,  Yuezhi Mao,  
 N. Mardirossian,  P. Pokhilko,  A. White,  M. Wormit,  M. P. Coons,  
 A. L. Dempwolff,  Zhengting Gan,  D. Hait,  P. R. Horn,  L. D. Jacobson,  
 I. Kaliman,  J. Kussmann,  A. W. Lange,  Ka Un Lao,  D. S. Levine,  Jie Liu,  
 S. C. McKenzie,  A. F. Morrison,  K. Nanda,  F. Plasser,  D. R. Rehn,  
 M. L. Vidal,  Zhi-Qiang You,  Ying Zhu,  B. Alam,  B. Albrecht,  
 A. Aldossary,  E. Alguire,  J. H. Andersen,  D. Barton,  K. Begam,  A. Behn,  
 Y. A. Bernard,  E. J. Berquist,  H. Burton,  A. Carreras,  K. Carter-Fenk,  
 R. Chakraborty,  A. D. Chien,  K. D. Closser,  V. Cofer-Shabica,  
 S. Dasgupta,  Jia Deng,  M. de Wergifosse,  M. Diedenhofen,  Hainam Do,  
 S. Ehlert,  Po-Tung Fang,  S. Fatehi,  Qingguo Feng,  T. Friedhoff,  
 J. Gayvert,  Qinghui Ge,  G. Gidofalvi,  M. Goldey,  J. Gomes,  
 C. Gonzalez-Espinoza,  S. Gulania,  A. Gunina,  M. W. D. Hanson-Heine,  
 P. H. P. Harbach,  A. W. Hauser,  M. F. Herbst,  M. Hernandez Vera,  
 M. Hodecker,  Z. C. Holden,  S. Houck,  Xunkun Huang,  Kerwin Hui,  
 B. C. Huynh,  M. Ivanov,  Hyunjun Ji,  Hanjie Jiang,  B. Kaduk,  S. Kaehler,  
 K. Khistyaev,  Jaehoon Kim,  P. Klunzinger,  Z. Koczor-Benda,  
 Joong Hoon Koh,  D. Kosenkov,  L. Koulias,  T. Kowalczyk,  C. M. Krauter,  
 K. Kue,  A. Kunitsa,  T. Kus,  A. Landau,  K. V. Lawler,  D. Lefrancois,  
 S. Lehtola,  Rain Li,  Yi-Pei Li,  Jiashu Liang,  M. Liebenthal,  
 Hung-Hsuan Lin,  You-Sheng Lin,  Fenglai Liu,  Kuan-Yu Liu,  
 M. Loipersberger,  A. Luenser,  A. Manjanath,  P. Manohar,  E. Mansoor,  
 S. F. Manzer,  Shan-Ping Mao,  A. V. Marenich,  T. Markovich,  S. Mason,  
 S. A. Maurer,  P. F. McLaughlin,  M. F. S. J. Menger,  J.-M. Mewes,  
 S. A. Mewes,  P. Morgante,  J. W. Mullinax,  K. J. Oosterbaan,  G. Paran,  
 Alexander C. Paul,  Suranjan K. Paul,  F. Pavosevic,  Zheng Pei,  S. Prager,  
 E. I. Proynov,  E. Ramos,  B. Rana,  A. E. Rask,  A. Rettig,  R. M. Richard,  
 F. Rob,  E. Rossomme,  T. Scheele,  M. Scheurer,  M. Schneider,  
 N. Sergueev,  S. M. Sharada,  W. Skomorowski,  D. W. Small,  C. J. Stein,  
 Yu-Chuan Su,  E. J. Sundstrom,  Zhen Tao,  J. Thirman,  T. Tsuchimochi,  
 N. M. Tubman,  S. P. Veccham,  O. Vydrov,  J. Wenzel,  J. Witte,  A. Yamada,  
 Kun Yao,  S. Yeganeh,  S. R. Yost,  A. Zech,  Igor Ying Zhang,  Xing Zhang,  
 Yu Zhang,  D. Zuev,  A. Aspuru-Guzik,  A. T. Bell,  N. A. Besley,  
 K. B. Bravaya,  B. R. Brooks,  D. Casanova,  Jeng-Da Chai,  S. Coriani,  
 C. J. Cramer,  A. E. DePrince, III,  R. A. DiStasio Jr.,  A. Dreuw,  
 B. D. Dunietz,  T. R. Furlani,  W. A. Goddard III,  S. Grimme,  
 S. Hammes-Schiffer,  T. Head-Gordon,  W. J. Hehre,  Chao-Ping Hsu,  
 T.-C. Jagau,  Yousung Jung,  A. Klamt,  Jing Kong,  D. S. Lambrecht,  
 WanZhen Liang,  N. J. Mayhall,  C. W. McCurdy,  J. B. Neaton,  
 C. Ochsenfeld,  J. A. Parkhill,  R. Peverati,  V. A. Rassolov,  Yihan Shao,  
 L. V. Slipchenko,  T. Stauch,  R. P. Steele,  J. E. Subotnik,  
 A. J. W. Thom,  A. Tkatchenko,  D. G. Truhlar,  T. Van Voorhis,  
 T. A. Wesolowski,  K. B. Whaley,  H. L. Woodcock III,  P. M. Zimmerman,  
 S. Faraji,  P. M. W. Gill,  M. Head-Gordon,  J. M. Herbert,  A. I. Krylov

 Additional authors for Version 5.4.1: 
 S. Kotaru,  Shaozhi Li,  Xiangyuan Li,  F. Matz,  A. Molle,  Haisheng Ren,  
 Yingli Su,  Hung-Yi Tsai,  C. Utku,  Fang Wang

 Contributors to earlier versions of Q-Chem not listed above: 
 R. D. Adamson,  B. Austin,  R. Baer,  J. Baker,  G. J. O. Beran,  
 K. Brandhorst,  S. T. Brown,  E. F. C. Byrd,  A. K. Chakraborty,  
 G. K. L. Chan,  Chun-Min Chang,  Yunqing Chen,  C.-L. Cheng,  
 Siu Hung Chien,  D. M. Chipman,  D. L. Crittenden,  H. Dachsel,  
 R. J. Doerksen,  A. D. Dutoi,  R. G. Edgar,  J. Fosso-Tande,  
 L. Fusti-Molnar,  D. Ghosh,  A. Ghysels,  A. Golubeva-Zadorozhnaya,  
 J. Gonthier,  M. S. Gordon,  S. R. Gwaltney,  G. Hawkins,  J. E. Herr,  
 A. Heyden,  S. Hirata,  E. G. Hohenstein,  G. Kedziora,  F. J. Keil,  
 C. Kelley,  Jihan Kim,  R. A. King,  R. Z. Khaliullin,  P. P. Korambath,  
 W. Kurlancheek,  A. Laurent,  A. M. Lee,  M. S. Lee,  S. V. Levchenko,  
 Ching Yeh Lin,  D. Liotard,  E. Livshits,  R. C. Lochan,  I. Lotan,  
 L. A. Martinez-Martinez,  P. E. Maslen,  N. Nair,  D. P. O'Neill,  
 D. Neuhauser,  E. Neuscamman,  C. M. Oana,  R. Olivares-Amaya,  R. Olson,  
 T. M. Perrine,  B. Peters,  P. A. Pieniazek,  A. Prociuk,  Y. M. Rhee,  
 J. Ritchie,  M. A. Rohrdanz,  E. Rosta,  N. J. Russ,  H. F. Schaefer III,  
 M. W. Schmidt,  N. E. Schultz,  S. Sharma,  N. Shenvi,  C. D. Sherrill,  
 A. C. Simmonett,  A. Sodt,  T. Stein,  D. Stuck,  K. S. Thanthiriwatte,  
 V. Vanovschi,  L. Vogt,  Tao Wang,  A. Warshel,  M. A. Watson,  
 C. F. Williams,  Q. Wu,  X. Xu,  Jun Yang,  W. Zhang,  Yan Zhao

 Please cite Q-Chem as follows:
 Y. Shao et al., Mol. Phys. 113, 184-215 (2015)
 DOI: 10.1080/00268976.2014.952696

 Q-Chem 5.4.1 for Intel X86 EM64T Linux

 Parts of Q-Chem use Armadillo 9.800.1 (Horizon Scraper).
 http://arma.sourceforge.net/

 Q-Chem begins on Thu Nov 17 15:39:40 2022  

 Host: cpu185.baobab
0

     Scratch files written to /scratch/fum/qchem21497//
 Processing $rem in /home/share/wesolowski/qc5.aug2021.FDE/config/preferences:
 Processing $rem in /home/fum/.qchemrc:

 Checking the input file for inconsistencies... 	...done.

--------------------------------------------------------------
User input:
--------------------------------------------------------------
$comment
generated from CCJob.Templates
$end

$rem
sym_ignore = true
method = adc(2)
ee_states = 10
basis = cc-pVDZ
mem_static = 1024
mem_total = 40000
adc_davidson_maxiter = 900
adc_davidson_conv = 6
adc_print = 3
adc_prop_es = true
adc_prop_es2es = true
adc_prop_tpa = true
molden_format = True
state_analysis = true
print_orbitals = 15
gen_scfman = false
fde_export_density = true
fde_details = 3
$end

$molecule
0 1
H -0.0348278765 -0.2442097827 0.0636489606
C -1.0765972949 -0.5242748755 0.0076448224
H -1.313264467 -1.5767591607 -0.0757276926
C -2.043634118 0.3926884087 0.0061254933
H -1.8137616575 1.4459188338 0.0804456828
H -3.085977293 0.114931858 -0.0593381042                     
$end
--------------------------------------------------------------
 ----------------------------------------------------------------
             Standard Nuclear Orientation (Angstroms)
    I     Atom           X                Y                Z
 ----------------------------------------------------------------
    1      H      -0.0348278765    -0.2442097827     0.0636489606
    2      C      -1.0765972949    -0.5242748755     0.0076448224
    3      H      -1.3132644670    -1.5767591607    -0.0757276926
    4      C      -2.0436341180     0.3926884087     0.0061254933
    5      H      -1.8137616575     1.4459188338     0.0804456828
    6      H      -3.0859772930     0.1149318580    -0.0593381042
 ----------------------------------------------------------------
 Nuclear Repulsion Energy =          33.42355545 hartrees
 There are        8 alpha and        8 beta electrons
 Requested basis set is cc-pVDZ
 There are 24 shells and 48 basis functions
 Total memory of 40000 MB is distributed as follows: 
   MEM_STATIC is set to 1024 MB
   QALLOC/CCMAN JOB total memory use is  38976 MB
 Warning: actual memory use might exceed 40000 MB

 Total QAlloc Memory Limit  40000 MB
 Mega-Array Size      1001 MB
 MEM_STATIC part      1024 MB

                       Distance Matrix (Angstroms)
             H (  1)   C (  2)   H (  3)   C (  4)   H (  5)
   C (  2)  1.080211
   H (  3)  1.851895  1.081982
   C (  4)  2.108139  1.332661  2.102109
   H (  5)  2.453859  2.104845  3.067812  1.080583
   H (  6)  3.074674  2.109663  2.450428  1.080700  1.846510

 A cutoff of  1.0D-11 yielded    300 shell pairs
 There are      1220 function pairs (      1329 Cartesian)
 Smallest overlap matrix eigenvalue = 4.80E-03

 Scale SEOQF with 1.000000e-01/1.000000e-01/1.000000e+00

 Standard Electronic Orientation quadrupole field applied
 Nucleus-field energy     =     0.0000000022 hartrees
 Guess from superposition of atomic densities
 Warning:  Energy on first SCF cycle will be non-variational
 SAD guess density has 16.000000 electrons
 A restricted Hartree-Fock SCF calculation will be
 performed using Pulay DIIS extrapolation
 SCF converges when DIIS error is below 1.0E-08
 using 10 threads for integral computing
 -------------------------------------------------------
 OpenMP Integral computing Module                
 Release: version 1.0, May 2013, Q-Chem Inc. Pittsburgh 
 -------------------------------------------------------
 ---------------------------------------
  Cycle       Energy         DIIS Error
 ---------------------------------------
    1     -78.4387876851      1.01E-01
    2     -78.0176648697      7.21E-03
    3     -78.0382957066      1.84E-03
    4     -78.0397785907      5.73E-04
    5     -78.0399002229      5.79E-05
    6     -78.0399020992      9.34E-06
    7     -78.0399021599      2.25E-06
    8     -78.0399021627      9.13E-07
    9     -78.0399021630      9.45E-08
   10     -78.0399021630      1.37E-08
   11     -78.0399021630      3.91E-09 Convergence criterion met
 ---------------------------------------
 SCF time:  CPU 1.57 s  wall 2.28 s
 SCF   energy in the final basis set = -78.03990216
 Total energy in the final basis set = -78.03990216
Exporting Density Matrix to file 'Densmat_SCF.txt'.
Export successful
================================================================================
|                                                                              |
|                                 A D C  M A N                                 |
|                                                                              |
 ------------------------------------------------------------------------------ 
|                                                                              |
| Components:                                                                  |
|                                                                              |
| - libvmm - 1.3-trunk                                                         |
|   Authors:                                                                   |
|   Evgeny Epifanovsky, Ilya Kaliman                                           |
|                                                                              |
| - libtensor - 2.5-trunk                                                      |
|   Authors:                                                                   |
|   Evgeny Epifanovsky, Michael Wormit, Dmitry Zuev, Sam Manzer,               |
|   Ilya Kaliman                                                               |
|                                                                              |
| - libwfa - 1.1-trunk                                                         |
|   Authors:                                                                   |
|   Felix Plasser, Stefanie Mewes (Baeppler), Benjamin Thomitzni,              |
|   Michael Wormit, Feng Chen, Anna I. Krylov, Pavel Pokhilko                  |
|                                                                              |
| - libadc - 1.1-trunk                                                         |
|   Authors:                                                                   |
|   Michael Wormit, Adrian L. Dempwolff, Philipp H. P. Harbach,                |
|   Caroline Krauter, Dirk Rehn, Matthias Schneider, Jan Wenzel                |
|                                                                              |
| - adcman - 2.6-trunk                                                         |
|   Authors:                                                                   |
|   Michael Wormit, Adrian L. Dempwolff, Philipp H. P. Harbach,                |
|   Caroline Krauter, Daniel Lefrancois, Jan-Michael Mewes, Dirk Rehn,         |
|   Matthias Schneider, Jan Wenzel, Andreas Dreuw                              |
|                                                                              |
| Authors of earlier versions of ADCMAN:                                       |
| Andreas Dreuw, Jan Hendrik Starcke, Dirk Rehn, Michael Wormit                |
|                                                                              |
================================================================================

 Created directory /scratch/fum/qchem21497/plots
  Import QC data ...  CPU 0.00 s  wall 0.00 s

 Alpha MOs, Restricted
 -- Occupied --                  
-11.235 -11.233  -1.032  -0.790  -0.641  -0.582  -0.505  -0.374
  1 A     2 A     3 A     4 A     5 A     6 A     7 A     8 A                  
 -- Virtual --                   
  0.168   0.204   0.233   0.239   0.303   0.462   0.578   0.615
  9 A    10 A    11 A    12 A    13 A    14 A    15 A    16 A                  
  0.689   0.709   0.785   0.808   0.862   0.936   0.972   1.010
 17 A    18 A    19 A    20 A    21 A    22 A    23 A    24 A                  
  1.129   1.235   1.254   1.266   1.294   1.601   1.727   1.750
 25 A    26 A    27 A    28 A    29 A    30 A    31 A    32 A                  
  1.819   1.859   1.867   1.921   1.977   1.978   2.221   2.258
 33 A    34 A    35 A    36 A    37 A    38 A    39 A    40 A                  
  2.376   2.454   2.506   2.634   2.721   2.822   3.140   3.399
 41 A    42 A    43 A    44 A    45 A    46 A    47 A    48 A                  

 Beta MOs, Restricted
 -- Occupied --                  
-11.235 -11.233  -1.032  -0.790  -0.641  -0.582  -0.505  -0.374
  1 A     2 A     3 A     4 A     5 A     6 A     7 A     8 A                  
 -- Virtual --                   
  0.168   0.204   0.233   0.239   0.303   0.462   0.578   0.615
  9 A    10 A    11 A    12 A    13 A    14 A    15 A    16 A                  
  0.689   0.709   0.785   0.808   0.862   0.936   0.972   1.010
 17 A    18 A    19 A    20 A    21 A    22 A    23 A    24 A                  
  1.129   1.235   1.254   1.266   1.294   1.601   1.727   1.750
 25 A    26 A    27 A    28 A    29 A    30 A    31 A    32 A                  
  1.819   1.859   1.867   1.921   1.977   1.978   2.221   2.258
 33 A    34 A    35 A    36 A    37 A    38 A    39 A    40 A                  
  2.376   2.454   2.506   2.634   2.721   2.822   3.140   3.399
 41 A    42 A    43 A    44 A    45 A    46 A    47 A    48 A                  
  Import AO data ...  CPU 0.00 s  wall 0.00 s
  Using point group: C1
  Irreducible representations in point group: A
  Molecular orbitals: 
  Occupied MOs:
  Block   0:   1 (  A) A   2 (  A) A   3 (  A) A   4 (  A) A   5 (  A) A
                  -11.24      -11.23      -1.032     -0.7898     -0.6411
               6 (  A) A   7 (  A) A   8 (  A) A
                 -0.5819     -0.5046      -0.374
  Block   1:   1 (  A) B   2 (  A) B   3 (  A) B   4 (  A) B   5 (  A) B
                  -11.24      -11.23      -1.032     -0.7898     -0.6411
               6 (  A) B   7 (  A) B   8 (  A) B
                 -0.5819     -0.5046      -0.374
  Virtual MOs:
  Block   0:   9 (  A) A  10 (  A) A  11 (  A) A  12 (  A) A  13 (  A) A
                  0.1684      0.2037       0.233      0.2394      0.3033
              14 (  A) A  15 (  A) A  16 (  A) A  17 (  A) A  18 (  A) A
                   0.462      0.5775      0.6151      0.6892      0.7089
              19 (  A) A  20 (  A) A  21 (  A) A  22 (  A) A
                  0.7846       0.808      0.8622      0.9359
  Block   1:  23 (  A) A  24 (  A) A  25 (  A) A  26 (  A) A  27 (  A) A
                  0.9725        1.01       1.129       1.235       1.254
              28 (  A) A  29 (  A) A  30 (  A) A  31 (  A) A  32 (  A) A
                   1.266       1.294       1.601       1.727        1.75
              33 (  A) A  34 (  A) A  35 (  A) A  36 (  A) A
                   1.819       1.859       1.867       1.921
  Block   2:  37 (  A) A  38 (  A) A  39 (  A) A  40 (  A) A  41 (  A) A
                   1.977       1.978       2.221       2.258       2.376
              42 (  A) A  43 (  A) A  44 (  A) A  45 (  A) A  46 (  A) A
                   2.454       2.506       2.634       2.721       2.822
              47 (  A) A  48 (  A) A
                    3.14       3.399
  Block   3:   9 (  A) B  10 (  A) B  11 (  A) B  12 (  A) B  13 (  A) B
                  0.1684      0.2037       0.233      0.2394      0.3033
              14 (  A) B  15 (  A) B  16 (  A) B  17 (  A) B  18 (  A) B
                   0.462      0.5775      0.6151      0.6892      0.7089
              19 (  A) B  20 (  A) B  21 (  A) B  22 (  A) B
                  0.7846       0.808      0.8622      0.9359
  Block   4:  23 (  A) B  24 (  A) B  25 (  A) B  26 (  A) B  27 (  A) B
                  0.9725        1.01       1.129       1.235       1.254
              28 (  A) B  29 (  A) B  30 (  A) B  31 (  A) B  32 (  A) B
                   1.266       1.294       1.601       1.727        1.75
              33 (  A) B  34 (  A) B  35 (  A) B  36 (  A) B
                   1.819       1.859       1.867       1.921
  Block   5:  37 (  A) B  38 (  A) B  39 (  A) B  40 (  A) B  41 (  A) B
                   1.977       1.978       2.221       2.258       2.376
              42 (  A) B  43 (  A) B  44 (  A) B  45 (  A) B  46 (  A) B
                   2.454       2.506       2.634       2.721       2.822
              47 (  A) B  48 (  A) B
                    3.14       3.399
  Import MO data ...  CPU 0.01 s  wall 0.00 s
  Import HF data ...  CPU 0.08 s  wall 0.03 s
  Import 2e integrals ...  CPU 0.68 s  wall 0.13 s

--------------------------------------------------------------------------------
                                   HF Summary                                   
--------------------------------------------------------------------------------
  Energy:                                                  -78.0399021630 a.u.
  Dip. moment [a.u.]:                  [  -0.000435,    0.001224,   -0.005001]
  Total dipole [Debye]:                                               0.013132
  <r^2> [a.u.]:                        [ 175.319057,   34.922215,   11.627053]
  Total <r^2> [a.u.]:                                               221.868324
--------------------------------------------------------------------------------
  HF properties ...  CPU 0.01 s  wall 0.01 s
  MP(1) calculation ...  CPU 0.01 s  wall 0.00 s
  N^6 prerequesite intermediates ...  CPU 0.52 s  wall 0.07 s
  Difference density matrix of state mp2_gs printed to ASCII file 'State_mp2_gs_Difference.txt'
Exporting MP density matrix to file 'Densmat_MP.txt'.
Export successful
  Total density matrix of state mp2_gs printed to ASCII file 'State_mp2_gs_Total.txt'
Exporting MP density matrix to file 'Densmat_MP.txt'.
Export successful

--------------------------------------------------------------------------------
                                 MP(2) Summary                                  
--------------------------------------------------------------------------------
  MP energy contribution:                                   -0.2797093634 a.u.
  Total energy:                                            -78.3196115264 a.u.
  Dip. moment [a.u.]:                  [  -0.000433,    0.001069,   -0.004944]
  Total dipole [Debye]:                                               0.012903
  <r^2> [a.u.]:                        [ 175.365851,   34.962641,   11.458901]
  Total <r^2> [a.u.]:                                               221.787393

  Density matrix analysis:
  ------------------------
  NOs
    Occupation of frontier NOs:
       0.0453   1.9383
    Number of electrons: 16.000000
    Number of unpaired electrons: n_u =  0.40344, n_u,nl =  0.04508
    NO participation ratio (PR_NO): 13.857266
  
  
  Mulliken Population Analysis
  Atom      Charge (e)              h+              e-           Del q
  --------------------------------------------------------------------
   1 H        0.050867        0.014036       -0.011204        0.002832
   2 C       -0.100855        0.093245       -0.098849       -0.005604
   3 H        0.050667        0.014070       -0.011193        0.002878
   4 C       -0.101378        0.092968       -0.098904       -0.005936
   5 H        0.050105        0.014126       -0.011184        0.002942
   6 H        0.050595        0.014081       -0.011193        0.002888
  --------------------------------------------------------------------
  Sum:       -0.000000        0.242526       -0.242526        0.000000
  
  Multipole moment analysis of the density matrix
    Molecular charge:                      0.000000
    Number of electrons:                   16.000000
      Center of electronic charge [Ang]: [ -1.560562,  -0.065638,   0.005892]
    Total nuclear charge:                  16.000000
      Center of nuclear charge [Ang]:    [ -1.560576,  -0.065602,   0.005728]
    Dipole moment [D]:                     0.012903
      Cartesian components [D]:          [ -0.001101,   0.002717,  -0.012565]
    RMS size of the density [Ang]:         1.200824
      Cartesian components [Ang]:        [  0.796154,   0.779487,   0.447791]
  
  Exciton analysis of the difference density matrix
    <r_h> [Ang]:                  [ -1.560492,  -0.066076,   0.006680]
    <r_e> [Ang]:                  [ -1.560497,  -0.065738,   0.006555]
    |<r_e - r_h>| [Ang]:            0.000360
    Hole size [Ang]:                1.393695
      Cartesian components [Ang]: [  0.846530,   0.834285,   0.727833]
    Electron size [Ang]:            1.359768
      Cartesian components [Ang]: [  0.877854,   0.861831,   0.579301]
--------------------------------------------------------------------------------
  MP(2) calculation ...  CPU 0.13 s  wall 0.12 s
  Start ADC(2)-s ...  CPU 0.01 s  wall 0.00 s
  ADC(2) intermediates ...  CPU 0.02 s  wall 0.01 s
  Starting Davidson for singlet states of irrep A ... 
--------------------------------------------------------------------------------
   It NVec Conv  Avg. Norm  Max. Norm  Conv. states           Remark
--------------------------------------------------------------------------------
        10    0  1.330e-01  4.687e-01  0.4119 n n n n n n n n Guess.
    1   20    0  2.326e-02  1.109e-01  0.3262 n n n n n n n n 
    2   30    0  6.117e-03  2.522e-02  0.3215 n n n n n n n n 
    3   40    0  2.094e-03  1.032e-02  0.3211 n n n n n n n n 
    4   50    0  5.384e-04  3.348e-03  0.3211 n n n n n n n n 
    5   20    0  3.075e-04  1.709e-03  0.3211 n n n n n n n n Subspace collapsed.
    6   30    0  2.747e-04  1.739e-03  0.3211 n n n n n n n n 
    7   40    0  1.737e-04  1.262e-03  0.3211 n n n n n n n n 
    8   50    0  9.190e-05  6.975e-04  0.3211 n n n n n n n n 
    9   20    1  5.050e-05  3.777e-04  0.3211 n y n n n n n n Subspace collapsed.
   10   30    2  3.900e-05  2.389e-04  0.3211 n y n y n n n n 
   11   40    3  1.706e-05  1.064e-04  0.3211 n y y y n n n n 
   12   50    5  8.422e-06  5.882e-05  0.3211 y y y y y n n n 
   13   20    6  5.382e-06  4.213e-05  0.3211 y y y y y y n n Subspace collapsed.
   14   30    6  6.650e-06  5.465e-05  0.3211 y y y y y y n n 
   15   40    6  6.454e-06  5.760e-05  0.3211 y y y y y y n n 
   16   50    6  5.593e-06  5.292e-05  0.3211 y y y y y y n n 
   17   20    6  2.532e-06  2.407e-05  0.3211 y y y y y y n n Subspace collapsed.
   18   30    7  2.049e-06  1.931e-05  0.3211 y y y y y y y n 
   19   40    7  1.190e-06  1.146e-05  0.3211 y y y y y y y n 
   20   50    7  9.271e-07  9.013e-06  0.3211 y y y y y y y n 
   21   20    8  7.356e-07  7.196e-06  0.3211 y y y y y y y y Subspace collapsed.
   22   30    8  9.326e-07  9.158e-06  0.3211 y y y y y y y y 
   23   40    8  1.059e-06  1.049e-05  0.3211 y y y y y y y y 
   24   49    9  8.642e-07  8.594e-06  0.3211 y y y y y y y y 
   25   50    9  8.649e-07  8.601e-06  0.3211 y y y y y y y y 
   26   17    9  4.552e-07  4.529e-06  0.3211 y y y y y y y y Subspace collapsed.
   27   23    9  3.525e-07  3.509e-06  0.3211 y y y y y y y y 
   28   29    9  2.288e-07  2.280e-06  0.3211 y y y y y y y y 
   29   35    9  2.252e-07  2.246e-06  0.3211 y y y y y y y y 
   30   35    9  2.252e-07  2.246e-06  0.3211 y y y y y y y y 
   31   45    9  2.378e-07  2.374e-06  0.3211 y y y y y y y y 
   32   45    9  2.378e-07  2.374e-06  0.3211 y y y y y y y y 
   33   50    9  2.428e-07  2.425e-06  0.3211 y y y y y y y y 
   34   14    9  1.351e-07  1.350e-06  0.3211 y y y y y y y y Subspace collapsed.
   35   18    9  1.461e-07  1.459e-06  0.3211 y y y y y y y y 
   36   22    9  1.225e-07  1.224e-06  0.3211 y y y y y y y y 
   37   26    9  1.131e-07  1.130e-06  0.3211 y y y y y y y y 
   38   30    9  1.251e-07  1.251e-06  0.3211 y y y y y y y y 
   39   34   10  9.582e-08  9.580e-07  0.3211 y y y y y y y y Converged.
--------------------------------------------------------------------------------
  Davidson Summary: 
 ------------------------------------------------------------
  State  0: excitation energy =   0.3211 a.u.   (converged)
  State  1: excitation energy =   0.3327 a.u.   (converged)
  State  2: excitation energy =   0.3370 a.u.   (converged)
  State  3: excitation energy =   0.3614 a.u.   (converged)
  State  4: excitation energy =   0.3753 a.u.   (converged)
  State  5: excitation energy =   0.3872 a.u.   (converged)
  State  6: excitation energy =   0.4247 a.u.   (converged)
  State  7: excitation energy =   0.4471 a.u.   (converged)
  State  8: excitation energy =   0.4563 a.u.   (converged)
  State  9: excitation energy =   0.4647 a.u.   (converged)
 ------------------------------------------------------------

  Singlet states of irrep A ...  CPU 97.06 s  wall 32.90 s
  TDMs ...  CPU 0.67 s  wall 0.28 s
  SDMs ...  CPU 1.47 s  wall 0.52 s
  Starting TPA DIIS iterations ... 
------------------------------------ 
   It     Res. Norm  Remark
------------------------------------
                       Guess.
    1     4.404e+00  
    2     5.838e+00  
    3     1.077e+00  
    4     2.566e-01  
    5     6.576e-02  
    6     2.673e-02  
    7     8.237e-03  
    8     1.442e-03  
    9     5.355e-04  
   10     9.021e-05  
   11     2.857e-05  
   12     4.526e-06  
   13     1.518e-06  
   14     4.670e-07  Converged.
   ... Converged in 14 steps (norm: 4.67031e-07)
------------------------------------
  Starting TPA DIIS iterations ... 
------------------------------------ 
   It     Res. Norm  Remark
------------------------------------
                       Guess.
    1     4.186e+00  
    2     5.543e+00  
    3     1.030e+00  
    4     2.557e-01  
    5     6.535e-02  
    6     2.675e-02  
    7     8.117e-03  
    8     1.458e-03  
    9     5.385e-04  
   10     9.011e-05  
   11     2.879e-05  
   12     4.415e-06  
   13     1.582e-06  
   14     4.424e-07  Converged.
   ... Converged in 14 steps (norm: 4.4243e-07)
------------------------------------
  Starting TPA DIIS iterations ... 
------------------------------------ 
   It     Res. Norm  Remark
------------------------------------
                       Guess.
    1     6.894e-01  
    2     4.856e-01  
    3     1.717e-01  
    4     7.769e-02  
    5     1.812e-02  
    6     6.371e-03  
    7     1.039e-03  
    8     4.481e-04  
    9     1.241e-04  
   10     2.948e-05  
   11     5.269e-06  
   12     1.640e-06  
   13     1.059e-06  
   14     3.460e-07  Converged.
   ... Converged in 14 steps (norm: 3.45952e-07)
------------------------------------
  Starting TPA DIIS iterations ... 
------------------------------------ 
   It     Res. Norm  Remark
------------------------------------
                       Guess.
    1     4.690e+00  
    2     6.353e+00  
    3     1.157e+00  
    4     2.850e-01  
    5     7.405e-02  
    6     3.036e-02  
    7     9.338e-03  
    8     1.632e-03  
    9     6.109e-04  
   10     1.035e-04  
   11     3.316e-05  
   12     5.310e-06  
   13     1.806e-06  
   14     5.537e-07  Converged.
   ... Converged in 14 steps (norm: 5.53653e-07)
------------------------------------
  Starting TPA DIIS iterations ... 
------------------------------------ 
   It     Res. Norm  Remark
------------------------------------
                       Guess.
    1     4.457e+00  
    2     6.031e+00  
    3     1.107e+00  
    4     2.838e-01  
    5     7.362e-02  
    6     3.040e-02  
    7     9.206e-03  
    8     1.651e-03  
    9     6.143e-04  
   10     1.033e-04  
   11     3.338e-05  
   12     5.162e-06  
   13     1.890e-06  
   14     5.225e-07  Converged.
   ... Converged in 14 steps (norm: 5.22496e-07)
------------------------------------
  Starting TPA DIIS iterations ... 
------------------------------------ 
   It     Res. Norm  Remark
------------------------------------
                       Guess.
    1     7.015e-01  
    2     5.032e-01  
    3     1.817e-01  
    4     8.784e-02  
    5     1.948e-02  
    6     7.003e-03  
    7     1.173e-03  
    8     5.278e-04  
    9     1.498e-04  
   10     3.370e-05  
   11     5.976e-06  
   12     1.930e-06  
   13     1.308e-06  
   14     4.263e-07  Converged.
   ... Converged in 14 steps (norm: 4.2633e-07)
------------------------------------
  Starting TPA DIIS iterations ... 
------------------------------------ 
   It     Res. Norm  Remark
------------------------------------
                       Guess.
    1     4.805e+00  
    2     6.561e+00  
    3     1.190e+00  
    4     2.968e-01  
    5     7.748e-02  
    6     3.187e-02  
    7     9.792e-03  
    8     1.711e-03  
    9     6.422e-04  
   10     1.090e-04  
   11     3.509e-05  
   12     5.642e-06  
   13     1.930e-06  
   14     5.905e-07  Converged.
   ... Converged in 14 steps (norm: 5.9051e-07)
------------------------------------
  Starting TPA DIIS iterations ... 
------------------------------------ 
   It     Res. Norm  Remark
------------------------------------
                       Guess.
    1     4.566e+00  
    2     6.229e+00  
    3     1.138e+00  
    4     2.954e-01  
    5     7.702e-02  
    6     3.192e-02  
    7     9.655e-03  
    8     1.731e-03  
    9     6.458e-04  
   10     1.088e-04  
   11     3.531e-05  
   12     5.476e-06  
   13     2.023e-06  
   14     5.567e-07  Converged.
   ... Converged in 14 steps (norm: 5.56685e-07)
------------------------------------
  Starting TPA DIIS iterations ... 
------------------------------------ 
   It     Res. Norm  Remark
------------------------------------
                       Guess.
    1     7.062e-01  
    2     5.101e-01  
    3     1.856e-01  
    4     9.205e-02  
    5     2.003e-02  
    6     7.263e-03  
    7     1.229e-03  
    8     5.617e-04  
    9     1.608e-04  
   10     3.512e-05  
   11     6.264e-06  
   12     2.054e-06  
   13     1.417e-06  
   14     4.617e-07  Converged.
   ... Converged in 14 steps (norm: 4.61663e-07)
------------------------------------
  Starting TPA DIIS iterations ... 
------------------------------------ 
   It     Res. Norm  Remark
------------------------------------
                       Guess.
    1     5.544e+00  
    2     7.940e+00  
    3     1.397e+00  
    4     3.768e-01  
    5     1.008e-01  
    6     4.223e-02  
    7     1.290e-02  
    8     2.246e-03  
    9     8.576e-04  
   10     1.469e-04  
   11     4.873e-05  
   12     8.005e-06  
   13     2.846e-06  
   14     8.585e-07  Converged.
   ... Converged in 14 steps (norm: 8.58473e-07)
------------------------------------
  Starting TPA DIIS iterations ... 
------------------------------------ 
   It     Res. Norm  Remark
------------------------------------
                       Guess.
    1     5.267e+00  
    2     7.537e+00  
    3     1.335e+00  
    4     3.745e-01  
    5     1.003e-01  
    6     4.238e-02  
    7     1.272e-02  
    8     2.274e-03  
    9     8.623e-04  
   10     1.467e-04  
   11     4.889e-05  
   12     7.694e-06  
   13     3.018e-06  
   14     8.106e-07  Converged.
   ... Converged in 14 steps (norm: 8.10645e-07)
------------------------------------
  Starting TPA DIIS iterations ... 
------------------------------------ 
   It     Res. Norm  Remark
------------------------------------
                       Guess.
    1     7.335e-01  
    2     5.525e-01  
    3     2.105e-01  
    4     1.209e-01  
    5     2.365e-02  
    6     9.043e-03  
    7     1.627e-03  
    8     7.992e-04  
    9     2.361e-04  
   10     4.056e-05  
   11     8.215e-06  
   12     2.935e-06  
   13     2.241e-06  
   14     7.342e-07  Converged.
   ... Converged in 14 steps (norm: 7.34167e-07)
------------------------------------
  Starting TPA DIIS iterations ... 
------------------------------------ 
   It     Res. Norm  Remark
------------------------------------
                       Guess.
    1     6.055e+00  
    2     8.925e+00  
    3     1.539e+00  
    4     4.362e-01  
    5     1.181e-01  
    6     5.001e-02  
    7     1.520e-02  
    8     2.642e-03  
    9     1.020e-03  
   10     1.755e-04  
   11     5.928e-05  
   12     9.854e-06  
   13     3.600e-06  
   14     1.075e-06  
   15     4.438e-07  Converged.
   ... Converged in 15 steps (norm: 4.43776e-07)
------------------------------------
  Starting TPA DIIS iterations ... 
------------------------------------ 
   It     Res. Norm  Remark
------------------------------------
                       Guess.
    1     5.750e+00  
    2     8.472e+00  
    3     1.471e+00  
    4     4.330e-01  
    5     1.175e-01  
    6     5.024e-02  
    7     1.500e-02  
    8     2.676e-03  
    9     1.025e-03  
   10     1.751e-04  
   11     5.937e-05  
   12     9.404e-06  
   13     3.850e-06  
   14     1.028e-06  
   15     6.162e-07  Converged.
   ... Converged in 15 steps (norm: 6.16199e-07)
------------------------------------
  Starting TPA DIIS iterations ... 
------------------------------------ 
   It     Res. Norm  Remark
------------------------------------
                       Guess.
    1     7.501e-01  
    2     5.798e-01  
    3     2.272e-01  
    4     1.422e-01  
    5     2.622e-02  
    6     1.037e-02  
    7     1.939e-03  
    8     9.708e-04  
    9     2.895e-04  
   10     4.172e-05  
   11     9.692e-06  
   12     3.612e-06  
   13     2.921e-06  
   14     9.692e-07  Converged.
   ... Converged in 14 steps (norm: 9.69237e-07)
------------------------------------
  Starting TPA DIIS iterations ... 
------------------------------------ 
   It     Res. Norm  Remark
------------------------------------
                       Guess.
    1     6.554e+00  
    2     9.914e+00  
    3     1.677e+00  
    4     4.973e-01  
    5     1.359e-01  
    6     5.809e-02  
    7     1.757e-02  
    8     3.048e-03  
    9     1.188e-03  
   10     2.051e-04  
   11     7.044e-05  
   12     1.182e-05  
   13     4.434e-06  
   14     1.314e-06  
   15     5.595e-07  Converged.
   ... Converged in 15 steps (norm: 5.5953e-07)
------------------------------------
  Starting TPA DIIS iterations ... 
------------------------------------ 
   It     Res. Norm  Remark
------------------------------------
                       Guess.
    1     6.224e+00  
    2     9.409e+00  
    3     1.602e+00  
    4     4.932e-01  
    5     1.353e-01  
    6     5.841e-02  
    7     1.735e-02  
    8     3.089e-03  
    9     1.193e-03  
   10     2.045e-04  
   11     7.039e-05  
   12     1.120e-05  
   13     4.783e-06  
   14     1.283e-06  
   15     8.063e-07  Converged.
   ... Converged in 15 steps (norm: 8.06307e-07)
------------------------------------
  Starting TPA DIIS iterations ... 
------------------------------------ 
   It     Res. Norm  Remark
------------------------------------
                       Guess.
    1     7.650e-01  
    2     6.053e-01  
    3     2.431e-01  
    4     1.638e-01  
    5     2.881e-02  
    6     1.173e-02  
    7     2.273e-03  
    8     1.134e-03  
    9     3.409e-04  
   10     4.225e-05  
   11     1.127e-05  
   12     4.311e-06  
   13     3.660e-06  
   14     1.238e-06  
   15     4.147e-07  Converged.
   ... Converged in 15 steps (norm: 4.14726e-07)
------------------------------------
  Starting TPA DIIS iterations ... 
------------------------------------ 
   It     Res. Norm  Remark
------------------------------------
                       Guess.
    1     8.658e+00  
    2     1.432e+01  
    3     2.249e+00  
    4     7.819e-01  
    5     2.190e-01  
    6     9.653e-02  
    7     2.863e-02  
    8     4.940e-03  
    9     1.988e-03  
   10     3.455e-04  
   11     1.246e-04  
   12     2.164e-05  
   13     8.913e-06  
   14     2.626e-06  
   15     1.196e-06  
   16     3.617e-07  Converged.
   ... Converged in 16 steps (norm: 3.61668e-07)
------------------------------------
  Starting TPA DIIS iterations ... 
------------------------------------ 
   It     Res. Norm  Remark
------------------------------------
                       Guess.
    1     8.218e+00  
    2     1.359e+01  
    3     2.147e+00  
    4     7.728e-01  
    5     2.181e-01  
    6     9.735e-02  
    7     2.829e-02  
    8     5.008e-03  
    9     1.995e-03  
   10     3.435e-04  
   11     1.235e-04  
   12     1.987e-05  
   13     1.003e-05  
   14     3.026e-06  
   15     1.974e-06  
   16     8.411e-07  Converged.
   ... Converged in 16 steps (norm: 8.41129e-07)
------------------------------------
  Starting TPA DIIS iterations ... 
------------------------------------ 
   It     Res. Norm  Remark
------------------------------------
                       Guess.
    1     8.165e-01  
    2     7.027e-01  
    3     3.065e-01  
    4     2.570e-01  
    5     4.042e-02  
    6     1.801e-02  
    7     3.940e-03  
    8     1.653e-03  
    9     5.390e-04  
   10     5.207e-05  
   11     1.938e-05  
   12     7.404e-06  
   13     7.062e-06  
   14     2.791e-06  
   15     1.137e-06  
   16     7.411e-07  Converged.
   ... Converged in 16 steps (norm: 7.41119e-07)
------------------------------------
  Starting TPA DIIS iterations ... 
------------------------------------ 
   It     Res. Norm  Remark
------------------------------------
                       Guess.
    1     1.048e+01  
    2     1.842e+01  
    3     2.733e+00  
    4     1.056e+00  
    5     2.999e-01  
    6     1.348e-01  
    7     3.938e-02  
    8     6.779e-03  
    9     2.787e-03  
   10     4.838e-04  
   11     1.782e-04  
   12     3.191e-05  
   13     1.384e-05  
   14     4.160e-06  
   15     1.984e-06  
   16     6.171e-07  Converged.
   ... Converged in 16 steps (norm: 6.17097e-07)
------------------------------------
  Starting TPA DIIS iterations ... 
------------------------------------ 
   It     Res. Norm  Remark
------------------------------------
                       Guess.
    1     9.947e+00  
    2     1.748e+01  
    3     2.607e+00  
    4     1.041e+00  
    5     2.988e-01  
    6     1.362e-01  
    7     3.895e-02  
    8     6.871e-03  
    9     2.794e-03  
   10     4.799e-04  
   11     1.759e-04  
   12     2.860e-05  
   13     1.625e-05  
   14     5.611e-06  
   15     3.551e-06  
   16     1.605e-06  
   17     7.899e-07  Converged.
   ... Converged in 17 steps (norm: 7.89884e-07)
------------------------------------
  Starting TPA DIIS iterations ... 
------------------------------------ 
   It     Res. Norm  Remark
------------------------------------
                       Guess.
    1     8.515e-01  
    2     7.778e-01  
    3     3.575e-01  
    4     3.319e-01  
    5     5.120e-02  
    6     2.374e-02  
    7     5.626e-03  
    8     1.868e-03  
    9     6.918e-04  
   10     7.178e-05  
   11     2.824e-05  
   12     1.007e-05  
   13     9.363e-06  
   14     4.610e-06  
   15     2.343e-06  
   16     1.418e-06  
   17     7.402e-07  Converged.
   ... Converged in 17 steps (norm: 7.40206e-07)
------------------------------------
  Starting TPA DIIS iterations ... 
------------------------------------ 
   It     Res. Norm  Remark
------------------------------------
                       Guess.
    1     1.142e+01  
    2     2.062e+01  
    3     2.977e+00  
    4     1.205e+00  
    5     3.441e-01  
    6     1.561e-01  
    7     4.527e-02  
    8     7.786e-03  
    9     3.230e-03  
   10     5.599e-04  
   11     2.077e-04  
   12     3.777e-05  
   13     1.666e-05  
   14     5.093e-06  
   15     2.513e-06  
   16     7.791e-07  Converged.
   ... Converged in 16 steps (norm: 7.79058e-07)
------------------------------------
  Starting TPA DIIS iterations ... 
------------------------------------ 
   It     Res. Norm  Remark
------------------------------------
                       Guess.
    1     1.084e+01  
    2     1.956e+01  
    3     2.840e+00  
    4     1.187e+00  
    5     3.430e-01  
    6     1.578e-01  
    7     4.478e-02  
    8     7.890e-03  
    9     3.237e-03  
   10     5.547e-04  
   11     2.047e-04  
   12     3.353e-05  
   13     2.000e-05  
   14     7.324e-06  
   15     4.613e-06  
   16     2.114e-06  
   17     9.791e-07  Converged.
   ... Converged in 17 steps (norm: 9.79055e-07)
------------------------------------
  Starting TPA DIIS iterations ... 
------------------------------------ 
   It     Res. Norm  Remark
------------------------------------
                       Guess.
    1     8.672e-01  
    2     8.141e-01  
    3     3.826e-01  
    4     3.663e-01  
    5     5.692e-02  
    6     2.664e-02  
    7     6.544e-03  
    8     1.927e-03  
    9     7.661e-04  
   10     8.374e-05  
   11     3.341e-05  
   12     1.147e-05  
   13     1.030e-05  
   14     5.591e-06  
   15     3.204e-06  
   16     1.861e-06  
   17     1.022e-06  
   18     2.766e-07  Converged.
   ... Converged in 18 steps (norm: 2.76557e-07)
------------------------------------
  Starting TPA DIIS iterations ... 
------------------------------------ 
   It     Res. Norm  Remark
------------------------------------
                       Guess.
    1     1.239e+01  
    2     2.295e+01  
    3     3.226e+00  
    4     1.363e+00  
    5     3.916e-01  
    6     1.790e-01  
    7     5.158e-02  
    8     8.866e-03  
    9     3.710e-03  
   10     6.415e-04  
   11     2.395e-04  
   12     4.423e-05  
   13     1.972e-05  
   14     6.164e-06  
   15     3.165e-06  
   16     9.688e-07  Converged.
   ... Converged in 16 steps (norm: 9.6882e-07)
------------------------------------
  Starting TPA DIIS iterations ... 
------------------------------------ 
   It     Res. Norm  Remark
------------------------------------
                       Guess.
    1     1.176e+01  
    2     2.178e+01  
    3     3.077e+00  
    4     1.341e+00  
    5     3.903e-01  
    6     1.811e-01  
    7     5.103e-02  
    8     8.982e-03  
    9     3.717e-03  
   10     6.349e-04  
   11     2.358e-04  
   12     3.895e-05  
   13     2.423e-05  
   14     9.343e-06  
   15     5.910e-06  
   16     2.734e-06  
   17     1.197e-06  
   18     5.779e-07  Converged.
   ... Converged in 18 steps (norm: 5.77864e-07)
------------------------------------
  Starting TPA DIIS iterations ... 
------------------------------------ 
   It     Res. Norm  Remark
------------------------------------
                       Guess.
    1     8.821e-01  
    2     8.502e-01  
    3     4.077e-01  
    4     3.984e-01  
    5     6.295e-02  
    6     2.954e-02  
    7     7.514e-03  
    8     1.972e-03  
    9     8.408e-04  
   10     9.665e-05  
   11     3.917e-05  
   12     1.300e-05  
   13     1.155e-05  
   14     6.502e-06  
   15     4.314e-06  
   16     2.367e-06  
   17     1.284e-06  
   18     3.393e-07  Converged.
   ... Converged in 18 steps (norm: 3.39285e-07)
------------------------------------
  Two-photon absorbption ...  CPU 74.43 s  wall 18.52 s
  Transition density matrix of state singlet_A_1 printed to ASCII file 'State_singlet_A_1_Transition.txt'
  Transition density matrix of state singlet_A_2 printed to ASCII file 'State_singlet_A_2_Transition.txt'
  Transition density matrix of state singlet_A_3 printed to ASCII file 'State_singlet_A_3_Transition.txt'
  Transition density matrix of state singlet_A_4 printed to ASCII file 'State_singlet_A_4_Transition.txt'
  Transition density matrix of state singlet_A_5 printed to ASCII file 'State_singlet_A_5_Transition.txt'
  Transition density matrix of state singlet_A_6 printed to ASCII file 'State_singlet_A_6_Transition.txt'
  Transition density matrix of state singlet_A_7 printed to ASCII file 'State_singlet_A_7_Transition.txt'
  Transition density matrix of state singlet_A_8 printed to ASCII file 'State_singlet_A_8_Transition.txt'
  Transition density matrix of state singlet_A_9 printed to ASCII file 'State_singlet_A_9_Transition.txt'
  Transition density matrix of state singlet_A_10 printed to ASCII file 'State_singlet_A_10_Transition.txt'
  Transition properties ...  CPU 0.16 s  wall 0.30 s
  Difference density matrix of state singlet_A_1 printed to ASCII file 'State_singlet_A_1_Difference.txt'
  Total density matrix of state singlet_A_1 printed to ASCII file 'State_singlet_A_1_Total.txt'
  Difference density matrix of state singlet_A_2 printed to ASCII file 'State_singlet_A_2_Difference.txt'
  Total density matrix of state singlet_A_2 printed to ASCII file 'State_singlet_A_2_Total.txt'
  Difference density matrix of state singlet_A_3 printed to ASCII file 'State_singlet_A_3_Difference.txt'
  Total density matrix of state singlet_A_3 printed to ASCII file 'State_singlet_A_3_Total.txt'
  Difference density matrix of state singlet_A_4 printed to ASCII file 'State_singlet_A_4_Difference.txt'
  Total density matrix of state singlet_A_4 printed to ASCII file 'State_singlet_A_4_Total.txt'
  Difference density matrix of state singlet_A_5 printed to ASCII file 'State_singlet_A_5_Difference.txt'
  Total density matrix of state singlet_A_5 printed to ASCII file 'State_singlet_A_5_Total.txt'
  Difference density matrix of state singlet_A_6 printed to ASCII file 'State_singlet_A_6_Difference.txt'
  Total density matrix of state singlet_A_6 printed to ASCII file 'State_singlet_A_6_Total.txt'
  Difference density matrix of state singlet_A_7 printed to ASCII file 'State_singlet_A_7_Difference.txt'
  Total density matrix of state singlet_A_7 printed to ASCII file 'State_singlet_A_7_Total.txt'
  Difference density matrix of state singlet_A_8 printed to ASCII file 'State_singlet_A_8_Difference.txt'
  Total density matrix of state singlet_A_8 printed to ASCII file 'State_singlet_A_8_Total.txt'
  Difference density matrix of state singlet_A_9 printed to ASCII file 'State_singlet_A_9_Difference.txt'
  Total density matrix of state singlet_A_9 printed to ASCII file 'State_singlet_A_9_Total.txt'
  Difference density matrix of state singlet_A_10 printed to ASCII file 'State_singlet_A_10_Difference.txt'
  Total density matrix of state singlet_A_10 printed to ASCII file 'State_singlet_A_10_Total.txt'
  Properties ...  CPU 0.30 s  wall 0.50 s
  ISR TDMS ...  CPU 8.99 s  wall 3.17 s
  ISR transition properties ...  CPU 0.17 s  wall 0.08 s
  Sum-over-states TPA ...  CPU 0.00 s  wall 0.00 s

--------------------------------------------------------------------------------
                   State-averaged natural transition orbitals
--------------------------------------------------------------------------------
--------------------------------------------------------------------------------
  SA-NTO decomposition ...  CPU 0.01 s  wall 0.02 s

--------------------------------------------------------------------------------
                             Excited State Summary
--------------------------------------------------------------------------------
--------------------------------------------------------------------------------

  Excited state 1 (singlet, A)                                     [converged]
  ----------------------------------------------------------------------------
  Term symbol:  2 (1) A                                     R^2 =  8.07435e-14

  Total energy:                                            -77.9985363620 a.u.
  Excitation energy:                                               8.736900 eV

  Osc. strength:                                                      0.445509
  Trans. dip. moment [a.u.]:           [   1.044980,   -0.994652,    0.003503]
  <i|r^2|0> [a.u.]:                    [   6.164446,   -0.250237,   -0.000372]
  Two-photon absorption cross-section (SoS) [a.u.]:                   0.000523
  Two-photon absorption matrix (SoS) [a.u.]:
                                       |    0.005560   -0.001965    0.003447 |
                                       |   -0.001965    0.000098   -0.003107 |
                                       |    0.003447   -0.003107    0.003176 |
  Two-photon absorption cross-section [a.u.]:                         0.001408
  Two-photon absorption matrix [a.u.]:
                                       |   -0.000619   -0.003090    0.008861 |
                                       |   -0.003090   -0.007783   -0.006761 |
                                       |    0.008861   -0.006761    0.002827 |

  Dip. moment [a.u.]:                  [  -0.000579,    0.001155,   -0.006142]
  Total dipole [Debye]:                                               0.015952
  <r^2> [a.u.]:                        [ 176.120587,   35.653595,   11.868579]
  Total <r^2> [a.u.]:                                               223.642761

  V1^2 = 0.9715, V2^2 = 0.0285

  Important amplitudes:
      occ i     occ j     vir a      vir b          v   
    -----------------------------------------------------
     8 (A) A              9 (A) A                 0.6811
     6 (A) A             14 (A) A                -0.0623
     4 (A) A             10 (A) A                -0.0606
     7 (A) A             16 (A) A                 0.0569
     5 (A) A             13 (A) A                -0.0513
     6 (A) A             23 (A) A                -0.0486
     8 (A) A             20 (A) A                 0.0349
     6 (A) A             19 (A) A                -0.0308
     3 (A) A             12 (A) A                 0.0281
     5 (A) A             22 (A) A                 0.0215
     7 (A) A             11 (A) A                 0.0209
     4 (A) A             24 (A) A                -0.0187
     3 (A) A             26 (A) A                -0.0185
     8 (A) A   8 (A) B   17 (A) A   20 (A) B     -0.0184
     8 (A) A   8 (A) B    9 (A) A   28 (A) B      0.0168
     6 (A) A             26 (A) A                -0.0163
     7 (A) A             21 (A) A                 0.0148
     3 (A) A             14 (A) A                -0.0139
     6 (A) A             12 (A) A                -0.0132
     3 (A) A   4 (A) B    9 (A) A    9 (A) B      0.0129
     3 (A) A             19 (A) A                -0.0119
     8 (A) A   8 (A) B   18 (A) A   19 (A) B      0.0113
     7 (A) A             32 (A) A                 0.0096
     7 (A) A             36 (A) A                 0.0086
     3 (A) A             23 (A) A                -0.0080
     8 (A) A   8 (A) B   25 (A) A   29 (A) B      0.0076
     6 (A) A             35 (A) A                -0.0072
     6 (A) A             40 (A) A                -0.0068
     3 (A) A   6 (A) B    9 (A) A   28 (A) B      0.0065
     6 (A) A   8 (A) A   19 (A) A   28 (A) A      0.0061
     5 (A) A   7 (A) B    9 (A) A    9 (A) B     -0.0060
     5 (A) A   8 (A) B   11 (A) A   20 (A) B     -0.0059
     7 (A) A   8 (A) B   13 (A) A   20 (A) B      0.0059
     5 (A) A   8 (A) B   16 (A) A    9 (A) B     -0.0059
     5 (A) A   8 (A) B   11 (A) A    9 (A) B      0.0059
     3 (A) A   5 (A) B    9 (A) A   25 (A) B     -0.0058
     7 (A) A   8 (A) B   22 (A) A   20 (A) B     -0.0057
     3 (A) A             40 (A) A                -0.0057
     6 (A) A   8 (A) A    9 (A) A   18 (A) A     -0.0057
     8 (A) A   8 (A) B   19 (A) A   30 (A) B      0.0056
    -----------------------------------------------------

  Density matrix analysis:
  ------------------------
  NOs
    Occupation of frontier NOs:
       0.9495   1.0217
    Number of electrons: 16.000000
    Number of unpaired electrons: n_u =  2.31340, n_u,nl =  2.03264
    NO participation ratio (PR_NO):  2.863848
  
  
  Mulliken Population Analysis
  Atom      Charge (e)              h+              e-           Del q
  --------------------------------------------------------------------
   1 H        0.058522        0.020299       -0.012644        0.007655
   2 C       -0.115947        0.490904       -0.505996       -0.015092
   3 H        0.058151        0.020192       -0.012708        0.007484
   4 C       -0.116851        0.490726       -0.506199       -0.015473
   5 H        0.057721        0.020203       -0.012586        0.007616
   6 H        0.058405        0.020347       -0.012537        0.007810
  --------------------------------------------------------------------
  Sum:       -0.000000        1.062671       -1.062671        0.000000
  
  Multipole moment analysis of the density matrix
    Molecular charge:                      0.000000
    Number of electrons:                   16.000000
      Center of electronic charge [Ang]: [ -1.560557,  -0.065641,   0.005931]
    Total nuclear charge:                  16.000000
      Center of nuclear charge [Ang]:    [ -1.560576,  -0.065602,   0.005728]
    Dipole moment [D]:                     0.015952
      Cartesian components [D]:          [ -0.001471,   0.002937,  -0.015610]
    RMS size of the density [Ang]:         1.214275
      Cartesian components [Ang]:        [  0.804416,   0.787206,   0.455726]
  
  Exciton analysis of the difference density matrix
    <r_h> [Ang]:                  [ -1.560304,  -0.065951,   0.008396]
    <r_e> [Ang]:                  [ -1.560231,  -0.065994,   0.008993]
    |<r_e - r_h>| [Ang]:            0.000602
    Hole size [Ang]:                1.285488
      Cartesian components [Ang]: [  0.728510,   0.712712,   0.783450]
    Electron size [Ang]:            1.463422
      Cartesian components [Ang]: [  0.854305,   0.830679,   0.849553]

  Transition density matrix analysis:
  -----------------------------------
  
  CT numbers (Mulliken)
    omega =     0.9535
    <Phe> =    -0.1607
  
  Exciton analysis of the transition density matrix
    Trans. dipole moment [D]:             1.833464
      Cartesian components [D]:         [  1.328037,  -1.264077,   0.004451]
    <r_h> [Ang]:                        [ -1.560134,  -0.066007,   0.007941]
    <r_e> [Ang]:                        [ -1.560269,  -0.066015,   0.009386]
    |<r_e - r_h>| [Ang]:                  0.001452
    Hole size [Ang]:                      1.214149
      Cartesian components [Ang]:       [  0.649638,   0.636405,   0.804437]
    Electron size [Ang]:                  1.486308
      Cartesian components [Ang]:       [  0.864747,   0.839621,   0.869690]
    RMS electron-hole separation [Ang]:   1.936915
      Cartesian components [Ang]:       [  1.106963,   1.075340,   1.170434]
    Covariance(r_h, r_e) [Ang^2]:        -0.034183
    Correlation coefficient:             -0.018942
    Center-of-mass size [Ang]:            0.950645
      Cartesian components [Ang]:       [  0.527794,   0.515653,   0.599384]

  Decomposition into state-averaged NTOs
    H- 0 -> L+ 0:  0.6698 ( 89.7%)
    H- 2 -> L+ 5: -0.0836 (  1.4%)
                   omega =  95.4%
  ----------------------------------------------------------------------------


  Excited state 2 (singlet, A)                                     [converged]
  ----------------------------------------------------------------------------
  Term symbol:  3 (1) A                                     R^2 =  6.06358e-14

  Total energy:                                            -77.9869137691 a.u.
  Excitation energy:                                               9.053166 eV

  Osc. strength:                                                      0.000010
  Trans. dip. moment [a.u.]:           [  -0.004850,    0.000296,   -0.004824]
  <i|r^2|0> [a.u.]:                    [   0.057453,    0.064560,   -0.150260]
  Two-photon absorption cross-section (SoS) [a.u.]:                   4.880135
  Two-photon absorption matrix (SoS) [a.u.]:
                                       |    0.088312    0.060244   -0.535586 |
                                       |    0.060244    0.029617   -0.555215 |
                                       |   -0.535586   -0.555215   -0.117757 |
  Two-photon absorption cross-section [a.u.]:                         0.150235
  Two-photon absorption matrix [a.u.]:
                                       |    0.087881   -0.002857    0.060589 |
                                       |   -0.002857   -0.103976    0.075664 |
                                       |    0.060589    0.075664    0.014657 |

  Dip. moment [a.u.]:                  [  -0.001198,    0.012130,   -0.010717]
  Total dipole [Debye]:                                               0.041254
  <r^2> [a.u.]:                        [ 174.545305,   33.963031,   13.174408]
  Total <r^2> [a.u.]:                                               221.682744

  V1^2 = 0.9542, V2^2 = 0.0458

  Important amplitudes:
      occ i     occ j     vir a      vir b          v   
    -----------------------------------------------------
     7 (A) A              9 (A) A                -0.6692
     8 (A) A             11 (A) A                -0.1479
     7 (A) A             20 (A) A                -0.0759
     5 (A) A   8 (A) B    9 (A) A    9 (A) B      0.0316
     8 (A) A             16 (A) A                 0.0273
     8 (A) A             21 (A) A                -0.0175
     5 (A) A             28 (A) A                -0.0151
     4 (A) A   7 (A) B    9 (A) A   19 (A) B      0.0135
     5 (A) A   7 (A) B    9 (A) A   16 (A) B     -0.0134
     7 (A) A   8 (A) B   20 (A) A   17 (A) B      0.0105
     7 (A) A   8 (A) A    9 (A) A   28 (A) A      0.0098
     5 (A) A   8 (A) B    9 (A) A   20 (A) B      0.0096
     4 (A) A   6 (A) B    9 (A) A   16 (A) B     -0.0091
     5 (A) A   6 (A) A    9 (A) A   23 (A) A      0.0091
     8 (A) A             10 (A) A                 0.0089
     5 (A) A   6 (A) A    9 (A) A   14 (A) A      0.0089
     5 (A) A   6 (A) B    9 (A) A   19 (A) B      0.0087
     8 (A) A   7 (A) B    9 (A) A   28 (A) B     -0.0085
     4 (A) A   5 (A) A    9 (A) A   10 (A) A     -0.0085
     6 (A) A   7 (A) B    9 (A) A   18 (A) B      0.0083
     5 (A) A   6 (A) B    9 (A) A   23 (A) B      0.0080
     3 (A) A   7 (A) B    9 (A) A   18 (A) B     -0.0080
     5 (A) A   7 (A) A    9 (A) A   16 (A) A     -0.0079
     4 (A) A   8 (A) B    9 (A) A   25 (A) B     -0.0076
     7 (A) A   8 (A) B   17 (A) A   20 (A) B      0.0074
     4 (A) A   7 (A) B   19 (A) A    9 (A) B      0.0074
     5 (A) A   5 (A) B    9 (A) A   13 (A) B      0.0072
     7 (A) A   8 (A) B   19 (A) A   18 (A) B     -0.0072
     5 (A) A   8 (A) A    9 (A) A   20 (A) A      0.0069
     4 (A) A   5 (A) B    9 (A) A   18 (A) B      0.0068
     7 (A) A   7 (A) B   20 (A) A   22 (A) B      0.0065
     7 (A) A   8 (A) B   17 (A) A    9 (A) B      0.0065
     5 (A) A   6 (A) B    9 (A) A   14 (A) B      0.0063
     4 (A) A   7 (A) A    9 (A) A   19 (A) A      0.0061
     4 (A) A   5 (A) B   10 (A) A    9 (A) B      0.0061
     5 (A) A   7 (A) B   11 (A) A   20 (A) B      0.0060
     4 (A) A   7 (A) B    9 (A) A   14 (A) B     -0.0060
     5 (A) A             38 (A) A                 0.0060
     6 (A) A   7 (A) A   19 (A) A   28 (A) A     -0.0057
     4 (A) A   8 (A) A    9 (A) A   25 (A) A     -0.0057
    -----------------------------------------------------

  Density matrix analysis:
  ------------------------
  NOs
    Occupation of frontier NOs:
       0.9581   1.0537
    Number of electrons: 16.000000
    Number of unpaired electrons: n_u =  2.35532, n_u,nl =  2.06271
    NO participation ratio (PR_NO):  3.026966
  
  
  Mulliken Population Analysis
  Atom      Charge (e)              h+              e-           Del q
  --------------------------------------------------------------------
   1 H        0.148825        0.120769       -0.022811        0.097958
   2 C       -0.301982        0.270967       -0.472094       -0.201127
   3 H        0.152400        0.127957       -0.026224        0.101733
   4 C       -0.302547        0.273061       -0.474229       -0.201168
   5 H        0.155402        0.128289       -0.022992        0.105296
   6 H        0.147902        0.123006       -0.025698        0.097308
  --------------------------------------------------------------------
  Sum:       -0.000000        1.044049       -1.044049        0.000000
  
  Multipole moment analysis of the density matrix
    Molecular charge:                      -0.000000
    Number of electrons:                   16.000000
      Center of electronic charge [Ang]: [ -1.560537,  -0.066004,   0.006083]
    Total nuclear charge:                  16.000000
      Center of nuclear charge [Ang]:    [ -1.560576,  -0.065602,   0.005728]
    Dipole moment [D]:                     0.041254
      Cartesian components [D]:          [ -0.003045,   0.030832,  -0.027240]
    RMS size of the density [Ang]:         1.200073
      Cartesian components [Ang]:        [  0.787134,   0.768152,   0.480144]
  
  Exciton analysis of the difference density matrix
    <r_h> [Ang]:                  [ -1.565459,  -0.063848,   0.005007]
    <r_e> [Ang]:                  [ -1.565071,  -0.069455,   0.007934]
    |<r_e - r_h>| [Ang]:            0.006336
    Hole size [Ang]:                1.486313
      Cartesian components [Ang]: [  0.997370,   1.003963,   0.454356]
    Electron size [Ang]:            1.476986
      Cartesian components [Ang]: [  0.880840,   0.859700,   0.816409]

  Transition density matrix analysis:
  -----------------------------------
  
  CT numbers (Mulliken)
    omega =     0.9218
    <Phe> =    -0.0122
  
  Exciton analysis of the transition density matrix
    Trans. dipole moment [D]:             0.008702
      Cartesian components [D]:         [ -0.006164,   0.000376,  -0.006131]
    <r_h> [Ang]:                        [ -1.566056,  -0.063251,   0.004295]
    <r_e> [Ang]:                        [ -1.564812,  -0.070162,   0.008667]
    |<r_e - r_h>| [Ang]:                  0.008272
    Hole size [Ang]:                      1.514980
      Cartesian components [Ang]:       [  1.019796,   1.028633,   0.443953]
    Electron size [Ang]:                  1.474052
      Cartesian components [Ang]:       [  0.871452,   0.848996,   0.832231]
    RMS electron-hole separation [Ang]:   2.093959
      Cartesian components [Ang]:       [  1.325560,   1.318799,   0.942510]
    Covariance(r_h, r_e) [Ang^2]:         0.041700
    Correlation coefficient:              0.018673
    Center-of-mass size [Ang]:            1.066700
      Cartesian components [Ang]:       [  0.678549,   0.674273,   0.471990]

  Decomposition into state-averaged NTOs
    H- 1 -> L+ 0: -0.6616 ( 87.5%)
    H- 0 -> L+ 2: -0.1479 (  4.4%)
                   omega =  92.2%
  ----------------------------------------------------------------------------


  Excited state 3 (singlet, A)                                     [converged]
  ----------------------------------------------------------------------------
  Term symbol:  4 (1) A                                     R^2 =  1.90736e-13

  Total energy:                                            -77.9825805044 a.u.
  Excitation energy:                                               9.171081 eV

  Osc. strength:                                                      0.025326
  Trans. dip. moment [a.u.]:           [  -0.000916,   -0.034072,    0.334000]
  <i|r^2|0> [a.u.]:                    [  -0.009564,   -0.010036,   -0.007051]
  Two-photon absorption cross-section (SoS) [a.u.]:                   0.019332
  Two-photon absorption matrix (SoS) [a.u.]:
                                       |   -0.005093   -0.001147    0.011806 |
                                       |   -0.001147    0.015726    0.007474 |
                                       |    0.011806    0.007474    0.048921 |
  Two-photon absorption cross-section [a.u.]:                         0.022096
  Two-photon absorption matrix [a.u.]:
                                       |    0.014011   -0.007818    0.017266 |
                                       |   -0.007818    0.027938    0.007917 |
                                       |    0.017266    0.007917    0.031601 |

  Dip. moment [a.u.]:                  [   0.007310,    0.017342,    0.008137]
  Total dipole [Debye]:                                               0.052113
  <r^2> [a.u.]:                        [ 180.898522,   40.613494,   11.029682]
  Total <r^2> [a.u.]:                                               232.541698

  V1^2 = 0.9587, V2^2 = 0.0413

  Important amplitudes:
      occ i     occ j     vir a      vir b          v   
    -----------------------------------------------------
     8 (A) A             10 (A) A                -0.6890
     8 (A) A             24 (A) A                -0.0507
     8 (A) A             18 (A) A                 0.0312
     4 (A) A              9 (A) A                 0.0237
     8 (A) A   8 (A) B    9 (A) A   12 (A) B     -0.0219
     8 (A) A   8 (A) B   10 (A) A   17 (A) B     -0.0173
     8 (A) A             15 (A) A                -0.0169
     5 (A) A   8 (A) B   11 (A) A   10 (A) B     -0.0165
     7 (A) A   8 (A) B   13 (A) A   10 (A) B      0.0141
     4 (A) A   8 (A) B   12 (A) A   10 (A) B      0.0111
     6 (A) A   8 (A) A   10 (A) A   15 (A) A      0.0110
     7 (A) A   8 (A) B   22 (A) A   10 (A) B     -0.0108
     6 (A) A   8 (A) B   15 (A) A   10 (A) B     -0.0108
     4 (A) A   8 (A) A   10 (A) A   12 (A) A     -0.0106
     7 (A) A   8 (A) A   10 (A) A   22 (A) A      0.0099
     7 (A) A   8 (A) A   10 (A) A   13 (A) A     -0.0097
     5 (A) A   8 (A) B   21 (A) A   10 (A) B     -0.0094
     5 (A) A   8 (A) A   10 (A) A   11 (A) A      0.0094
     7 (A) A              9 (A) A                -0.0092
     6 (A) A   8 (A) A   10 (A) A   18 (A) A      0.0088
     6 (A) A   8 (A) B   10 (A) A   10 (A) B      0.0087
     7 (A) A   8 (A) A   12 (A) A   16 (A) A     -0.0082
     5 (A) A   8 (A) A   10 (A) A   21 (A) A      0.0080
     3 (A) A   4 (A) B   10 (A) A    9 (A) B     -0.0079
     4 (A) A   8 (A) B   19 (A) A   10 (A) B     -0.0075
     8 (A) A   8 (A) B    9 (A) A   23 (A) B     -0.0075
     8 (A) A   8 (A) B   10 (A) A   28 (A) B     -0.0073
     3 (A) A   8 (A) B   10 (A) A   10 (A) B     -0.0072
     5 (A) A   8 (A) B   10 (A) A   11 (A) B     -0.0071
     3 (A) A   8 (A) A   10 (A) A   24 (A) A      0.0071
     7 (A) A   8 (A) B   16 (A) A   12 (A) B      0.0070
     3 (A) A   8 (A) B   10 (A) A   18 (A) B      0.0069
     8 (A) A   8 (A) B    9 (A) A   19 (A) B      0.0068
     6 (A) A   8 (A) B   18 (A) A   10 (A) B     -0.0067
     3 (A) A   6 (A) B   10 (A) A   28 (A) B     -0.0062
     7 (A) A   8 (A) B   12 (A) A   11 (A) B     -0.0058
     6 (A) A             28 (A) A                 0.0057
     3 (A) A   5 (A) B   10 (A) A   25 (A) B      0.0056
     5 (A) A   8 (A) A   10 (A) A   16 (A) A     -0.0056
     3 (A) A   8 (A) A   10 (A) A   18 (A) A      0.0056
    -----------------------------------------------------

  Density matrix analysis:
  ------------------------
  NOs
    Occupation of frontier NOs:
       0.9816   0.9849
    Number of electrons: 16.000000
    Number of unpaired electrons: n_u =  2.28558, n_u,nl =  2.02447
    NO participation ratio (PR_NO):  2.692646
  
  
  Mulliken Population Analysis
  Atom      Charge (e)              h+              e-           Del q
  --------------------------------------------------------------------
   1 H       -0.161561        0.053947       -0.266376       -0.212428
   2 C        0.327410        0.538676       -0.110410        0.428265
   3 H       -0.166775        0.053710       -0.271152       -0.217442
   4 C        0.326655        0.537456       -0.109422        0.428034
   5 H       -0.161656        0.054043       -0.265804       -0.211761
   6 H       -0.164073        0.053805       -0.268473       -0.214668
  --------------------------------------------------------------------
  Sum:       -0.000000        1.291638       -1.291638        0.000000
  
  Multipole moment analysis of the density matrix
    Molecular charge:                      0.000000
    Number of electrons:                   16.000000
      Center of electronic charge [Ang]: [ -1.560818,  -0.066176,   0.005459]
    Total nuclear charge:                  16.000000
      Center of nuclear charge [Ang]:    [ -1.560576,  -0.065602,   0.005728]
    Dipole moment [D]:                     0.052113
      Cartesian components [D]:          [  0.018580,   0.044078,   0.020681]
    RMS size of the density [Ang]:         1.276453
      Cartesian components [Ang]:        [  0.854338,   0.840493,   0.439328]
  
  Exciton analysis of the difference density matrix
    <r_h> [Ang]:                  [ -1.560156,  -0.066146,   0.007265]
    <r_e> [Ang]:                  [ -1.563328,  -0.072813,   0.001906]
    |<r_e - r_h>| [Ang]:            0.009123
    Hole size [Ang]:                1.410266
      Cartesian components [Ang]: [  0.833928,   0.819925,   0.788121]
    Electron size [Ang]:            2.075960
      Cartesian components [Ang]: [  1.372959,   1.377121,   0.726725]

  Transition density matrix analysis:
  -----------------------------------
  
  CT numbers (Mulliken)
    omega =     0.9259
    <Phe> =    -0.0109
  
  Exciton analysis of the transition density matrix
    Trans. dipole moment [D]:             0.426676
      Cartesian components [D]:         [ -0.001164,  -0.043302,   0.424471]
    <r_h> [Ang]:                        [ -1.559610,  -0.065628,   0.008686]
    <r_e> [Ang]:                        [ -1.564137,  -0.075240,   0.000449]
    |<r_e - r_h>| [Ang]:                  0.013444
    Hole size [Ang]:                      1.212994
      Cartesian components [Ang]:       [  0.636408,   0.623767,   0.822955]
    Electron size [Ang]:                  2.296158
      Cartesian components [Ang]:       [  1.517374,   1.524603,   0.803430]
    RMS electron-hole separation [Ang]:   2.586995
      Cartesian components [Ang]:       [  1.637951,   1.640309,   1.148497]
    Covariance(r_h, r_e) [Ang^2]:         0.025667
    Correlation coefficient:              0.009215
    Center-of-mass size [Ang]:            1.303364
      Cartesian components [Ang]:       [  0.826441,   0.827115,   0.575876]

  Decomposition into state-averaged NTOs
    H- 0 -> L+ 1:  0.6797 ( 92.4%)
                   omega =  92.6%
  ----------------------------------------------------------------------------


  Excited state 4 (singlet, A)                                     [converged]
  ----------------------------------------------------------------------------
  Term symbol:  5 (1) A                                     R^2 =  1.18957e-13

  Total energy:                                            -77.9582418575 a.u.
  Excitation energy:                                               9.833369 eV

  Osc. strength:                                                      0.000003
  Trans. dip. moment [a.u.]:           [  -0.001474,    0.001035,   -0.002923]
  <i|r^2|0> [a.u.]:                    [  -0.030391,   -0.014624,    0.036457]
  Two-photon absorption cross-section (SoS) [a.u.]:                 149.735152
  Two-photon absorption matrix (SoS) [a.u.]:
                                       |   -0.421050   -0.329517    3.005776 |
                                       |   -0.329517   -0.232996    3.040831 |
                                       |    3.005776    3.040831    0.649897 |
  Two-photon absorption cross-section [a.u.]:                        92.104998
  Two-photon absorption matrix [a.u.]:
                                       |   -0.400566   -0.262219    2.344092 |
                                       |   -0.262219   -0.114944    2.394339 |
                                       |    2.344092    2.394339    0.509704 |

  Dip. moment [a.u.]:                  [  -0.023232,   -0.017731,    0.005178]
  Total dipole [Debye]:                                               0.075440
  <r^2> [a.u.]:                        [ 181.153210,   40.541802,   10.765533]
  Total <r^2> [a.u.]:                                               232.460545

  V1^2 = 0.9635, V2^2 = 0.0365

  Important amplitudes:
      occ i     occ j     vir a      vir b          v   
    -----------------------------------------------------
     8 (A) A             11 (A) A                 0.6697
     7 (A) A              9 (A) A                -0.1499
     8 (A) A             21 (A) A                 0.0781
     8 (A) A             16 (A) A                -0.0646
     8 (A) A   8 (A) B    9 (A) A   13 (A) B     -0.0167
     5 (A) A   8 (A) B   11 (A) A   11 (A) B      0.0155
     8 (A) A   8 (A) B   11 (A) A   17 (A) B      0.0140
     7 (A) A             20 (A) A                -0.0137
     7 (A) A   8 (A) B   13 (A) A   11 (A) B     -0.0127
     8 (A) A             12 (A) A                 0.0115
     5 (A) A   8 (A) A   11 (A) A   21 (A) A     -0.0110
     4 (A) A   8 (A) B   12 (A) A   11 (A) B     -0.0110
     8 (A) A   8 (A) B    9 (A) A   22 (A) B      0.0107
     7 (A) A   8 (A) A   11 (A) A   22 (A) A     -0.0096
     6 (A) A   8 (A) B   15 (A) A   11 (A) B      0.0090
     6 (A) A   8 (A) B   10 (A) A   11 (A) B     -0.0090
     7 (A) A   8 (A) B   22 (A) A   11 (A) B      0.0089
     3 (A) A   4 (A) B   11 (A) A    9 (A) B      0.0083
     6 (A) A              9 (A) A                 0.0082
     3 (A) A   8 (A) B   11 (A) A   18 (A) B     -0.0081
     6 (A) A   8 (A) A   11 (A) A   15 (A) A     -0.0080
     7 (A) A   8 (A) A   13 (A) A   16 (A) A     -0.0078
     7 (A) A   8 (A) A   11 (A) A   13 (A) A      0.0077
     5 (A) A   8 (A) B   21 (A) A   11 (A) B      0.0071
     4 (A) A   8 (A) B   19 (A) A   11 (A) B      0.0070
     5 (A) A   8 (A) B    9 (A) A    9 (A) B      0.0067
     4 (A) A   8 (A) A   11 (A) A   12 (A) A      0.0062
     6 (A) A   8 (A) A   11 (A) A   18 (A) A     -0.0062
     3 (A) A   6 (A) B   11 (A) A   28 (A) B      0.0060
     6 (A) A   8 (A) B   18 (A) A   11 (A) B      0.0060
     7 (A) A   8 (A) B   16 (A) A   13 (A) B      0.0057
     3 (A) A   8 (A) A   11 (A) A   18 (A) A     -0.0056
     5 (A) A   8 (A) B   10 (A) A   10 (A) B      0.0056
     3 (A) A   8 (A) B   11 (A) A   30 (A) B     -0.0055
     3 (A) A   5 (A) B   11 (A) A   25 (A) B     -0.0054
     6 (A) A   8 (A) B   11 (A) A   10 (A) B     -0.0054
     7 (A) A   8 (A) B   12 (A) A   10 (A) B      0.0054
     8 (A) A   8 (A) B   20 (A) A   22 (A) B      0.0053
     3 (A) A   8 (A) A   11 (A) A   24 (A) A     -0.0053
     5 (A) A   8 (A) A   11 (A) A   16 (A) A      0.0048
    -----------------------------------------------------

  Density matrix analysis:
  ------------------------
  NOs
    Occupation of frontier NOs:
       0.9409   1.0276
    Number of electrons: 16.000000
    Number of unpaired electrons: n_u =  2.31914, n_u,nl =  2.04898
    NO participation ratio (PR_NO):  2.913382
  
  
  Mulliken Population Analysis
  Atom      Charge (e)              h+              e-           Del q
  --------------------------------------------------------------------
   1 H       -0.148410        0.045707       -0.244985       -0.199277
   2 C        0.274951        0.497281       -0.121475        0.375806
   3 H       -0.126887        0.046964       -0.224518       -0.177554
   4 C        0.273344        0.496900       -0.122177        0.374723
   5 H       -0.133401        0.047112       -0.230618       -0.183506
   6 H       -0.139597        0.045735       -0.235927       -0.190192
  --------------------------------------------------------------------
  Sum:       -0.000000        1.179699       -1.179699        0.000000
  
  Multipole moment analysis of the density matrix
    Molecular charge:                      0.000000
    Number of electrons:                   16.000000
      Center of electronic charge [Ang]: [ -1.559808,  -0.065016,   0.005557]
    Total nuclear charge:                  16.000000
      Center of nuclear charge [Ang]:    [ -1.560576,  -0.065602,   0.005728]
    Dipole moment [D]:                     0.075440
      Cartesian components [D]:          [ -0.059050,  -0.045067,   0.013162]
    RMS size of the density [Ang]:         1.277190
      Cartesian components [Ang]:        [  0.858780,   0.839837,   0.434034]
  
  Exciton analysis of the difference density matrix
    <r_h> [Ang]:                  [ -1.559830,  -0.065262,   0.007560]
    <r_e> [Ang]:                  [ -1.549603,  -0.056829,   0.003020]
    |<r_e - r_h>| [Ang]:            0.014012
    Hole size [Ang]:                1.394777
      Cartesian components [Ang]: [  0.817924,   0.807106,   0.790559]
    Electron size [Ang]:            2.124099
      Cartesian components [Ang]: [  1.440334,   1.405984,   0.678560]

  Transition density matrix analysis:
  -----------------------------------
  
  CT numbers (Mulliken)
    omega =     0.9298
    <Phe> =    -0.0135
  
  Exciton analysis of the transition density matrix
    Trans. dipole moment [D]:             0.004363
      Cartesian components [D]:         [ -0.001873,   0.001315,  -0.003715]
    <r_h> [Ang]:                        [ -1.560487,  -0.065826,   0.008435]
    <r_e> [Ang]:                        [ -1.547658,  -0.055045,   0.002435]
    |<r_e - r_h>| [Ang]:                  0.017800
    Hole size [Ang]:                      1.227873
      Cartesian components [Ang]:       [  0.657410,   0.650529,   0.807648]
    Electron size [Ang]:                  2.262269
      Cartesian components [Ang]:       [  1.534573,   1.497757,   0.720884]
    RMS electron-hole separation [Ang]:   2.563387
      Cartesian components [Ang]:       [  1.660961,   1.625170,   1.082120]
    Covariance(r_h, r_e) [Ang^2]:         0.027448
    Correlation coefficient:              0.009881
    Center-of-mass size [Ang]:            1.292327
      Cartesian components [Ang]:       [  0.838984,   0.820345,   0.541524]

  Decomposition into state-averaged NTOs
    H- 0 -> L+ 2:  0.6651 ( 88.5%)
    H- 1 -> L+ 0: -0.1479 (  4.4%)
                   omega =  93.0%
  ----------------------------------------------------------------------------


  Excited state 5 (singlet, A)                                     [converged]
  ----------------------------------------------------------------------------
  Term symbol:  6 (1) A                                     R^2 =  3.73792e-13

  Total energy:                                            -77.9443244835 a.u.
  Excitation energy:                                              10.212080 eV

  Osc. strength:                                                      0.000000
  Trans. dip. moment [a.u.]:           [   0.000049,   -0.000191,   -0.000300]
  <i|r^2|0> [a.u.]:                    [  -0.093896,    0.097939,   -0.010690]
  Two-photon absorption cross-section (SoS) [a.u.]:                 178.259896
  Two-photon absorption matrix (SoS) [a.u.]:
                                       |   -0.427856    0.021596    3.349996 |
                                       |    0.021596    0.284512   -3.304103 |
                                       |    3.349996   -3.304103   -0.048989 |
  Two-photon absorption cross-section [a.u.]:                        79.933158
  Two-photon absorption matrix [a.u.]:
                                       |   -0.346200   -0.022463    2.220270 |
                                       |   -0.022463    0.127044   -2.231326 |
[...]
    16   -1.081691626399e-03
    17   -2.133602943159e-03
    18   -2.119282322335e-04
    19   -3.324362165465e-03
    20    1.088530188993e-02
    21    9.358153554378e-01
    22   -2.608485567951e-04
    23    1.396537122392e-02
    24    1.025520173454e-03
    25    7.025013516041e-02
    26   -5.226605255317e-02
    27   -1.398874523808e+00
    28    9.822351478116e-02
    29   -9.233465903320e-02
    30   -3.434366201070e-03
    31    3.862969224631e-01
    32   -3.611754034024e-01
    33   -1.373946328033e-02
    34    1.563231981598e-02
    35   -1.271610469957e-03
    36   -1.976108710984e-03
    37   -6.734212485902e-05
    38   -3.134680828699e-03
    39    9.729312458897e-03
    40    9.302302052150e-01
    41    2.503527471511e-04
    42   -1.389948371209e-02
    43   -9.205881394262e-04
    44    1.019540869222e-02
    45    9.416367301048e-01
    46    1.415059811316e-02
    47    3.854283062689e-04
    48    5.911908902236e-04
Sym=X
Ene= 0.232960
Spin=Alpha
Occup=0
     1    2.606570362189e-02
     2    1.235126442418e+00
     3   -1.434226206290e-02
     4   -3.844495991860e-03
     5   -8.180957040427e-04
     6    3.076898934289e-03
     7   -3.530198324829e-03
     8   -4.946199975750e-02
     9   -1.548535351390e-01
    10   -1.586301994374e-01
    11   -1.651572102505e-02
    12   -5.575116061365e-01
    13   -5.570513760191e-01
    14   -5.859767472960e-02
    15    6.079746335089e-04
    16    3.347523328788e-04
    17    3.389845887451e-04
    18   -2.030454911032e-04
    19   -4.044417821426e-04
    20   -2.520120030317e-02
    21   -1.158974256989e+00
    22   -2.473280215249e-03
    23   -1.354610756132e-02
    24   -9.813287456134e-04
    25   -2.563627292534e-03
    26    3.133840892729e-03
    27    3.529112730780e-02
    28   -1.536518633911e-01
    29   -1.593182276534e-01
    30   -1.688785696914e-02
    31   -5.475873460104e-01
    32   -5.560424185682e-01
    33   -5.968634074658e-02
    34   -4.480205004772e-04
    35   -1.781460964237e-04
    36   -2.511599840733e-04
    37    3.767431648935e-04
    38    3.326621571471e-04
    39    2.509201179568e-02
    40    1.161306531241e+00
    41   -2.458111147899e-03
    42   -1.368407559954e-02
    43   -9.905281691950e-04
    44   -2.621948849360e-02
    45   -1.219620122291e+00
    46   -1.417629058371e-02
    47   -3.764793374713e-03
    48   -8.472935006657e-04
Sym=X
Ene= 0.239405
Spin=Alpha
Occup=0
     1   -1.600946610756e-02
     2   -1.053165021347e+00
     3    1.657090986491e-02
     4    9.110525390957e-03
     5    1.063442254525e-03
     6   -8.649679061916e-02
     7    7.971747162011e-02
     8    1.592863974567e+00
     9    5.339370067452e-02
    10   -6.039167469274e-02
    11   -4.588807554270e-03
    12    2.123069935375e-01
    13   -2.343179343789e-01
    14   -1.706237753506e-02
    15   -2.253494465279e-02
    16    2.449971038067e-03
    17    3.140819372418e-03
    18   -4.493249667925e-04
    19    1.286622683418e-02
    20   -1.695858962097e-02
    21   -1.122634074708e+00
    22   -8.533644445784e-03
    23   -1.770405587351e-02
    24   -1.715368271402e-03
    25    8.643927878984e-02
    26   -7.929849660220e-02
    27   -1.596339499735e+00
    28    5.352960051751e-02
    29   -6.106343694720e-02
    30   -5.130664277823e-04
    31    2.113185340519e-01
    32   -2.407966598605e-01
    33   -2.855896473783e-04
    34    2.260985680272e-02
    35   -2.831301883289e-03
    36   -2.796278588778e-03
    37    7.379222188824e-04
    38   -1.278797951309e-02
    39    1.685735946873e-02
    40    1.129729699225e+00
    41   -8.618955037656e-03
    42   -1.789038951606e-02
    43   -1.459894850100e-03
    44    1.561154720432e-02
    45    1.049858580493e+00
    46    1.644324256590e-02
    47    9.271176844479e-03
    48    1.350216253990e-03
Sym=X
Ene= 0.303262
Spin=Alpha
Occup=0
     1   -2.090510060452e-02
     2    1.692419672203e+00
     3   -2.291722155092e-02
     4    2.555001246805e-04
     5   -1.043814278564e-03
     6   -2.211686966013e-04
     7    2.087810361979e-04
     8    1.869249168127e-05
     9   -1.339341487377e-01
    10   -1.395826590731e-01
    11   -1.457172889184e-02
    12   -1.144467787680e+00
    13   -1.193213823745e+00
    14   -1.248859512667e-01
    15    1.113212413825e-05
    16   -1.079856984351e-03
    17    2.435895425405e-03
    18   -3.263440789736e-02
    19   -1.697974111449e-03
    20    1.976009212974e-02
    21   -1.688292457500e+00
    22    1.448040027341e-03
    23   -2.289960687932e-02
    24   -1.311602469923e-03
    25    9.903670463060e-05
    26    2.762835960325e-04
    27   -9.856934274139e-03
    28    1.347426819077e-01
    29    1.402189605435e-01
    30    1.477284904282e-02
    31    1.139478268867e+00
    32    1.197818534927e+00
    33    1.252893354221e-01
    34    4.409274550494e-05
    35   -1.788260076860e-03
    36    1.695680360977e-03
    37   -3.251090925814e-02
    38   -1.704606047567e-03
    39    1.954592140639e-02
    40   -1.691582022987e+00
    41   -1.621817549824e-03
    42    2.283936488136e-02
    43    1.101517739624e-03
    44   -2.020321146207e-02
    45    1.698951845566e+00
    46    2.304272527642e-02
    47   -3.576766682013e-04
    48    1.258571047493e-03
Sym=X
Ene= 0.462041
Spin=Alpha
Occup=0
     1   -1.148640825488e-01
     2   -7.168221243608e-01
     3   -1.563391639435e-02
     4   -1.038231881466e-02
     5   -1.469188598948e-03
     6    6.081585563350e-02
     7    1.737847824012e-02
     8   -3.592509649674e+00
     9    1.031722230083e-01
    10   -9.884122536953e-02
    11   -5.035837826881e-03
    12    2.427142398150e+00
    13   -2.301986664040e+00
    14   -5.034973545649e-03
    15    5.364157543154e-02
    16   -3.622801054687e-03
    17   -4.404345628302e-03
    18   -6.797111477200e-04
    19    1.803677185065e-02
    20   -1.217260893396e-01
    21   -6.995935781800e-01
    22    8.645693659142e-03
    23    1.640779899887e-02
    24    1.254801046068e-03
    25   -6.094651279521e-02
    26   -1.625442873845e-02
    27    3.591606664851e+00
    28    1.052259033103e-01
    29   -1.003266882007e-01
    30   -2.521596977725e-03
    31    2.422457950990e+00
    32   -2.299025485490e+00
    33    6.182120782010e-03
    34   -5.272224289172e-02
    35    3.271611092966e-03
    36    4.521694966842e-03
    37    6.173590919979e-04
    38   -1.903817327956e-02
    39    1.156402982455e-01
    40    7.085876824907e-01
    41    8.527586972987e-03
    42    1.628193535861e-02
    43    1.356201228028e-03
    44    1.104219183476e-01
    45    7.186113443569e-01
    46   -1.542797423197e-02
    47   -9.996242821265e-03
    48   -1.347849196000e-03
Sym=X
Ene= 0.577501
Spin=Alpha
Occup=0
     1    2.465872198014e-01
     2    4.259692868160e-02
     3   -1.846935046295e-02
     4    2.562506839999e-02
     5    8.264163268301e-04
     6   -4.472142989849e-03
     7   -1.572593089873e-01
     8   -4.655994908221e-01
     9    2.985016556654e-01
    10   -2.882537563193e-01
    11   -1.443756532726e-04
    12   -7.202393983344e-01
    13    6.961369766127e-01
    14    9.766112516543e-03
    15   -5.861243474184e-03
    16    3.804585448022e-03
    17    3.824359062293e-03
    18   -4.585573553305e-03
    19    6.021604404808e-02
    20    2.555642911977e-01
    21    2.763641868768e-02
    22   -2.649991972668e-02
    23    1.647578524660e-02
    24   -1.062219024645e-04
    25   -5.631258765261e-03
    26   -1.579532734319e-01
    27   -4.098335685698e-01
    28   -2.971645869398e-01
    29    2.855426084087e-01
    30    2.296704085364e-04
    31    7.620990906606e-01
    32   -7.333419343948e-01
    33   -6.954280824357e-03
    34   -5.845893595839e-03
    35    3.831261047086e-03
    36    3.769131713953e-03
    37   -4.047923720584e-03
    38    6.016292392897e-02
    39    2.511973501899e-01
    40    4.910741138404e-02
    41    2.722573241590e-02
    42   -1.695992210472e-02
    43    3.454675430294e-04
    44    2.485335483985e-01
    45    5.687136215058e-02
    46    1.849029708794e-02
    47   -2.585501009832e-02
    48   -6.049082071489e-04
Sym=X
Ene= 0.615142
Spin=Alpha
Occup=0
     1   -5.225344970296e-01
     2    1.983529217768e-01
     3   -6.140988211350e-02
     4    3.751437354867e-02
     5   -3.232825704403e-04
     6   -6.565438085866e-04
     7   -2.625852795418e-04
     8   -1.885615359682e-02
     9   -4.066319251459e-02
    10   -3.827632366544e-02
    11   -4.378506610080e-03
    12    3.087364154720e-01
    13    2.753884565343e-01
    14    3.082214291568e-02
    15    2.242327175220e-03
    16   -6.037450921089e-03
    17    9.848803660518e-03
    18   -1.479943541007e-01
    19   -6.419813973628e-03
    20    5.080278124039e-01
    21   -2.072410811697e-01
    22    4.186272555991e-02
    23   -5.839899418808e-02
    24   -1.879070736386e-03
    25    4.777992594097e-04
    26   -1.087830922455e-03
    27    2.877038613266e-02
    28   -4.017173414304e-02
    29   -4.004976206291e-02
    30   -4.334357638012e-03
    31    3.070276123546e-01
    32    2.864692574274e-01
    33    3.218185973975e-02
    34   -1.640328828352e-03
    35    7.910772436597e-03
    36   -8.031474096923e-03
    37    1.491190824758e-01
    38    6.263683639078e-03
    39   -5.138650068602e-01
    40    2.078482080378e-01
    41    4.099155843081e-02
    42   -5.851074840222e-02
    43   -1.276236535728e-03
    44    5.227339379809e-01
    45   -2.034453564848e-01
    46   -6.154923086075e-02
    47    3.753653642747e-02
    48   -9.240876587373e-04
Sym=X
Ene= 0.689156
Spin=Alpha
Occup=0
     1    1.623905637685e-03
     2    9.726764157789e-03
     3   -4.961509056377e-04
     4    1.478572150560e-03
     5   -2.116253739138e-02
     6    8.333243128900e-05
     7   -6.174227088403e-03
     8    9.721791305364e-03
     9    3.303136350352e-02
    10    3.841393794998e-02
    11   -6.702827376598e-01
    12   -4.436805935795e-02
    13   -2.164853151963e-02
    14    6.136085319346e-01
    15    1.330656192052e-03
    16    8.256514635725e-02
    17   -7.846303279800e-02
    18   -8.677748830853e-03
    19    1.666700462130e-04
    20    1.591998542995e-03
    21    9.439611018433e-03
    22    6.462157861562e-04
    23    2.690596154514e-03
    24   -2.071394978790e-02
    25   -3.978720191324e-04
    26   -1.421766971273e-03
    27   -5.372569846215e-03
    28    3.206921426518e-02
    29    3.976142722046e-02
    30   -6.701208988860e-01
    31   -4.360965317133e-02
    32   -2.305167338612e-02
    33    6.132931978242e-01
    34    1.019210935251e-03
    35   -8.290314003451e-02
    36    7.829454849929e-02
    37    8.623364795521e-03
    38   -1.053498103491e-03
    39   -6.462046055864e-03
    40   -5.240651254819e-03
    41    2.814841061665e-04
    42    7.935301152662e-04
    43   -2.113219624356e-02
    44   -6.655042433050e-03
    45   -5.015825128426e-03
    46    1.461240418680e-03
    47    2.018905691706e-03
    48   -2.098026172106e-02
Sym=X
Ene= 0.708946
Spin=Alpha
Occup=0
     1   -4.753954243331e-01
     2    1.568259469023e-01
     3   -8.074647550064e-02
     4   -4.419149339007e-02
     5   -6.872646655335e-03
     6   -4.777975030894e-02
     7   -3.198031332280e-01
     8    5.086877681577e-01
     9    2.030980132775e-01
    10   -1.929922484436e-01
    11    3.459677262801e-03
    12   -9.589699191383e-02
    13    8.261057771638e-02
    14   -1.566305675623e-02
    15    1.940052013704e-01
    16   -2.107274758758e-02
    17   -2.335173786079e-02
    18    3.134211371269e-03
    19   -7.747269219905e-02
    20   -4.785493970952e-01
    21    1.513989035880e-01
    22    4.107609799704e-02
    23    8.162641531239e-02
    24    6.354433643445e-03
    25   -4.674659730017e-02
    26   -3.209955597465e-01
    27    4.635633768983e-01
    28   -2.045551510817e-01
    29    1.912647209292e-01
    30    4.744310750204e-03
    31    6.600939911467e-02
    32   -5.103611532896e-02
    33    5.554558242671e-03
    34    1.936936179104e-01
    35   -2.136451476171e-02
    36   -2.297559995468e-02
    37    2.522189953731e-03
    38   -7.557092740229e-02
    39   -4.729409818834e-01
    40    1.348228431855e-01
    41   -4.067359657621e-02
    42   -8.102530668339e-02
    43   -5.968894526889e-03
    44   -4.740505714796e-01
    45    1.470259465217e-01
    46    8.053512782363e-02
    47    4.400520033098e-02
    48    7.252434987540e-03
Sym=X
Ene= 0.784570
Spin=Alpha
Occup=0
     1    5.256200815626e-01
     2   -4.660324207022e-01
     3    1.099885963448e-01
     4    2.598941122575e-02
     5    6.751607138304e-03
     6    9.095933835133e-02
     7   -2.159694753857e-01
     8   -6.419399972118e-01
     9    1.118060808694e-01
    10   -1.043916581604e-01
    11   -6.129030235225e-03
    12    3.145964409736e-01
    13   -2.966090199717e-01
    14    1.543051762909e-02
    15   -2.062939347316e-01
    16    1.598859117947e-02
    17    2.325777189274e-02
    18   -1.341269440236e-03
    19    9.264417828734e-03
    20    5.373118423478e-01
    21   -4.717908709025e-01
    22   -2.034734909774e-02
    23   -1.126026625322e-01
    24   -7.652355422689e-03
    25   -9.135883642454e-02
    26    2.129130303716e-01
    27    6.565961430021e-01
    28    1.111791919021e-01
    29   -1.059838281720e-01
    30    1.022720482800e-02
    31    3.111846885816e-01
    32   -2.869420719284e-01
    33   -1.641062000906e-02
    34    2.076283624516e-01
    35   -1.853340931241e-02
    36   -2.126009399233e-02
    37    2.243072081076e-03
    38   -8.842256568481e-03
    39   -5.419295808471e-01
    40    4.670256206726e-01
    41   -2.051179760962e-02
    42   -1.130510493164e-01
    43   -7.245633339340e-03
    44   -5.310009605057e-01
    45    4.645069174909e-01
    46    1.098455103008e-01
    47    2.673007282937e-02
    48    7.271933653784e-03
Sym=X
Ene= 0.807964
Spin=Alpha
Occup=0
     1   -5.132938304958e-03
     2    6.889928769953e-03
     3   -1.123920454321e-03
     4    2.486130020508e-03
     5   -3.397374290420e-02
     6   -8.043314381885e-04
     7   -1.980654833161e-03
     8    3.883904093138e-03
     9    3.502066848097e-02
    10    4.585655815327e-02
    11   -7.630043613406e-01
    12   -5.854563791980e-02
    13   -6.084299565071e-02
    14    1.126974514974e+00
    15    3.168978382324e-03
    16   -6.546153084635e-02
    17    6.155460604457e-02
    18    6.897201938688e-03
    19    5.787761444264e-04
    20   -5.195773955445e-03
    21    7.934225981848e-03
    22    1.075261067869e-03
    23    4.890057362982e-03
    24   -3.426880303010e-02
    25    1.168810080885e-03
    26   -6.144598040820e-03
    27    3.844819150814e-04
    28   -4.191855752013e-02
    29   -4.022682475826e-02
    30    7.631613425141e-01
    31    5.643175593367e-02
    32    6.431347130192e-02
    33   -1.126934244566e+00
    34   -2.803589176547e-03
    35   -6.502348697346e-02
    36    6.210633603947e-02
    37    6.720109679446e-03
    38   -7.062868066304e-04
    39    5.346634307719e-03
    40   -5.401701222271e-03
    41   -1.692053682307e-03
    42   -1.055977173782e-03
    43    3.435130851257e-02
    44    5.114424062250e-03
    45   -4.847767225206e-03
    46   -2.496369845192e-03
    47   -1.946743229936e-03
    48    3.366537753026e-02
Sym=X
Ene= 0.862235
Spin=Alpha
Occup=0
     1    1.420594545609e-02
     2   -1.096101045771e+00
     3    1.486609533190e-01
     4    5.635643081557e-02
     5    9.189165174107e-03
     6    4.280396573473e-04
     7    4.624692294517e-04
     8    1.653815677873e-03
     9   -4.062149350910e-01
    10   -4.300398328129e-01
    11   -4.442890085767e-02
    12    9.471765277855e-01
    13    1.000594554265e+00
    14    1.035643477061e-01
    15   -1.609993732953e-03
    16    1.105165912501e-02
    17   -1.422743560687e-02
    18    2.352986176844e-01
    19    9.218956324747e-03
    20   -1.292947838454e-02
    21    1.103894308120e+00
    22    5.037404015284e-02
    23    1.512098232880e-01
    24    1.254624981392e-02
    25   -2.318267028614e-04
    26    3.135830482267e-03
    27   -3.986963744625e-03
    28   -4.056287845936e-01
    29   -4.300855433346e-01
    30   -4.516173650131e-02
    31    9.448466129297e-01
    32    1.002879909335e+00
    33    1.051464159529e-01
    34    6.921925795017e-04
    35   -1.144872752421e-02
    36    1.396591282475e-02
    37   -2.364117757332e-01
    38   -9.963351325563e-03
    39    1.145213170153e-02
    40   -1.101925294859e+00
    41    4.896203755895e-02
    42    1.513967785934e-01
    43    1.183897230545e-02
    44   -1.188745512685e-02
    45    1.094373420276e+00
    46    1.488047134062e-01
    47    5.568234752990e-02
    48    9.877816650196e-03
Sym=X
Ene= 0.935872
Spin=Alpha
Occup=0
     1   -1.130931954036e-01
     2    1.274576148999e+00
     3   -1.806190753222e-01
     4    6.063497106758e-03
     5   -8.693173867410e-03
     6   -2.756262496083e-04
     7   -6.092727004782e-03
     8    6.761274920477e-04
     9    4.701640380030e-01
    10    5.016729703016e-01
    11    5.190707677023e-02
    12   -1.459457408832e+00
    13   -1.546503378131e+00
    14   -1.606229610864e-01
    15   -1.794800692927e-04
    16   -5.385586541676e-03
    17    7.435121801969e-03
    18   -1.201544415107e-01
    19   -7.007657132750e-04
    20    1.169385216763e-01
    21   -1.290317619404e+00
    22    1.104235988413e-02
    23   -1.833317877132e-01
    24   -9.866585860691e-03
    25    2.069409749154e-04
    26   -2.790905533160e-03
    27    7.497553729250e-03
    28   -4.765059883352e-01
    29   -4.960091993913e-01
    30   -5.210137299119e-02
    31    1.475862148351e+00
    32    1.528398520132e+00
    33    1.609858656173e-01
    34   -1.452594025112e-03
    35   -7.871463977211e-03
    36    5.052847678586e-03
    37   -1.206633475052e-01
    38   -5.405812577611e-03
    39    1.168204318170e-01
    40   -1.280361255306e+00
    41   -1.352621451740e-02
    42    1.822156606269e-01
    43    8.604626579549e-03
    44   -1.146951802048e-01
    45    1.288673571978e+00
    46    1.817914584670e-01
    47   -5.322951661200e-03
    48    9.937272825821e-03
Sym=X
Ene= 0.972459
Spin=Alpha
Occup=0
     1   -6.461881113034e-02
     2    9.355267412964e-01
     3   -9.225824810053e-02
     4   -9.860480187584e-02
     5   -8.317025039765e-03
     6    2.535590389385e-02
     7    2.537744590841e-01
     8    5.172073536198e-01
     9    4.840727178567e-01
    10   -4.515864789977e-01
    11   -5.952215743904e-03
    12   -1.505581943272e+00
    13    1.396558765770e+00
    14    1.467518322958e-02
    15   -5.397542557054e-02
    16   -9.657128677291e-03
    17   -1.273110132525e-02
    18    1.217980145108e-02
    19   -3.016466312450e-01
    20   -6.226556226373e-02
    21    9.006147434309e-01
    22    9.527683679805e-02
    23    9.170832196064e-02
    24    1.189803737342e-02
    25   -2.516021345564e-02
    26   -2.370614586398e-01
    27   -5.448949939703e-01
    28    4.758621499058e-01
    29   -4.571480025550e-01
    30   -5.018102347766e-04
    31   -1.475856280157e+00
    32    1.424201999890e+00
    33    6.707788100678e-04
    34    5.280351119759e-02
    35    9.846221084540e-03
    36    1.238688953542e-02
    37   -1.423185948838e-02
    38    2.989928433179e-01
    39    6.183727010973e-02
    40   -9.143284232493e-01
    41    9.416246611539e-02
    42    9.342305146228e-02
    43    1.066180334420e-02
    44    6.616018323830e-02
    45   -9.047797448882e-01
    46   -8.819352460593e-02
    47   -9.784289459027e-02
    48   -9.322971166933e-03
[5D]

======= END OF MOLDEN-FORMATTED INPUT FILE =======


        *************************************************************
        *                                                           *
        *  Thank you very much for using Q-Chem.  Have a nice day.  *
        *                                                           *
        *************************************************************


